<event>
12    1  0.1032880E+000  0.2505074E+03  0.7818608E-02  0.1113023E+00
         21   -1    0    0  501  502  0.00000000000E+00  0.00000000000E+00  0.19107541831E+03  0.19107541831E+03  0.00000000000E+00 0.  1.
         21   -1    0    0  502  503 -0.00000000000E+00 -0.00000000000E+00 -0.34145258269E+03  0.34145258269E+03  0.00000000000E+00 0.  1.
         -6    2    1    2    0  503  0.12879548174E+03 -0.12793136095E+03 -0.12779842613E+03  0.28100508389E+03  0.17226929565E+03 0.  0.
        -24    2    3    3    0    0  0.13564998716E+03 -0.13607993313E+03 -0.67392162677E+02  0.21948768686E+03  0.81941893294E+02 0.  0.
          6    2    1    2  501    0 -0.12879548174E+03  0.12793136095E+03 -0.22578738257E+02  0.25152291710E+03  0.17262464823E+03 0.  0.
         24    2    5    5    0    0 -0.40489836777E+02  0.10855992893E+03 -0.59675311676E+02  0.15368946132E+03  0.81453192987E+02 0.  0.
          5    1    5    5  501    0 -0.88305644959E+02  0.19371432027E+02  0.37096573419E+02  0.97833455779E+02  0.47000000000E+01 0. -1.
        -11    1    6    6    0    0  0.15347607328E+02  0.14214239545E+02  0.10617356269E+02  0.23458940954E+02  0.00000000000E+00 0.  1.
         12    1    6    6    0    0 -0.55837444105E+02  0.94345689381E+02 -0.70292667945E+02  0.13023052037E+03  0.00000000000E+00 0. -1.
         -5    1    3    3    0  503 -0.68545054234E+01  0.81485721813E+01 -0.60406263452E+02  0.61517397031E+02  0.47000000000E+01 0.  1.
         11    1    4    4    0    0  0.51950471827E+02 -0.16372006847E+02 -0.47116920700E+02  0.72020124600E+02  0.00000000000E+00 0. -1.
        -12    1    4    4    0    0  0.83699515332E+02 -0.11970792629E+03 -0.20275241977E+02  0.14746756226E+03  0.00000000000E+00 0.  1.
</event>
<event>
12    1  0.1032880E+000  0.1880521E+03  0.7818608E-02  0.1160694E+00
         21   -1    0    0  503  502  0.00000000000E+00  0.00000000000E+00  0.98702889332E+03  0.98702889332E+03  0.00000000000E+00 0.  1.
         21   -1    0    0  501  503 -0.00000000000E+00 -0.00000000000E+00 -0.35623451626E+02  0.35623451626E+02  0.00000000000E+00 0.  1.
          6    2    1    2  501    0 -0.54261115059E+02  0.48709755806E+02  0.43697800346E+03  0.47493054103E+03  0.17115003472E+03 0.  0.
         24    2    3    3    0    0  0.24991511727E+02  0.18914797372E+02  0.31655228840E+03  0.32764455648E+03  0.78506425726E+02 0.  0.
         -6    2    1    2    0  502  0.54261115059E+02 -0.48709755806E+02  0.51442743824E+03  0.54772180391E+03  0.17333977140E+03 0.  0.
        -24    2    5    5    0    0 -0.86841126406E+01 -0.65540453617E+02  0.42271210854E+03  0.43512000206E+03  0.79201796769E+02 0.  0.
          5    1    3    3  501    0 -0.79252626786E+02  0.29794958434E+02  0.12042571506E+03  0.14728598456E+03  0.47000000000E+01 0. -1.
        -13    1    4    4    0    0 -0.52329488211E+00 -0.96530734531E+01  0.25476227853E+03  0.25494562994E+03  0.00000000000E+00 0.  1.
         14    1    4    4    0    0  0.25514806609E+02  0.28567870825E+02  0.61790009870E+02  0.72698926536E+02  0.00000000000E+00 0. -1.
         -5    1    5    5    0  502  0.62945227699E+02  0.16830697811E+02  0.91715329696E+02  0.11260180185E+03  0.47000000000E+01 0.  1.
         13    1    6    6    0    0  0.26830777780E+01 -0.37744685181E+02  0.38526547609E+03  0.38711929328E+03  0.00000000000E+00 0. -1.
        -14    1    6    6    0    0 -0.11367190419E+02 -0.27795768437E+02  0.37446632453E+02  0.48000708777E+02  0.00000000000E+00 0.  1.
</event>
<event>
12    1  0.1032880E+000  0.2449435E+03  0.7818608E-02  0.1116729E+00
         21   -1    0    0  501  502  0.00000000000E+00  0.00000000000E+00  0.10845793596E+04  0.10845793596E+04  0.00000000000E+00 0.  1.
         21   -1    0    0  502  503 -0.00000000000E+00 -0.00000000000E+00 -0.77853916785E+02  0.77853916785E+02  0.00000000000E+00 0. -1.
         -6    2    1    2    0  503 -0.16288433410E+03 -0.59451819111E+02  0.81701717679E+03  0.85261631603E+03  0.17138170876E+03 0.  0.
        -24    2    3    3    0    0 -0.18637118459E+03 -0.46729096972E+02  0.77528515992E+03  0.80284533013E+03  0.81090800837E+02 0.  0.
          6    2    1    2  501    0  0.16288433410E+03  0.59451819111E+02  0.18970826598E+03  0.30981696031E+03  0.17300721843E+03 0.  0.
         24    2    5    5    0    0  0.31413659820E+02  0.19879598517E+02  0.13611148068E+03  0.16235440835E+03  0.80315641551E+02 0.  0.
          5    1    5    5  501    0  0.13147067428E+03  0.39572220594E+02  0.53596785302E+02  0.14746255196E+03  0.47000000000E+01 0. -1.
        -11    1    6    6    0    0 -0.26897037608E+02  0.95286391347E+01  0.54514007858E+02  0.61530664295E+02  0.00000000000E+00 0.  1.
         12    1    6    6    0    0  0.58310697427E+02  0.10350959382E+02  0.81597472818E+02  0.10082374405E+03  0.00000000000E+00 0. -1.
         -5    1    3    3    0  503  0.23486850491E+02 -0.12722722138E+02  0.41732016876E+02  0.49770985897E+02  0.47000000000E+01 0.  1.
         13    1    4    4    0    0 -0.71402985150E+02 -0.36856611023E+02  0.18998845199E+03  0.20628235007E+03  0.00000000000E+00 0. -1.
        -14    1    4    4    0    0 -0.11496819944E+03 -0.98724859495E+01  0.58529670793E+03  0.59656298006E+03  0.00000000000E+00 0.  1.
</event>
<event>
12    1  0.1032880E+000  0.1742597E+03  0.7818608E-02  0.1173529E+00
         21   -1    0    0  503  502  0.00000000000E+00  0.00000000000E+00  0.33064691941E+02  0.33064691941E+02  0.00000000000E+00 0.  1.
         21   -1    0    0  501  503 -0.00000000000E+00 -0.00000000000E+00 -0.95386681625E+03  0.95386681625E+03  0.00000000000E+00 0.  1.
          6    2    1    2  501    0 -0.12939125363E+02 -0.22881687419E+02 -0.36406460770E+03  0.40362048262E+03  0.17226567511E+03 0.  0.
         24    2    3    3    0    0  0.21008038974E+02  0.22647890172E+01 -0.74094949792E+02  0.11055180849E+03  0.79279088069E+02 0.  0.
         -6    2    1    2    0  502  0.12939125363E+02  0.22881687419E+02 -0.55673751661E+03  0.58331102558E+03  0.17205841327E+03 0.  0.
        -24    2    5    5    0    0 -0.35895534426E+02  0.54807456908E+02 -0.44972984300E+03  0.46134049240E+03  0.79282857617E+02 0.  0.
          5    1    3    3  501    0 -0.33947164337E+02 -0.25146476436E+02 -0.28996965791E+03  0.29306867413E+03  0.47000000000E+01 0. -1.
        -13    1    4    4    0    0 -0.23525854454E+02  0.10819883980E+02 -0.56055131498E+02  0.61747173897E+02  0.00000000000E+00 0.  1.
         14    1    4    4    0    0  0.44533893428E+02 -0.85550949628E+01 -0.18039818294E+02  0.48804634593E+02  0.00000000000E+00 0. -1.
         -5    1    5    5    0  502  0.48834659789E+02 -0.31925769489E+02 -0.10700767360E+03  0.12197053318E+03  0.47000000000E+01 0.  1.
         11    1    6    6    0    0 -0.42358159309E+02  0.93196800775E+01 -0.33432083566E+03  0.33712236837E+03  0.00000000000E+00 0. -1.
        -12    1    6    6    0    0  0.64626248828E+01  0.45487776831E+02 -0.11540900734E+03  0.12421812403E+03  0.00000000000E+00 0.  1.
</event>
<event>
12    1  0.1032880E+000  0.1887175E+03  0.7818608E-02  0.1159707E+00
         21   -1    0    0  503  502  0.00000000000E+00  0.00000000000E+00  0.10047991280E+03  0.10047991280E+03  0.00000000000E+00 0.  1.
         21   -1    0    0  501  503 -0.00000000000E+00 -0.00000000000E+00 -0.38761074893E+03  0.38761074893E+03  0.00000000000E+00 0.  1.
          6    2    1    2  501    0  0.35776356562E+01  0.77398117968E+02 -0.21582698793E+03  0.28669768967E+03  0.17207849489E+03 0.  0.
         24    2    3    3    0    0 -0.67678003902E+01  0.11735738566E+03 -0.13525496248E+03  0.19604609064E+03  0.79508525902E+02 0.  0.
         -6    2    1    2    0  502 -0.35776356562E+01 -0.77398117968E+02 -0.71303848191E+02  0.20139297205E+03  0.17167300977E+03 0.  0.
        -24    2    5    5    0    0  0.43526192638E+02 -0.55749485796E+02  0.41998411600E+01  0.10968511514E+03  0.83729631582E+02 0.  0.
          5    1    3    3  501    0  0.10345436046E+02 -0.39959267687E+02 -0.80572025454E+02  0.90651599031E+02  0.47000000000E+01 0. -1.
        -11    1    4    4    0    0  0.26173161838E+02  0.64573887294E+02 -0.34800412818E+02  0.77883824079E+02  0.00000000000E+00 0.  1.
         12    1    4    4    0    0 -0.32940962229E+02  0.52783498361E+02 -0.10045454966E+03  0.11816226656E+03  0.00000000000E+00 0. -1.
         -5    1    5    5    0  502 -0.47103828294E+02 -0.21648632173E+02 -0.75503689351E+02  0.91707856918E+02  0.47000000000E+01 0.  1.
         11    1    6    6    0    0  0.25084311374E+02 -0.15430867123E+02 -0.38269861563E+02  0.48289922772E+02  0.00000000000E+00 0. -1.
        -12    1    6    6    0    0  0.18441881264E+02 -0.40318618672E+02  0.42469702723E+02  0.61395192365E+02  0.00000000000E+00 0.  1.
</event>
<event>
12    1  0.1032880E+000  0.2481373E+03  0.7818608E-02  0.1114543E+00
         21   -1    0    0  503  502  0.00000000000E+00  0.00000000000E+00  0.21809844142E+03  0.21809844142E+03  0.00000000000E+00 0.  1.
         21   -1    0    0  501  503 -0.00000000000E+00 -0.00000000000E+00 -0.28206887684E+03  0.28206887684E+03  0.00000000000E+00 0.  1.
          6    2    1    2  501    0  0.51265630699E+02 -0.17097750779E+03 -0.37831619939E+02  0.25100469294E+03  0.17236777932E+03 0.  0.
         24    2    3    3    0    0 -0.55787852386E+01 -0.23364289191E+02  0.12818787207E+02  0.84846624606E+02  0.80359290362E+02 0.  0.
         -6    2    1    2    0  502 -0.51265630699E+02  0.17097750779E+03 -0.26138815482E+02  0.24916262533E+03  0.17186419966E+03 0.  0.
        -24    2    5    5    0    0  0.33490238291E+02  0.10783156694E+03 -0.35302100855E+02  0.14296929704E+03  0.80279129800E+02 0.  0.
          5    1    3    3  501    0  0.56844415938E+02 -0.14761321860E+03 -0.50650407146E+02  0.16615806833E+03  0.47000000000E+01 0. -1.
        -13    1    4    4    0    0  0.13109051625E+02  0.17105121827E+02  0.30115899343E+02  0.37032415807E+02  0.00000000000E+00 0.  1.
         14    1    4    4    0    0 -0.18687836864E+02 -0.40469411018E+02 -0.17297112137E+02  0.47814208799E+02  0.00000000000E+00 0. -1.
         -5    1    5    5    0  502 -0.84755868990E+02  0.63145940846E+02  0.91632853735E+01  0.10619332829E+03  0.47000000000E+01 0.  1.
         11    1    6    6    0    0  0.27343229872E+02  0.57073406571E+02 -0.59084771997E+02  0.86579652572E+02  0.00000000000E+00 0. -1.
        -12    1    6    6    0    0  0.61470084186E+01  0.50758160369E+02  0.23782671142E+02  0.56389644467E+02  0.00000000000E+00 0.  1.
</event>
<event>
12    1  0.1032880E+000  0.3718302E+03  0.7818608E-02  0.1054020E+00
         21   -1    0    0  503  502  0.00000000000E+00  0.00000000000E+00  0.13884472607E+04  0.13884472607E+04  0.00000000000E+00 0.  1.
         21   -1    0    0  501  503 -0.00000000000E+00 -0.00000000000E+00 -0.31535978735E+03  0.31535978735E+03  0.00000000000E+00 0.  1.
          6    2    1    2  501    0 -0.26288157192E+03  0.19824546076E+03 -0.16819711759E+03  0.40810285015E+03  0.17277060619E+03 0.  0.
         24    2    3    3    0    0 -0.74096245439E+02  0.63993535559E+02 -0.11356171656E+03  0.17004698283E+03  0.80214005772E+02 0.  0.
         -6    2    1    2    0  502  0.26288157192E+03 -0.19824546076E+03  0.12412845909E+04  0.12957041979E+04  0.17220322066E+03 0.  0.
        -24    2    5    5    0    0  0.24180928293E+03 -0.12856795271E+03  0.11030192560E+04  0.11393763714E+04  0.80781116913E+02 0.  0.
          5    1    3    3  501    0 -0.18878532648E+03  0.13425192520E+03 -0.54635401029E+02  0.23805586731E+03  0.47000000000E+01 0. -1.
        -13    1    4    4    0    0 -0.45544243163E+02 -0.10535652655E+02 -0.43026845837E+02  0.63534144559E+02  0.00000000000E+00 0.  1.
         14    1    4    4    0    0 -0.28552002275E+02  0.74529188214E+02 -0.70534870719E+02  0.10651283827E+03  0.00000000000E+00 0. -1.
         -5    1    5    5    0  502  0.21072288992E+02 -0.69677508051E+02  0.13826533496E+03  0.15632782651E+03  0.47000000000E+01 0.  1.
         11    1    6    6    0    0  0.20611802751E+03 -0.71627218661E+02  0.82913368874E+03  0.85736676721E+03  0.00000000000E+00 0. -1.
        -12    1    6    6    0    0  0.35691255425E+02 -0.56940734048E+02  0.27388556721E+03  0.28200960415E+03  0.00000000000E+00 0.  1.
</event>
<event>
12    1  0.1032880E+000  0.2209779E+03  0.7818608E-02  0.1133396E+00
         21   -1    0    0  501  502  0.00000000000E+00  0.00000000000E+00  0.26096833532E+03  0.26096833532E+03  0.00000000000E+00 0.  1.
         21   -1    0    0  502  503 -0.00000000000E+00 -0.00000000000E+00 -0.19008630219E+03  0.19008630219E+03  0.00000000000E+00 0.  1.
         -6    2    1    2    0  503  0.84686135394E+02 -0.10775123504E+03  0.23774617621E+01  0.21970189023E+03  0.17170089710E+03 0.  0.
        -24    2    3    3    0    0  0.55514092252E+02 -0.59261203083E+02  0.67665905112E+02  0.13317465674E+03  0.81013022743E+02 0.  0.
          6    2    1    2  501    0 -0.84686135394E+02  0.10775123504E+03  0.68504571373E+02  0.23135274729E+03  0.17334689844E+03 0.  0.
         24    2    5    5    0    0 -0.88892915362E+02  0.58199398897E+02 -0.15598145061E+02  0.13353435242E+03  0.79366244171E+02 0.  0.
          5    1    5    5  501    0  0.42067799680E+01  0.49551836138E+02  0.84102716434E+02  0.97818394865E+02  0.47000000000E+01 0. -1.
        -11    1    6    6    0    0 -0.26075926370E+02 -0.15253904047E+02 -0.20905646369E+02  0.36738012669E+02  0.00000000000E+00 0.  1.
         12    1    6    6    0    0 -0.62816988992E+02  0.73453302945E+02  0.53075013080E+01  0.96796339753E+02  0.00000000000E+00 0. -1.
         -5    1    3    3    0  503  0.29172043142E+02 -0.48490031952E+02 -0.65288443350E+02  0.86527233486E+02  0.47000000000E+01 0.  1.
         11    1    4    4    0    0  0.69345055395E+02 -0.19789965745E+02  0.35301611054E+02  0.80290617104E+02  0.00000000000E+00 0. -1.
        -12    1    4    4    0    0 -0.13830963142E+02 -0.39471237339E+02  0.32364294058E+02  0.52884039637E+02  0.00000000000E+00 0.  1.
</event>
<event>
12    1  0.1032880E+000  0.2478170E+03  0.7818608E-02  0.1114720E+00
         21   -1    0    0  503  502  0.00000000000E+00  0.00000000000E+00  0.37174871669E+03  0.37174871669E+03  0.00000000000E+00 0.  1.
         21   -1    0    0  501  503 -0.00000000000E+00 -0.00000000000E+00 -0.20052314661E+03  0.20052314661E+03  0.00000000000E+00 0.  1.
          6    2    1    2  501    0  0.16381627127E+02 -0.17769903565E+03  0.20587822362E+03  0.32204380523E+03  0.17170050828E+03 0.  0.
         24    2    3    3    0    0  0.55318791891E+02 -0.14669575501E+03  0.20748418087E+03  0.27202405604E+03  0.79797170858E+02 0.  0.
         -6    2    1    2    0  502 -0.16381627127E+02  0.17769903565E+03 -0.34652653540E+02  0.25022805808E+03  0.17195339390E+03 0.  0.
        -24    2    5    5    0    0 -0.22632075119E+02  0.25776892882E+02 -0.44283439471E+02  0.97800214160E+02  0.80169818807E+02 0.  0.
          5    1    3    3  501    0 -0.38937164764E+02 -0.31003280639E+02 -0.16059572496E+01  0.50019749189E+02  0.47000000000E+01 0. -1.
        -11    1    4    4    0    0  0.14386649615E+02 -0.44121046607E+01 -0.23350090986E+01  0.15228086623E+02  0.00000000000E+00 0.  1.
         12    1    4    4    0    0  0.40932142275E+02 -0.14228365035E+03  0.20981918997E+03  0.25679596942E+03  0.00000000000E+00 0. -1.
         -5    1    5    5    0  502  0.62504479922E+01  0.15192214277E+03  0.96307859310E+01  0.15242784392E+03  0.47000000000E+01 0.  1.
         13    1    6    6    0    0  0.82809952819E+01  0.30181278896E+02  0.11932503002E+02  0.33494314540E+02  0.00000000000E+00 0. -1.
        -14    1    6    6    0    0 -0.30913070401E+02 -0.44043860139E+01 -0.56215942473E+02  0.64305899620E+02  0.00000000000E+00 0.  1.
</event>
<event>
12    1  0.1032880E+000  0.2818423E+03  0.7818608E-02  0.1095338E+00
         21   -1    0    0  501  502  0.00000000000E+00  0.00000000000E+00  0.41266826127E+03  0.41266826127E+03  0.00000000000E+00 0. -1.
         21   -1    0    0  502  503 -0.00000000000E+00 -0.00000000000E+00 -0.20417143552E+03  0.20417143552E+03  0.00000000000E+00 0. -1.
         -6    2    1    2    0  503  0.34674693848E+02 -0.21567496743E+03  0.21703838041E+02  0.28267677519E+03  0.17809288777E+03 0.  0.
        -24    2    3    3    0    0  0.43761540684E+02 -0.17967574343E+03  0.77066389323E+02  0.21585150303E+03  0.80338021993E+02 0.  0.
          6    2    1    2  501    0 -0.34674693848E+02  0.21567496743E+03  0.18679298771E+03  0.33416292160E+03  0.17045589443E+03 0.  0.
         24    2    5    5    0    0 -0.50352391851E+02  0.20343921658E+03  0.10112033904E+03  0.24608683777E+03  0.80065788875E+02 0.  0.
          5    1    5    5  501    0  0.15677698004E+02  0.12235750855E+02  0.85672648667E+02  0.88076083832E+02  0.47000000000E+01 0. -1.
        -13    1    6    6    0    0 -0.65938077873E+02  0.10094031908E+03  0.50603901247E+02  0.13075753497E+03  0.00000000000E+00 0.  1.
         14    1    6    6    0    0  0.15585686022E+02  0.10249889749E+03  0.50516437795E+02  0.11532930280E+03  0.00000000000E+00 0. -1.
         -5    1    3    3    0  503 -0.90868468363E+01 -0.35999224002E+02 -0.55362551282E+02  0.66825272155E+02  0.47000000000E+01 0.  1.
         13    1    4    4    0    0 -0.17011557000E+01 -0.92805434843E+01 -0.14378019405E+02  0.17197379454E+02  0.00000000000E+00 0. -1.
        -14    1    4    4    0    0  0.45462696384E+02 -0.17039519995E+03  0.91444408728E+02  0.19865412358E+03  0.00000000000E+00 0.  1.
</event>
<event>
12    1  0.1032880E+000  0.2356830E+03  0.7818608E-02  0.1122825E+00
         21   -1    0    0  503  502  0.00000000000E+00  0.00000000000E+00  0.30817514426E+03  0.30817514426E+03  0.00000000000E+00 0.  1.
         21   -1    0    0  501  503 -0.00000000000E+00 -0.00000000000E+00 -0.21262023907E+03  0.21262023907E+03  0.00000000000E+00 0.  1.
          6    2    1    2  501    0  0.13158928524E+01 -0.16260701804E+03 -0.54630917227E+02  0.24193182967E+03  0.17059806329E+03 0.  0.
         24    2    3    3    0    0 -0.47283469372E+02 -0.82268874456E+02  0.14541981548E+02  0.12521381371E+03  0.80393629949E+02 0.  0.
         -6    2    1    2    0  502 -0.13158928524E+01  0.16260701804E+03  0.15018582242E+03  0.27886355366E+03  0.16960638671E+03 0.  0.
        -24    2    5    5    0    0  0.84471070045E+01  0.14243724456E+03  0.17928041901E+03  0.24184029773E+03  0.77366263383E+02 0.  0.
          5    1    3    3  501    0  0.48599362225E+02 -0.80338143588E+02 -0.69172898775E+02  0.11671801596E+03  0.47000000000E+01 0. -1.
        -11    1    4    4    0    0 -0.32290658026E+02 -0.20799928859E+02  0.41404067941E+02  0.56476725103E+02  0.00000000000E+00 0.  1.
         12    1    4    4    0    0 -0.14992811346E+02 -0.61468945597E+02 -0.26862086393E+02  0.68737088607E+02  0.00000000000E+00 0. -1.
         -5    1    5    5    0  502 -0.97629998569E+01  0.20169773484E+02 -0.29094596594E+02  0.37023255929E+02  0.47000000000E+01 0.  1.
         13    1    6    6    0    0  0.13946745046E+02 -0.49673861347E+01  0.16279397726E+02  0.22004667975E+02  0.00000000000E+00 0. -1.
        -14    1    6    6    0    0 -0.54996380415E+01  0.14740463069E+03  0.16300102129E+03  0.21983562975E+03  0.00000000000E+00 0.  1.
</event>
<event>
12    1  0.1032880E+000  0.3315469E+03  0.7818608E-02  0.1070488E+00
         21   -1    0    0  503  502  0.00000000000E+00  0.00000000000E+00  0.28906006943E+03  0.28906006943E+03  0.00000000000E+00 0. -1.
         21   -1    0    0  501  503 -0.00000000000E+00 -0.00000000000E+00 -0.41215913433E+03  0.41215913433E+03  0.00000000000E+00 0. -1.
          6    2    1    2  501    0  0.22559721310E+03 -0.17199010048E+03  0.36463010415E+02  0.33354597635E+03  0.17160614789E+03 0.  0.
         24    2    3    3    0    0  0.11904744244E+03 -0.16510296344E+03  0.55067953874E+02  0.22506316571E+03  0.78674436310E+02 0.  0.
         -6    2    1    2    0  502 -0.22559721310E+03  0.17199010048E+03 -0.15956207532E+03  0.36767322741E+03  0.17102294891E+03 0.  0.
        -24    2    5    5    0    0 -0.22275392196E+03  0.13871235825E+03 -0.18010766272E+03  0.32818014455E+03  0.80018804180E+02 0.  0.
          5    1    3    3  501    0  0.10654977066E+03 -0.68871370447E+01 -0.18604943459E+02  0.10848281065E+03  0.47000000000E+01 0. -1.
        -11    1    4    4    0    0  0.61724409000E+01  0.72882502156E+01 -0.45155645785E+01  0.10564465975E+02  0.00000000000E+00 0.  1.
         12    1    4    4    0    0  0.11287500154E+03 -0.17239121365E+03  0.59583518452E+02  0.21449869973E+03  0.00000000000E+00 0. -1.
         -5    1    5    5    0  502 -0.28432911414E+01  0.33277742227E+02  0.20545587407E+02  0.39493082865E+02  0.47000000000E+01 0.  1.
         13    1    6    6    0    0 -0.36571485907E+02  0.34568815863E+02 -0.75111628229E+02  0.90411466678E+02  0.00000000000E+00 0. -1.
        -14    1    6    6    0    0 -0.18618243605E+03  0.10414354239E+03 -0.10499603449E+03  0.23776867787E+03  0.00000000000E+00 0.  1.
</event>
<event>
12    1  0.1032880E+000  0.3205156E+03  0.7818608E-02  0.1075447E+00
         21   -1    0    0  501  502  0.00000000000E+00  0.00000000000E+00  0.47621060666E+03  0.47621060666E+03  0.00000000000E+00 0. -1.
         21   -1    0    0  502  503 -0.00000000000E+00 -0.00000000000E+00 -0.39312201867E+03  0.39312201867E+03  0.00000000000E+00 0.  1.
         -6    2    1    2    0  503  0.24621306039E+03 -0.11216165670E+03  0.33371074854E+03  0.46270199880E+03  0.17184052973E+03 0.  0.
        -24    2    3    3    0    0  0.24178240147E+03 -0.54555785253E+02  0.29171154071E+03  0.39111924513E+03  0.80271897709E+02 0.  0.
          6    2    1    2  501    0 -0.24621306039E+03  0.11216165670E+03 -0.25062216055E+03  0.40663062653E+03  0.17127723355E+03 0.  0.
         24    2    5    5    0    0 -0.26616158453E+03  0.10867234108E+03 -0.22739898691E+03  0.37546133503E+03  0.81297282017E+02 0.  0.
          5    1    5    5  501    0  0.19948524135E+02  0.34893156249E+01 -0.23223173644E+02  0.31169291503E+02  0.47000000000E+01 0. -1.
        -13    1    6    6    0    0 -0.31139226967E+02  0.14569344492E+02  0.11468835817E+01  0.34398148162E+02  0.00000000000E+00 0.  1.
         14    1    6    6    0    0 -0.23502235756E+03  0.94102996586E+02 -0.22854587049E+03  0.34106318687E+03  0.00000000000E+00 0. -1.
         -5    1    3    3    0  503  0.44306589204E+01 -0.57605871450E+02  0.41999207824E+02  0.71582753662E+02  0.47000000000E+01 0.  1.
         13    1    4    4    0    0  0.17162414499E+03 -0.22387613744E+02  0.24798692308E+03  0.30241290715E+03  0.00000000000E+00 0. -1.
        -14    1    4    4    0    0  0.70158256486E+02 -0.32168171509E+02  0.43724617633E+02  0.88706337985E+02  0.00000000000E+00 0.  1.
</event>
<event>
12    1  0.1032880E+000  0.4339983E+03  0.7818608E-02  0.1032622E+00
         21   -1    0    0  501  502  0.00000000000E+00  0.00000000000E+00  0.22205808373E+03  0.22205808373E+03  0.00000000000E+00 0.  1.
         21   -1    0    0  502  503 -0.00000000000E+00 -0.00000000000E+00 -0.10909999248E+04  0.10909999248E+04  0.00000000000E+00 0.  1.
         -6    2    1    2    0  503 -0.39780466658E+03  0.19152215020E+02 -0.12439321383E+03  0.45125342548E+03  0.17187385569E+03 0.  0.
        -24    2    3    3    0    0 -0.16746157533E+03  0.62461178999E+02 -0.86440154965E+02  0.21377473017E+03  0.79265104412E+02 0.  0.
          6    2    1    2  501    0  0.39780466658E+03 -0.19152215020E+02 -0.74454862720E+03  0.86180458300E+03  0.17245034339E+03 0.  0.
         24    2    5    5    0    0  0.20054459334E+03  0.40436920167E+02 -0.46796022850E+03  0.51686164016E+03  0.79409704556E+02 0.  0.
          5    1    5    5  501    0  0.19726007324E+03 -0.59589135188E+02 -0.27658839870E+03  0.34494294285E+03  0.47000000000E+01 0. -1.
        -11    1    6    6    0    0  0.78440359081E+01 -0.16678489171E+02 -0.41903707719E+02  0.45777959992E+02  0.00000000000E+00 0.  1.
         12    1    6    6    0    0  0.19270055743E+03  0.57115409339E+02 -0.42605652078E+03  0.47108368017E+03  0.00000000000E+00 0. -1.
         -5    1    3    3    0  503 -0.23034309125E+03 -0.43308963979E+02 -0.37953058868E+02  0.23747869531E+03  0.47000000000E+01 0.  1.
         11    1    4    4    0    0 -0.17356572419E+03  0.67870561351E+02 -0.86852010737E+02  0.20560823301E+03  0.00000000000E+00 0. -1.
        -12    1    4    4    0    0  0.61041488628E+01 -0.54093823523E+01  0.41185577197E+00  0.81664971652E+01  0.00000000000E+00 0.  1.
</event>
<event>
12    1  0.1032880E+000  0.1898588E+03  0.7818608E-02  0.1158610E+00
         21   -1    0    0  503  502  0.00000000000E+00  0.00000000000E+00  0.95946922835E+03  0.95946922835E+03  0.00000000000E+00 0.  1.
         21   -1    0    0  501  503 -0.00000000000E+00 -0.00000000000E+00 -0.38033650059E+02  0.38033650059E+02  0.00000000000E+00 0. -1.
          6    2    1    2  501    0 -0.21968163328E+02 -0.76752345007E+02  0.51704912472E+03  0.55080499734E+03  0.17225801886E+03 0.  0.
         24    2    3    3    0    0 -0.21631708867E+02 -0.92313974713E+02  0.51875405580E+03  0.53445647109E+03  0.86880080107E+02 0.  0.
         -6    2    1    2    0  502  0.21968163328E+02  0.76752345007E+02  0.40438645358E+03  0.44669788107E+03  0.17215420544E+03 0.  0.
        -24    2    5    5    0    0  0.78936541150E+02  0.49575739372E+02  0.30668362292E+03  0.33028526542E+03  0.79654130584E+02 0.  0.
          5    1    3    3  501    0 -0.33645446102E+00  0.15561629706E+02 -0.17049310856E+01  0.16348526255E+02  0.47000000000E+01 0. -1.
        -11    1    4    4    0    0 -0.36788077065E+02 -0.59769287887E+02  0.17083146458E+03  0.18468654439E+03  0.00000000000E+00 0.  1.
         12    1    4    4    0    0  0.15156368198E+02 -0.32544686826E+02  0.34792259122E+03  0.34976992670E+03  0.00000000000E+00 0. -1.
         -5    1    5    5    0  502 -0.56968377823E+02  0.27176605635E+02  0.97702830653E+02  0.11641261565E+03  0.47000000000E+01 0.  1.
         11    1    6    6    0    0  0.46797232125E+02  0.63050946539E+02  0.14506814305E+03  0.16495505122E+03  0.00000000000E+00 0. -1.
        -12    1    6    6    0    0  0.32139309025E+02 -0.13475207167E+02  0.16161547987E+03  0.16533021420E+03  0.00000000000E+00 0.  1.
</event>
<event>
12    1  0.1032880E+000  0.2025499E+03  0.7818608E-02  0.1147639E+00
         21   -1    0    0  501  502  0.00000000000E+00  0.00000000000E+00  0.11865065665E+03  0.11865065665E+03  0.00000000000E+00 0.  1.
         21   -1    0    0  502  503 -0.00000000000E+00 -0.00000000000E+00 -0.38518310763E+03  0.38518310763E+03  0.00000000000E+00 0.  1.
         -6    2    1    2    0  503  0.93284107281E+02 -0.52265222867E+02 -0.21407719947E+03  0.29460178766E+03  0.17183593269E+03 0.  0.
        -24    2    3    3    0    0 -0.14509423721E+02 -0.31812935734E+02 -0.61010962927E+02  0.10621626766E+03  0.79605098208E+02 0.  0.
          6    2    1    2  501    0 -0.93284107281E+02  0.52265222867E+02 -0.52455251507E+02  0.20923197662E+03  0.17202583654E+03 0.  0.
         24    2    5    5    0    0 -0.11829012658E+03  0.48851981793E+02 -0.80671243778E+02  0.17108510997E+03  0.79894900392E+02 0.  0.
          5    1    5    5  501    0  0.25006019298E+02  0.34132410744E+01  0.28215992271E+02  0.38146866655E+02  0.47000000000E+01 0. -1.
        -13    1    6    6    0    0 -0.33374853947E+02  0.42311629090E+02 -0.16531110697E+00  0.53890464462E+02  0.00000000000E+00 0.  1.
         14    1    6    6    0    0 -0.84915272632E+02  0.65403527028E+01 -0.80505932671E+02  0.11719464550E+03  0.00000000000E+00 0. -1.
         -5    1    3    3    0  503  0.10779353100E+03 -0.20452287133E+02 -0.15306623655E+03  0.18838552000E+03  0.47000000000E+01 0.  1.
         11    1    4    4    0    0  0.23297700483E+02 -0.14408144084E+02 -0.58409669963E+02  0.64514083803E+02  0.00000000000E+00 0. -1.
        -12    1    4    4    0    0 -0.37807124205E+02 -0.17404791650E+02 -0.26012929639E+01  0.41702183853E+02  0.00000000000E+00 0.  1.
</event>
<event>
12    1  0.1032880E+000  0.3215010E+03  0.7818608E-02  0.1076416E+00
         21   -1    0    0  503  502  0.00000000000E+00  0.00000000000E+00  0.38268258645E+02  0.38268258645E+02  0.00000000000E+00 0. -1.
         21   -1    0    0  501  503 -0.00000000000E+00 -0.00000000000E+00 -0.28446966925E+04  0.28446966925E+04  0.00000000000E+00 0. -1.
          6    2    1    2  501    0 -0.25600795099E+03 -0.20332457851E+02 -0.95290865336E+03  0.10017689251E+04  0.17190869044E+03 0.  0.
         24    2    3    3    0    0 -0.19742212480E+03 -0.10383130337E+02 -0.48170203845E+03  0.52680676653E+03  0.80032559972E+02 0.  0.
         -6    2    1    2    0  502  0.25600795099E+03  0.20332457851E+02 -0.18535197805E+04  0.18811960261E+04  0.19341518007E+03 0.  0.
        -24    2    5    5    0    0  0.93955971623E+02  0.82694609028E+02 -0.89714591511E+03  0.90917599420E+03  0.77872154533E+02 0.  0.
          5    1    3    3  501    0 -0.58585826193E+02 -0.99493275141E+01 -0.47120661491E+03  0.47496215858E+03  0.47000000000E+01 0. -1.
        -11    1    4    4    0    0 -0.13256174459E+03 -0.44528562354E+02 -0.30686361910E+03  0.33722498384E+03  0.00000000000E+00 0.  1.
         12    1    4    4    0    0 -0.64860380207E+02  0.34145432017E+02 -0.17483841935E+03  0.18958178269E+03  0.00000000000E+00 0. -1.
         -5    1    5    5    0  502  0.16205197937E+03 -0.62362151177E+02 -0.95637386543E+03  0.97202003189E+03  0.47000000000E+01 0.  1.
         11    1    6    6    0    0 -0.13647969248E+00  0.22251366259E+02 -0.50619865048E+02  0.55294779723E+02  0.00000000000E+00 0. -1.
        -12    1    6    6    0    0  0.94092451316E+02  0.60443242769E+02 -0.84652605007E+03  0.85388121447E+03  0.00000000000E+00 0.  1.
</event>
<event>
12    1  0.1032880E+000  0.2480720E+03  0.7818608E-02  0.1114729E+00
         21   -1    0    0  501  502  0.00000000000E+00  0.00000000000E+00  0.26320103446E+03  0.26320103446E+03  0.00000000000E+00 0.  1.
         21   -1    0    0  502  503 -0.00000000000E+00 -0.00000000000E+00 -0.25731443129E+03  0.25731443129E+03  0.00000000000E+00 0. -1.
         -6    2    1    2    0  503 -0.45360799115E+02  0.17095432482E+03  0.83542021658E+02  0.26176128950E+03  0.17394458896E+03 0.  0.
        -24    2    3    3    0    0 -0.91630620004E+02  0.77767571661E+02  0.49857721875E+02  0.15230175661E+03  0.79158492357E+02 0.  0.
          6    2    1    2  501    0  0.45360799115E+02 -0.17095432482E+03 -0.77655418486E+02  0.25875417624E+03  0.17216380698E+03 0.  0.
         24    2    5    5    0    0 -0.28612893005E+02 -0.10618468362E+03 -0.87657933135E+02  0.15981301268E+03  0.75910480839E+02 0.  0.
          5    1    5    5  501    0  0.73973692120E+02 -0.64769641201E+02  0.10002514649E+02  0.98941163559E+02  0.47000000000E+01 0. -1.
        -13    1    6    6    0    0 -0.43653870968E+02 -0.54806711925E+02 -0.18711028339E+02  0.72522677171E+02  0.00000000000E+00 0.  1.
         14    1    6    6    0    0  0.15040977963E+02 -0.51377971690E+02 -0.68946904796E+02  0.87290335513E+02  0.00000000000E+00 0. -1.
         -5    1    3    3    0  503  0.46269820889E+02  0.93186753155E+02  0.33684299784E+02  0.10945953289E+03  0.47000000000E+01 0.  1.
         11    1    4    4    0    0  0.29702648936E+01  0.27825875103E+02  0.34196487151E+02  0.44187119529E+02  0.00000000000E+00 0. -1.
        -12    1    4    4    0    0 -0.94600884898E+02  0.49941696557E+02  0.15661234723E+02  0.10811463708E+03  0.00000000000E+00 0.  1.
</event>
<event>
12    1  0.1032880E+000  0.2315758E+03  0.7818608E-02  0.1125652E+00
         21   -1    0    0  501  502  0.00000000000E+00  0.00000000000E+00  0.26717061421E+02  0.26717061421E+02  0.00000000000E+00 0.  1.
         21   -1    0    0  502  503 -0.00000000000E+00 -0.00000000000E+00 -0.22049848953E+04  0.22049848953E+04  0.00000000000E+00 0.  1.
         -6    2    1    2    0  503 -0.62948393498E+02 -0.13964145625E+03 -0.74870536465E+03  0.78350438745E+03  0.17279226126E+03 0.  0.
        -24    2    3    3    0    0 -0.33571402156E+02 -0.61815416160E+02 -0.62321819067E+03  0.63287563532E+03  0.84749465328E+02 0.  0.
          6    2    1    2  501    0  0.62948393498E+02  0.13964145625E+03 -0.14295624693E+04  0.14481975693E+04  0.17368105730E+03 0.  0.
         24    2    5    5    0    0  0.96638619018E+02  0.50270960268E+02 -0.86587433497E+03  0.87645591472E+03  0.81058092432E+02 0.  0.
          5    1    5    5  501    0 -0.33690225520E+02  0.89370495986E+02 -0.56368813429E+03  0.57174165459E+03  0.47000000000E+01 0. -1.
        -13    1    6    6    0    0  0.34540873156E+02 -0.72334341456E+01 -0.10251421627E+03  0.10841844412E+03  0.00000000000E+00 0.  1.
         14    1    6    6    0    0  0.62097745862E+02  0.57504394413E+02 -0.76336011870E+03  0.76803747059E+03  0.00000000000E+00 0. -1.
         -5    1    3    3    0  503 -0.29376991342E+02 -0.77826040094E+02 -0.12548717398E+03  0.15062875214E+03  0.47000000000E+01 0.  1.
         11    1    4    4    0    0 -0.54716937403E+02 -0.23886202877E+02 -0.46460457884E+03  0.46842492312E+03  0.00000000000E+00 0. -1.
        -12    1    4    4    0    0  0.21145535247E+02 -0.37929213283E+02 -0.15861361184E+03  0.16445071219E+03  0.00000000000E+00 0.  1.
</event>
<event>
12    1  0.1032880E+000  0.1915823E+03  0.7818608E-02  0.1157528E+00
         21   -1    0    0  501  502  0.00000000000E+00  0.00000000000E+00  0.47535828702E+03  0.47535828702E+03  0.00000000000E+00 0. -1.
         21   -1    0    0  502  503 -0.00000000000E+00 -0.00000000000E+00 -0.76392968421E+02  0.76392968421E+02  0.00000000000E+00 0. -1.
         -6    2    1    2    0  503 -0.69548245681E+02  0.37147726312E+02  0.19122573678E+03  0.26915698286E+03  0.17222452488E+03 0.  0.
        -24    2    3    3    0    0 -0.31455376867E+02 -0.11679980252E+02  0.23076526520E+02  0.89904483599E+02  0.80152525989E+02 0.  0.
          6    2    1    2  501    0  0.69548245681E+02 -0.37147726312E+02  0.20773958182E+03  0.28259427258E+03  0.17460491686E+03 0.  0.
         24    2    5    5    0    0  0.26701483097E+02 -0.87939214040E+02  0.15828764137E+03  0.19962919135E+03  0.79690413860E+02 0.  0.
          5    1    5    5  501    0  0.42846762584E+02  0.50791487728E+02  0.49451940455E+02  0.82965081234E+02  0.47000000000E+01 0. -1.
        -13    1    6    6    0    0  0.41378305542E+02 -0.40078258815E+02  0.12985158363E+03  0.14205585088E+03  0.00000000000E+00 0.  1.
         14    1    6    6    0    0 -0.14676822445E+02 -0.47860955225E+02  0.28436057741E+02  0.57573340462E+02  0.00000000000E+00 0. -1.
         -5    1    3    3    0  503 -0.38092868814E+02  0.48827706565E+02  0.16814921026E+03  0.17925249927E+03  0.47000000000E+01 0.  1.
         13    1    4    4    0    0  0.91367604440E+01 -0.88964710592E+01  0.42820820629E+02  0.44679416604E+02  0.00000000000E+00 0. -1.
        -14    1    4    4    0    0 -0.40592137311E+02 -0.27835091930E+01 -0.19744294109E+02  0.45225066995E+02  0.00000000000E+00 0.  1.
</event>
<event>
12    1  0.1032880E+000  0.2329003E+03  0.7818608E-02  0.1124870E+00
         21   -1    0    0  503  502  0.00000000000E+00  0.00000000000E+00  0.12848357330E+03  0.12848357330E+03  0.00000000000E+00 0.  1.
         21   -1    0    0  501  503 -0.00000000000E+00 -0.00000000000E+00 -0.42662204798E+03  0.42662204798E+03  0.00000000000E+00 0. -1.
          6    2    1    2  501    0 -0.14922670702E+02  0.15435838710E+03 -0.11278257593E+03  0.25744913821E+03  0.17178751864E+03 0.  0.
         24    2    3    3    0    0 -0.25142274923E+01  0.18313937257E+03 -0.93934403337E+02  0.22057559487E+03  0.79268971212E+02 0.  0.
         -6    2    1    2    0  502  0.14922670702E+02 -0.15435838710E+03 -0.18535589875E+03  0.29765648307E+03  0.17376240947E+03 0.  0.
        -24    2    5    5    0    0 -0.20756221237E+02 -0.16847183286E+03 -0.12388894575E+03  0.22504485182E+03  0.80517918912E+02 0.  0.
          5    1    3    3  501    0 -0.12408443210E+02 -0.28780985476E+02 -0.18848172592E+02  0.36873543333E+02  0.47000000000E+01 0. -1.
        -13    1    4    4    0    0  0.31942391006E+02  0.10635100522E+03 -0.30423079507E+02  0.11513651211E+03  0.00000000000E+00 0.  1.
         14    1    4    4    0    0 -0.34456618498E+02  0.76788367355E+02 -0.63511323830E+02  0.10543908276E+03  0.00000000000E+00 0. -1.
         -5    1    5    5    0  502  0.35678891939E+02  0.14113445763E+02 -0.61466953000E+02  0.72611631248E+02  0.47000000000E+01 0.  1.
         11    1    6    6    0    0 -0.30044246411E+02 -0.25337736778E+02 -0.50300463301E+02  0.63834115141E+02  0.00000000000E+00 0. -1.
        -12    1    6    6    0    0  0.92880251746E+01 -0.14313409608E+03 -0.73588482450E+02  0.16121073668E+03  0.00000000000E+00 0.  1.
</event>
<event>
12    1  0.1032880E+000  0.1939675E+03  0.7818608E-02  0.1155248E+00
         21   -1    0    0  503  502  0.00000000000E+00  0.00000000000E+00  0.22597663754E+04  0.22597663754E+04  0.00000000000E+00 0. -1.
         21   -1    0    0  501  503 -0.00000000000E+00 -0.00000000000E+00 -0.25520926212E+02  0.25520926212E+02  0.00000000000E+00 0. -1.
          6    2    1    2  501    0 -0.66870027737E+02  0.58624751071E+02  0.17981700104E+04  0.18086013279E+04  0.17238014643E+03 0.  0.
         24    2    3    3    0    0 -0.15003438300E+02  0.98552019157E+02  0.10906876104E+04  0.10980819643E+04  0.79037541852E+02 0.  0.
         -6    2    1    2    0  502  0.66870027737E+02 -0.58624751071E+02  0.43607543878E+03  0.47668597372E+03  0.17076084793E+03 0.  0.
        -24    2    5    5    0    0 -0.26990622255E+02 -0.37668049751E+02  0.26142294413E+03  0.27725029778E+03  0.79864862381E+02 0.  0.
          5    1    3    3  501    0 -0.51866589437E+02 -0.39927268086E+02  0.70748239998E+03  0.71051936365E+03  0.47000000000E+01 0. -1.
        -11    1    4    4    0    0  0.10584212080E+02  0.45546391818E+02  0.19761403104E+03  0.20307093493E+03  0.00000000000E+00 0.  1.
         12    1    4    4    0    0 -0.25587650381E+02  0.53005627339E+02  0.89307357941E+03  0.89501102933E+03  0.00000000000E+00 0. -1.
         -5    1    5    5    0  502  0.93860649992E+02 -0.20956701320E+02  0.17465249465E+03  0.19943567594E+03  0.47000000000E+01 0.  1.
         11    1    6    6    0    0 -0.31608938887E+02  0.13927760322E+02  0.15611938892E+03  0.15989487522E+03  0.00000000000E+00 0. -1.
        -12    1    6    6    0    0  0.46183166318E+01 -0.51595810073E+02  0.10530355521E+03  0.11735542256E+03  0.00000000000E+00 0.  1.
</event>
<event>
12    1  0.1032880E+000  0.2173663E+03  0.7818608E-02  0.1137925E+00
         21   -1    0    0  501  502  0.00000000000E+00  0.00000000000E+00  0.36379234787E+02  0.36379234787E+02  0.00000000000E+00 0. -1.
         21   -1    0    0  502  503 -0.00000000000E+00 -0.00000000000E+00 -0.16032944910E+04  0.16032944910E+04  0.00000000000E+00 0. -1.
         -6    2    1    2    0  503 -0.44906463312E+02  0.10633003664E+03 -0.40634190718E+03  0.46082736553E+03  0.18418862112E+03 0.  0.
        -24    2    3    3    0    0 -0.21663767199E+02  0.37242276310E+02 -0.36661339707E+03  0.37767818594E+03  0.79869413872E+02 0.  0.
          6    2    1    2  501    0  0.44906463312E+02 -0.10633003664E+03 -0.11605733490E+04  0.11788463603E+04  0.17153884536E+03 0.  0.
         24    2    5    5    0    0  0.34076928722E+02 -0.61914059131E+02 -0.10850721644E+04  0.10904575784E+04  0.81985001984E+02 0.  0.
          5    1    5    5  501    0  0.10829534590E+02 -0.44415977511E+02 -0.75501184669E+02  0.88388781891E+02  0.47000000000E+01 0. -1.
        -11    1    6    6    0    0  0.46231920806E+02 -0.67038006981E+02 -0.63606686955E+03  0.64125856519E+03  0.00000000000E+00 0.  1.
         12    1    6    6    0    0 -0.12154992084E+02  0.51239478496E+01 -0.44900529482E+03  0.44919901319E+03  0.00000000000E+00 0. -1.
         -5    1    3    3    0  503 -0.23242696113E+02  0.69087760333E+02 -0.39728510110E+02  0.83149179587E+02  0.47000000000E+01 0.  1.
         11    1    4    4    0    0 -0.41299438861E+02  0.39589992399E+02 -0.33853354357E+03  0.34333361512E+03  0.00000000000E+00 0. -1.
        -12    1    4    4    0    0  0.19635671662E+02 -0.23477160895E+01 -0.28079853492E+02  0.34344570817E+02  0.00000000000E+00 0.  1.
</event>
<event>
12    1  0.1032880E+000  0.3549144E+03  0.7818608E-02  0.1060652E+00
         21   -1    0    0  503  502  0.00000000000E+00  0.00000000000E+00  0.18503527074E+03  0.18503527074E+03  0.00000000000E+00 0. -1.
         21   -1    0    0  501  503 -0.00000000000E+00 -0.00000000000E+00 -0.86752241869E+03  0.86752241869E+03  0.00000000000E+00 0. -1.
          6    2    1    2  501    0 -0.29625330005E+03 -0.92040323675E+02 -0.58574402042E+03  0.68469428754E+03  0.17167635528E+03 0.  0.
         24    2    3    3    0    0 -0.24478775685E+03 -0.23220394993E+02 -0.36205726380E+03  0.44502213687E+03  0.80616421323E+02 0.  0.
         -6    2    1    2    0  502  0.29625330005E+03  0.92040323675E+02 -0.96743127536E+02  0.36786340189E+03  0.17241464773E+03 0.  0.
        -24    2    5    5    0    0  0.12979658859E+03  0.37992190760E+02  0.18746021875E+02  0.15812816142E+03  0.79765538487E+02 0.  0.
          5    1    3    3  501    0 -0.51465543197E+02 -0.68819928682E+02 -0.22368675662E+03  0.23967215067E+03  0.47000000000E+01 0. -1.
        -11    1    4    4    0    0 -0.28134834866E+02 -0.31124995510E+02 -0.60258977520E+02  0.73426688950E+02  0.00000000000E+00 0.  1.
         12    1    4    4    0    0 -0.21665292199E+03  0.79046005168E+01 -0.30179828628E+03  0.37159544792E+03  0.00000000000E+00 0. -1.
         -5    1    5    5    0  502  0.16645671146E+03  0.54048132915E+02 -0.11548914941E+03  0.20973524047E+03  0.47000000000E+01 0.  1.
         11    1    6    6    0    0  0.34011713916E+02  0.45626519402E+02 -0.10111453978E+02  0.57799804998E+02  0.00000000000E+00 0. -1.
        -12    1    6    6    0    0  0.95784874672E+02 -0.76343286425E+01  0.28857475853E+02  0.10032835642E+03  0.00000000000E+00 0.  1.
</event>
<event>
12    1  0.1032880E+000  0.1946360E+03  0.7818608E-02  0.1154498E+00
         21   -1    0    0  501  502  0.00000000000E+00  0.00000000000E+00  0.65641692360E+03  0.65641692360E+03  0.00000000000E+00 0. -1.
         21   -1    0    0  502  503 -0.00000000000E+00 -0.00000000000E+00 -0.68490880457E+02  0.68490880457E+02  0.00000000000E+00 0. -1.
         -6    2    1    2    0  503  0.56687538742E+02  0.72528744219E+02  0.43867736044E+03  0.47963579310E+03  0.17070082506E+03 0.  0.
        -24    2    3    3    0    0  0.24079358581E+02 -0.27354102695E+02  0.19914248431E+03  0.21802745340E+03  0.80933175725E+02 0.  0.
          6    2    1    2  501    0 -0.56687538742E+02 -0.72528744219E+02  0.14924868271E+03  0.24527201096E+03  0.17149138254E+03 0.  0.
         24    2    5    5    0    0 -0.62523677630E+02 -0.15871121340E+02  0.15690284617E+03  0.18761073309E+03  0.80113552393E+02 0.  0.
          5    1    5    5  501    0  0.58361388877E+01 -0.56657622879E+02 -0.76541634622E+01  0.57661277871E+02  0.47000000000E+01 0. -1.
        -13    1    6    6    0    0 -0.69945831041E+02 -0.18781706464E+02  0.71278136665E+02  0.10161567076E+03  0.00000000000E+00 0.  1.
         14    1    6    6    0    0  0.74221534106E+01  0.29105851238E+01  0.85624709507E+02  0.85995062330E+02  0.00000000000E+00 0. -1.
         -5    1    3    3    0  503  0.32608180161E+02  0.99882846914E+02  0.23953487612E+03  0.26160833970E+03  0.47000000000E+01 0.  1.
         11    1    4    4    0    0 -0.18982812741E+02  0.14963215431E+02  0.91188709312E+02  0.94337827522E+02  0.00000000000E+00 0. -1.
        -12    1    4    4    0    0  0.43062171322E+02 -0.42317318126E+02  0.10795377500E+03  0.12368962588E+03  0.00000000000E+00 0.  1.
</event>
<event>
12    1  0.1032880E+000  0.1966421E+03  0.7818608E-02  0.1153052E+00
         21   -1    0    0  501  502  0.00000000000E+00  0.00000000000E+00  0.30505714207E+02  0.30505714207E+02  0.00000000000E+00 0. -1.
         21   -1    0    0  502  503 -0.00000000000E+00 -0.00000000000E+00 -0.12813935842E+04  0.12813935842E+04  0.00000000000E+00 0. -1.
         -6    2    1    2    0  503 -0.18392793371E+02  0.92665858379E+02 -0.53323424736E+03  0.56833694875E+03  0.17246120897E+03 0.  0.
        -24    2    3    3    0    0 -0.23359827918E+02  0.11948923962E+03 -0.51506071799E+03  0.53522301840E+03  0.79704305202E+02 0.  0.
          6    2    1    2  501    0  0.18392793371E+02 -0.92665858379E+02 -0.71765362268E+03  0.74356234970E+03  0.17009700055E+03 0.  0.
         24    2    5    5    0    0  0.62944223381E+02 -0.89456822374E+02 -0.63412190760E+03  0.64872161345E+03  0.82247429988E+02 0.  0.
          5    1    5    5  501    0 -0.44551430010E+02 -0.32090360055E+01 -0.83531715082E+02  0.94840736251E+02  0.47000000000E+01 0. -1.
        -13    1    6    6    0    0  0.46988517535E+02 -0.49563601219E+02 -0.17917321250E+03  0.19174856303E+03  0.00000000000E+00 0.  1.
         14    1    6    6    0    0  0.15955705846E+02 -0.39893221154E+02 -0.45494869510E+03  0.45697305042E+03  0.00000000000E+00 0. -1.
         -5    1    3    3    0  503  0.49670345462E+01 -0.26823381240E+02 -0.18173529373E+02  0.33113930350E+02  0.47000000000E+01 0.  1.
         13    1    4    4    0    0  0.15361199114E+02  0.26587987491E+02 -0.24680032851E+03  0.24870321604E+03  0.00000000000E+00 0. -1.
        -14    1    4    4    0    0 -0.38721027032E+02  0.92901252128E+02 -0.26826038948E+03  0.28651980236E+03  0.00000000000E+00 0.  1.
</event>
<event>
12    1  0.1032880E+000  0.2831832E+03  0.7818608E-02  0.1093977E+00
         21   -1    0    0  501  502  0.00000000000E+00  0.00000000000E+00  0.73063839654E+03  0.73063839654E+03  0.00000000000E+00 0.  1.
         21   -1    0    0  502  503 -0.00000000000E+00 -0.00000000000E+00 -0.11012314023E+03  0.11012314023E+03  0.00000000000E+00 0.  1.
         -6    2    1    2    0  503  0.22508528249E+03  0.54531895835E+01  0.28474110586E+03  0.40158461259E+03  0.17175442361E+03 0.  0.
        -24    2    3    3    0    0  0.74080004832E+02 -0.39405310113E+02  0.67742154162E+02  0.13339528783E+03  0.78515462071E+02 0.  0.
          6    2    1    2  501    0 -0.22508528249E+03 -0.54531895835E+01  0.33577415046E+03  0.43917692418E+03  0.17157788012E+03 0.  0.
         24    2    5    5    0    0 -0.97291019029E+02 -0.27539385547E+02  0.25383102591E+03  0.28569748097E+03  0.83479942397E+02 0.  0.
          5    1    5    5  501    0 -0.12779426346E+03  0.22086195963E+02  0.81943124551E+02  0.15347944321E+03  0.47000000000E+01 0. -1.
        -13    1    6    6    0    0  0.24144430771E+01 -0.13744045583E+02  0.10562299042E+03  0.10654081109E+03  0.00000000000E+00 0.  1.
         14    1    6    6    0    0 -0.99705462106E+02 -0.13795339964E+02  0.14820803549E+03  0.17915666988E+03  0.00000000000E+00 0. -1.
         -5    1    3    3    0  503  0.15100527766E+03  0.44858499696E+02  0.21699895169E+03  0.26818932475E+03  0.47000000000E+01 0.  1.
         13    1    4    4    0    0  0.53347571757E+02 -0.63545272883E+02  0.46160032598E+02  0.94945846289E+02  0.00000000000E+00 0. -1.
        -14    1    4    4    0    0  0.20732433074E+02  0.24139962770E+02  0.21582121564E+02  0.38449441543E+02  0.00000000000E+00 0.  1.
</event>
<event>
12    1  0.1032880E+000  0.1859669E+03  0.7818608E-02  0.1162326E+00
         21   -1    0    0  501  502  0.00000000000E+00  0.00000000000E+00  0.35554701130E+02  0.35554701130E+02  0.00000000000E+00 0.  1.
         21   -1    0    0  502  503 -0.00000000000E+00 -0.00000000000E+00 -0.12570541392E+04  0.12570541392E+04  0.00000000000E+00 0.  1.
         -6    2    1    2    0  503  0.65054241957E+02 -0.26528030621E+02 -0.30026069189E+03  0.35278729932E+03  0.17136687156E+03 0.  0.
        -24    2    3    3    0    0  0.15695013940E+01 -0.44482227755E+02 -0.74931911354E+02  0.11795158054E+03  0.79477368433E+02 0.  0.
          6    2    1    2  501    0 -0.65054241957E+02  0.26528030621E+02 -0.92123874615E+03  0.93982154097E+03  0.17218568657E+03 0.  0.
         24    2    5    5    0    0 -0.54500703295E+02 -0.43353686834E+02 -0.27286945000E+03  0.28759484280E+03  0.58336849779E+02 0.  0.
          5    1    5    5  501    0 -0.10553538662E+02  0.69881717455E+02 -0.64836929615E+03  0.65222669816E+03  0.47000000000E+01 0. -1.
        -13    1    6    6    0    0 -0.34194993851E+02  0.56949916998E+01 -0.14615324105E+03  0.15020819020E+03  0.00000000000E+00 0.  1.
         14    1    6    6    0    0 -0.20305709444E+02 -0.49048678534E+02 -0.12671620895E+03  0.13738665260E+03  0.00000000000E+00 0. -1.
         -5    1    3    3    0  503  0.63484740563E+02  0.17954197134E+02 -0.22532878053E+03  0.23483571878E+03  0.47000000000E+01 0.  1.
         11    1    4    4    0    0 -0.22514888518E+02 -0.12687952209E+01  0.57844042096E+01  0.23280665333E+02  0.00000000000E+00 0. -1.
        -12    1    4    4    0    0  0.24084389912E+02 -0.43213432534E+02 -0.80716315564E+02  0.94670915211E+02  0.00000000000E+00 0.  1.
</event>
<event>
12    1  0.1032880E+000  0.2057503E+03  0.7818608E-02  0.1146127E+00
         21   -1    0    0  501  502  0.00000000000E+00  0.00000000000E+00  0.54622382288E+03  0.54622382288E+03  0.00000000000E+00 0. -1.
         21   -1    0    0  502  503 -0.00000000000E+00 -0.00000000000E+00 -0.75439582366E+02  0.75439582366E+02  0.00000000000E+00 0.  1.
         -6    2    1    2    0  503 -0.11154224117E+03 -0.20498517775E+02  0.24424542857E+03  0.31935719124E+03  0.17167214516E+03 0.  0.
        -24    2    3    3    0    0 -0.10554454952E+03  0.18868671700E+02  0.24524259723E+03  0.27924693996E+03  0.79619364965E+02 0.  0.
          6    2    1    2  501    0  0.11154224117E+03  0.20498517775E+02  0.22653881194E+03  0.30230621400E+03  0.16494651531E+03 0.  0.
         24    2    5    5    0    0  0.36000027646E+02 -0.46331022182E+02  0.11655398574E+03  0.15300261248E+03  0.79889938199E+02 0.  0.
          5    1    5    5  501    0  0.75542213521E+02  0.66829539956E+02  0.10998482620E+03  0.14930360152E+03  0.47000000000E+01 0. -1.
        -13    1    6    6    0    0  0.65406283781E+00  0.21853528228E+02  0.20023481497E+02  0.29646994881E+02  0.00000000000E+00 0.  1.
         14    1    6    6    0    0  0.35345964808E+02 -0.68184550409E+02  0.96530504245E+02  0.12335561760E+03  0.00000000000E+00 0. -1.
         -5    1    3    3    0  503 -0.59976916486E+01 -0.39367189475E+02 -0.99716866024E+00  0.40110251278E+02  0.47000000000E+01 0.  1.
         13    1    4    4    0    0 -0.64665987360E+02 -0.24122461225E+02  0.16967518136E+03  0.18317546295E+03  0.00000000000E+00 0. -1.
        -14    1    4    4    0    0 -0.40878562158E+02  0.42991132925E+02  0.75567415868E+02  0.96071477012E+02  0.00000000000E+00 0.  1.
</event>
<event>
12    1  0.1032880E+000  0.1993163E+03  0.7818608E-02  0.1150343E+00
         21   -1    0    0  503  502  0.00000000000E+00  0.00000000000E+00  0.43787157129E+03  0.43787157129E+03  0.00000000000E+00 0. -1.
         21   -1    0    0  501  503 -0.00000000000E+00 -0.00000000000E+00 -0.16937463022E+03  0.16937463022E+03  0.00000000000E+00 0. -1.
          6    2    1    2  501    0  0.10112011985E+03 -0.91566550765E+01  0.34123985692E+03  0.39518555609E+03  0.17151635729E+03 0.  0.
         24    2    3    3    0    0  0.40321667275E+02 -0.56682191735E+02  0.27078512584E+03  0.29058590216E+03  0.79226728097E+02 0.  0.
         -6    2    1    2    0  502 -0.10112011985E+03  0.91566550765E+01 -0.72742915856E+02  0.21206064541E+03  0.17137404283E+03 0.  0.
        -24    2    5    5    0    0 -0.71650072676E+02 -0.49840954840E+02 -0.78358081450E+01  0.11940955644E+03  0.81113430370E+02 0.  0.
          5    1    3    3  501    0  0.60798452576E+02  0.47525536659E+02  0.70454731082E+02  0.10459965393E+03  0.47000000000E+01 0. -1.
        -11    1    4    4    0    0  0.19369276635E+02 -0.55834693956E+02  0.84453271888E+02  0.10307782040E+03  0.00000000000E+00 0.  1.
         12    1    4    4    0    0  0.20952390640E+02 -0.84749777931E+00  0.18633185396E+03  0.18750808176E+03  0.00000000000E+00 0. -1.
         -5    1    5    5    0  502 -0.29470047175E+02  0.58997609916E+02 -0.64907107711E+02  0.92651088972E+02  0.47000000000E+01 0.  1.
         13    1    6    6    0    0 -0.41708569017E+02 -0.39168944739E+01 -0.38239708273E+02  0.56720561356E+02  0.00000000000E+00 0. -1.
        -14    1    6    6    0    0 -0.29941503660E+02 -0.45924060366E+02  0.30403900128E+02  0.62688995086E+02  0.00000000000E+00 0.  1.
</event>
<event>
12    1  0.1032880E+000  0.1850374E+03  0.7818608E-02  0.1163134E+00
         21   -1    0    0  501  502  0.00000000000E+00  0.00000000000E+00  0.38794338287E+03  0.38794338287E+03  0.00000000000E+00 0. -1.
         21   -1    0    0  502  503 -0.00000000000E+00 -0.00000000000E+00 -0.90269384131E+02  0.90269384131E+02  0.00000000000E+00 0. -1.
         -6    2    1    2    0  503  0.49795718458E+02 -0.43516524972E+02  0.18683208764E+03  0.26295449816E+03  0.17281648535E+03 0.  0.
        -24    2    3    3    0    0  0.58929154940E+02  0.33714886661E+02  0.84057757229E+02  0.13398642616E+03  0.79229520761E+02 0.  0.
          6    2    1    2  501    0 -0.49795718458E+02  0.43516524972E+02  0.11084191110E+03  0.21525826884E+03  0.17226982187E+03 0.  0.
         24    2    5    5    0    0 -0.42090084034E+02 -0.34818367299E+02  0.27683485028E+02  0.10065833003E+03  0.79886357944E+02 0.  0.
          5    1    5    5  501    0 -0.77056344241E+01  0.78334892270E+02  0.83158426074E+02  0.11459993881E+03  0.47000000000E+01 0. -1.
        -13    1    6    6    0    0 -0.54705729472E+02 -0.25495731351E+02 -0.87549398928E+01  0.60986868478E+02  0.00000000000E+00 0.  1.
         14    1    6    6    0    0  0.12615645439E+02 -0.93226359477E+01  0.36438424920E+02  0.39671461550E+02  0.00000000000E+00 0. -1.
         -5    1    3    3    0  503 -0.91334364826E+01 -0.77231411632E+02  0.10277433041E+03  0.12896807200E+03  0.47000000000E+01 0.  1.
         11    1    4    4    0    0  0.73832510401E+02  0.21966663136E+02  0.41750126170E+02  0.87617617616E+02  0.00000000000E+00 0. -1.
        -12    1    4    4    0    0 -0.14903355460E+02  0.11748223524E+02  0.42307631059E+02  0.46368808544E+02  0.00000000000E+00 0.  1.
</event>
<event>
12    1  0.1032880E+000  0.1878535E+03  0.7818608E-02  0.1160825E+00
         21   -1    0    0  503  502  0.00000000000E+00  0.00000000000E+00  0.54033655746E+02  0.54033655746E+02  0.00000000000E+00 0.  1.
         21   -1    0    0  501  503 -0.00000000000E+00 -0.00000000000E+00 -0.99837899609E+03  0.99837899609E+03  0.00000000000E+00 0.  1.
          6    2    1    2  501    0 -0.67548952251E+02  0.31484927542E+02 -0.16140987601E+03  0.24767330788E+03  0.17243769238E+03 0.  0.
         24    2    3    3    0    0  0.25211445516E+02 -0.15633923306E+02 -0.33454773467E+02  0.82690654959E+02  0.69559226612E+02 0.  0.
         -6    2    1    2    0  502  0.67548952251E+02 -0.31484927542E+02 -0.78293546433E+03  0.80473934395E+03  0.17047964331E+03 0.  0.
        -24    2    5    5    0    0  0.10286130326E+03  0.86720969647E+01 -0.48742707259E+03  0.50439479458E+03  0.78570380711E+02 0.  0.
          5    1    3    3  501    0 -0.92760397767E+02  0.47118850848E+02 -0.12795510255E+03  0.16498265293E+03  0.47000000000E+01 0. -1.
        -13    1    4    4    0    0  0.71458853867E+01  0.51655269301E+01 -0.49855193839E+02  0.50628911693E+02  0.00000000000E+00 0.  1.
         14    1    4    4    0    0  0.18065560129E+02 -0.20799450236E+02  0.16400420372E+02  0.32061743266E+02  0.00000000000E+00 0. -1.
         -5    1    5    5    0  502 -0.35312351011E+02 -0.40157024507E+02 -0.29550839174E+03  0.30034454938E+03  0.47000000000E+01 0.  1.
         11    1    6    6    0    0  0.46830841391E+02  0.35393187196E+02 -0.14579277939E+03  0.15716659927E+03  0.00000000000E+00 0. -1.
        -12    1    6    6    0    0  0.56030461871E+02 -0.26721090231E+02 -0.34163429320E+03  0.34722819530E+03  0.00000000000E+00 0.  1.
</event>
<event>
12    1  0.1032880E+000  0.2050982E+03  0.7818608E-02  0.1146839E+00
         21   -1    0    0  501  502  0.00000000000E+00  0.00000000000E+00  0.42898575069E+03  0.42898575069E+03  0.00000000000E+00 0.  1.
         21   -1    0    0  502  503 -0.00000000000E+00 -0.00000000000E+00 -0.97141680800E+02  0.97141680800E+02  0.00000000000E+00 0.  1.
         -6    2    1    2    0  503 -0.10008723006E+03  0.38610425304E+01  0.20224918104E+03  0.28351643634E+03  0.17159393105E+03 0.  0.
        -24    2    3    3    0    0 -0.11488498016E+03  0.44446602166E+02  0.18421837347E+03  0.23647006475E+03  0.82508322529E+02 0.  0.
          6    2    1    2  501    0  0.10008723006E+03 -0.38610425304E+01  0.12959488885E+03  0.24261099515E+03  0.17897736862E+03 0.  0.
         24    2    5    5    0    0  0.23847507497E+02  0.20863683776E+02 -0.80388427137E+01  0.83271918172E+02  0.76587155903E+02 0.  0.
          5    1    5    5  501    0  0.76239722566E+02 -0.24724726307E+02  0.13763373156E+03  0.15933907697E+03  0.47000000000E+01 0. -1.
        -13    1    6    6    0    0  0.13901160149E+02 -0.28894466161E+02 -0.13781294013E+01  0.32094106450E+02  0.00000000000E+00 0.  1.
         14    1    6    6    0    0  0.99463473478E+01  0.49758149937E+02 -0.66607133125E+01  0.51177811721E+02  0.00000000000E+00 0. -1.
         -5    1    3    3    0  503  0.14797750092E+02 -0.40585559636E+02  0.18030807568E+02  0.47046371596E+02  0.47000000000E+01 0.  1.
         13    1    4    4    0    0 -0.29575732743E+02  0.54815497031E+02  0.80123467667E+02  0.10148513563E+03  0.00000000000E+00 0. -1.
        -14    1    4    4    0    0 -0.85309247412E+02 -0.10368894865E+02  0.10409490581E+03  0.13498492912E+03  0.00000000000E+00 0.  1.
</event>
<event>
12    1  0.1032880E+000  0.2197964E+03  0.7818608E-02  0.1134255E+00
         21   -1    0    0  501  502  0.00000000000E+00  0.00000000000E+00  0.50621419894E+03  0.50621419894E+03  0.00000000000E+00 0. -1.
         21   -1    0    0  502  503 -0.00000000000E+00 -0.00000000000E+00 -0.10523664652E+03  0.10523664652E+03  0.00000000000E+00 0. -1.
         -6    2    1    2    0  503  0.68851531149E+02  0.11557589684E+03  0.29666773302E+03  0.36921834968E+03  0.17381635324E+03 0.  0.
        -24    2    3    3    0    0  0.83126993949E+02  0.14584297314E+03  0.26611468655E+03  0.32366109565E+03  0.75889449228E+02 0.  0.
          6    2    1    2  501    0 -0.68851531149E+02 -0.11557589684E+03  0.10430981940E+03  0.24223249579E+03  0.17233027105E+03 0.  0.
         24    2    5    5    0    0 -0.90008983604E+02 -0.36253618772E+02  0.95408158530E+02  0.15952221131E+03  0.83238675999E+02 0.  0.
          5    1    5    5  501    0  0.21157452455E+02 -0.79322278069E+02  0.89016608721E+01  0.82710284480E+02  0.47000000000E+01 0. -1.
        -11    1    6    6    0    0 -0.78679084168E+02 -0.61215683086E+02  0.81606919487E+02  0.12883108107E+03  0.00000000000E+00 0.  1.
         12    1    6    6    0    0 -0.11329899436E+02  0.24962064314E+02  0.13801239043E+02  0.30691130236E+02  0.00000000000E+00 0. -1.
         -5    1    3    3    0  503 -0.14275462800E+02 -0.30267076300E+02  0.30553046468E+02  0.45557254026E+02  0.47000000000E+01 0.  1.
         13    1    4    4    0    0  0.21789606797E+02 -0.95424879221E+00  0.15295435191E+02  0.26639217196E+02  0.00000000000E+00 0. -1.
        -14    1    4    4    0    0  0.61337387152E+02  0.14679722193E+03  0.25081925136E+03  0.29702187846E+03  0.00000000000E+00 0.  1.
</event>
<event>
12    1  0.1032880E+000  0.3454843E+03  0.7818608E-02  0.1065408E+00
         21   -1    0    0  501  502  0.00000000000E+00  0.00000000000E+00  0.18751556521E+03  0.18751556521E+03  0.00000000000E+00 0.  1.
         21   -1    0    0  502  503 -0.00000000000E+00 -0.00000000000E+00 -0.62887246977E+03  0.62887246977E+03  0.00000000000E+00 0.  1.
         -6    2    1    2    0  503 -0.11322298026E+03  0.27742538072E+03 -0.27045823660E+03  0.43875624974E+03  0.17197413705E+03 0.  0.
        -24    2    3    3    0    0 -0.76006223159E+02  0.19620981777E+03 -0.26637467118E+03  0.34920280100E+03  0.81926138898E+02 0.  0.
          6    2    1    2  501    0  0.11322298026E+03 -0.27742538072E+03 -0.17089866796E+03  0.37763178524E+03  0.15367213603E+03 0.  0.
         24    2    5    5    0    0  0.99033204892E+01 -0.12307504121E+03 -0.40705854732E+02  0.15075904995E+03  0.76326817100E+02 0.  0.
          5    1    5    5  501    0  0.10331965977E+03 -0.15435033951E+03 -0.13019281322E+03  0.22687273529E+03  0.47000000000E+01 0. -1.
        -13    1    6    6    0    0 -0.21635578530E+02 -0.39931907391E+02  0.12535674049E+02  0.47114738777E+02  0.00000000000E+00 0.  1.
         14    1    6    6    0    0  0.31538899020E+02 -0.83143133816E+02 -0.53241528782E+02  0.10364431118E+03  0.00000000000E+00 0. -1.
         -5    1    3    3    0  503 -0.37216757103E+02  0.81215562945E+02 -0.40835654209E+01  0.89553448735E+02  0.47000000000E+01 0.  1.
         11    1    4    4    0    0 -0.85165949563E+02  0.13542969441E+03 -0.15947118514E+03  0.22588824667E+03  0.00000000000E+00 0. -1.
        -12    1    4    4    0    0  0.91597264042E+01  0.60780123357E+02 -0.10690348604E+03  0.12331455433E+03  0.00000000000E+00 0.  1.
</event>
<event>
12    1  0.1032880E+000  0.3629613E+03  0.7818608E-02  0.1057523E+00
         21   -1    0    0  501  502  0.00000000000E+00  0.00000000000E+00  0.56928060047E+03  0.56928060047E+03  0.00000000000E+00 0. -1.
         21   -1    0    0  502  503 -0.00000000000E+00 -0.00000000000E+00 -0.26869652638E+03  0.26869652638E+03  0.00000000000E+00 0.  1.
         -6    2    1    2    0  503  0.67942906538E+02  0.31271379720E+03 -0.70087625882E+01  0.36302894610E+03  0.17127386097E+03 0.  0.
        -24    2    3    3    0    0  0.95044681489E+02  0.22665261935E+03  0.39275575293E+02  0.26151361490E+03  0.80261439197E+02 0.  0.
          6    2    1    2  501    0 -0.67942906538E+02 -0.31271379720E+03  0.30759283667E+03  0.47494818074E+03  0.16898598674E+03 0.  0.
         24    2    5    5    0    0 -0.36873403150E+02 -0.31160184240E+03  0.30102358973E+03  0.44282660716E+03  0.83814356688E+02 0.  0.
          5    1    5    5  501    0 -0.31069503388E+02 -0.11119548002E+01  0.65692469366E+01  0.32121573585E+02  0.47000000000E+01 0. -1.
        -13    1    6    6    0    0 -0.51948219576E+02 -0.25092302649E+03  0.20459718167E+03  0.32790393332E+03  0.00000000000E+00 0.  1.
         14    1    6    6    0    0  0.15074816426E+02 -0.60678815906E+02  0.96426408062E+02  0.11492267384E+03  0.00000000000E+00 0. -1.
         -5    1    3    3    0  503 -0.27101774951E+02  0.86061177844E+02 -0.46284337882E+02  0.10151533121E+03  0.47000000000E+01 0.  1.
         13    1    4    4    0    0  0.14301834231E+02  0.10231033644E+03  0.46043036523E+02  0.11310132014E+03  0.00000000000E+00 0. -1.
        -14    1    4    4    0    0  0.80742847257E+02  0.12434228291E+03 -0.67674612298E+01  0.14841229475E+03  0.00000000000E+00 0.  1.
</event>
<event>
12    1  0.1032880E+000  0.2222649E+03  0.7818608E-02  0.1132515E+00
         21   -1    0    0  501  502  0.00000000000E+00  0.00000000000E+00  0.98077028584E+03  0.98077028584E+03  0.00000000000E+00 0.  1.
         21   -1    0    0  502  503 -0.00000000000E+00 -0.00000000000E+00 -0.52407262619E+02  0.52407262619E+02  0.00000000000E+00 0.  1.
         -6    2    1    2    0  503  0.13366804860E+03 -0.42697186374E+02  0.35158497151E+03  0.41505571365E+03  0.17020298556E+03 0.  0.
        -24    2    3    3    0    0  0.10403956609E+03 -0.77581331766E+02  0.33127044686E+03  0.36476137512E+03  0.80421747468E+02 0.  0.
          6    2    1    2  501    0 -0.13366804860E+03  0.42697186374E+02  0.57677805170E+03  0.61812183481E+03  0.17237019696E+03 0.  0.
         24    2    5    5    0    0 -0.12694200515E+03  0.14469289566E+01  0.27200610943E+03  0.31046155106E+03  0.79263389065E+02 0.  0.
          5    1    5    5  501    0 -0.67260434468E+01  0.41250257417E+02  0.30477194227E+03  0.30766028375E+03  0.47000000000E+01 0. -1.
        -13    1    6    6    0    0 -0.11272628071E+03 -0.28145780522E+02  0.19945786206E+03  0.23083075632E+03  0.00000000000E+00 0.  1.
         14    1    6    6    0    0 -0.14215724442E+02  0.29592709478E+02  0.72548247369E+02  0.79630794747E+02  0.00000000000E+00 0. -1.
         -5    1    3    3    0  503  0.29628482512E+02  0.34884145393E+02  0.20314524650E+02  0.50294338523E+02  0.47000000000E+01 0.  1.
         11    1    4    4    0    0  0.12749521679E+02 -0.57029859400E+02  0.11112029007E+03  0.12554948838E+03  0.00000000000E+00 0. -1.
        -12    1    4    4    0    0  0.91290044408E+02 -0.20551472366E+02  0.22015015679E+03  0.23921188675E+03  0.00000000000E+00 0.  1.
</event>
<event>
12    1  0.1032880E+000  0.1953028E+03  0.7818608E-02  0.1154371E+00
         21   -1    0    0  503  502  0.00000000000E+00  0.00000000000E+00  0.47944893545E+03  0.47944893545E+03  0.00000000000E+00 0.  1.
         21   -1    0    0  501  503 -0.00000000000E+00 -0.00000000000E+00 -0.15086078638E+03  0.15086078638E+03  0.00000000000E+00 0.  1.
          6    2    1    2  501    0  0.23795878348E+02 -0.84872559105E+02  0.38327102507E+03  0.43016261833E+03  0.17428024683E+03 0.  0.
         24    2    3    3    0    0  0.16809462548E+02  0.18997441919E+02  0.21141888640E+03  0.22918243352E+03  0.84753651716E+02 0.  0.
         -6    2    1    2    0  502 -0.23795878348E+02  0.84872559105E+02 -0.54682875995E+02  0.20014710350E+03  0.17116965560E+03 0.  0.
        -24    2    5    5    0    0 -0.72460450572E+02  0.39376648211E+02 -0.14289740067E+02  0.12209703029E+03  0.88895730008E+02 0.  0.
          5    1    3    3  501    0  0.69864158000E+01 -0.10387000102E+03  0.17185213867E+03  0.20098018481E+03  0.47000000000E+01 0. -1.
        -13    1    4    4    0    0  0.37182475690E+02  0.44464479600E+01  0.19650465218E+03  0.20004096012E+03  0.00000000000E+00 0.  1.
         14    1    4    4    0    0 -0.20373013142E+02  0.14550993959E+02  0.14914234216E+02  0.29141473400E+02  0.00000000000E+00 0. -1.
         -5    1    5    5    0  502  0.48664572224E+02  0.45495910894E+02 -0.40393135928E+02  0.78050073208E+02  0.47000000000E+01 0.  1.
         13    1    6    6    0    0 -0.14261590657E+02 -0.21706755510E+02  0.18171003242E+02  0.31697974093E+02  0.00000000000E+00 0. -1.
        -14    1    6    6    0    0 -0.58198859915E+02  0.61083403721E+02 -0.32460743309E+02  0.90399056199E+02  0.00000000000E+00 0.  1.
</event>
<event>
12    1  0.1032880E+000  0.8701780E+03  0.7818608E-02  0.9464002E-01
         21   -1    0    0  501  502  0.00000000000E+00  0.00000000000E+00  0.13966673127E+04  0.13966673127E+04  0.00000000000E+00 0. -1.
         21   -1    0    0  502  503 -0.00000000000E+00 -0.00000000000E+00 -0.54802317436E+03  0.54802317436E+03  0.00000000000E+00 0. -1.
         -6    2    1    2    0  503 -0.81872980695E+03  0.23972192174E+03  0.31832138519E+03  0.92657343337E+03  0.17153637108E+03 0.  0.
        -24    2    3    3    0    0 -0.36267993445E+03  0.17107147349E+03  0.14224356232E+03  0.43289351686E+03  0.79758272466E+02 0.  0.
          6    2    1    2  501    0  0.81872980695E+03 -0.23972192174E+03  0.53032275311E+03  0.10181170537E+04  0.16593678289E+03 0.  0.
         24    2    5    5    0    0  0.53662252879E+03 -0.93301547729E+02  0.35725538179E+03  0.65618080604E+03  0.79201800406E+02 0.  0.
          5    1    5    5  501    0  0.28210727817E+03 -0.14642037401E+03  0.17306737132E+03  0.36193624761E+03  0.47000000000E+01 0. -1.
        -11    1    6    6    0    0  0.11310260230E+03  0.74230072195E+01  0.53419432351E+02  0.12530337360E+03  0.00000000000E+00 0.  1.
         12    1    6    6    0    0  0.42351992648E+03 -0.10072455495E+03  0.30383594944E+03  0.53087743244E+03  0.00000000000E+00 0. -1.
         -5    1    3    3    0  503 -0.45604987250E+03  0.68650448248E+02  0.17607782287E+03  0.49367991650E+03  0.47000000000E+01 0.  1.
         11    1    4    4    0    0 -0.27800930366E+03  0.12949174485E+03  0.71307069845E+02  0.31486819959E+03  0.00000000000E+00 0. -1.
        -12    1    4    4    0    0 -0.84670630794E+02  0.41579728638E+02  0.70936492474E+02  0.11802531727E+03  0.00000000000E+00 0.  1.
</event>
<event>
12    1  0.1032880E+000  0.1918217E+03  0.7818608E-02  0.1157287E+00
         21   -1    0    0  501  502  0.00000000000E+00  0.00000000000E+00  0.65726975874E+02  0.65726975874E+02  0.00000000000E+00 0.  1.
         21   -1    0    0  502  503 -0.00000000000E+00 -0.00000000000E+00 -0.62502555117E+03  0.62502555117E+03  0.00000000000E+00 0.  1.
         -6    2    1    2    0  503 -0.82599562174E+02 -0.40788925031E+01 -0.16444775885E+03  0.25266307011E+03  0.17307870051E+03 0.  0.
        -24    2    3    3    0    0 -0.28052361849E+02 -0.51430248292E+02 -0.14843285331E+03  0.17852728146E+03  0.80047940880E+02 0.  0.
          6    2    1    2  501    0  0.82599562174E+02  0.40788925031E+01 -0.39485081645E+03  0.43808945694E+03  0.17080948450E+03 0.  0.
         24    2    5    5    0    0  0.28077440950E+02  0.18309571699E+02 -0.36435516078E+03  0.37384578840E+03  0.76696852674E+02 0.  0.
          5    1    5    5  501    0  0.54522121224E+02 -0.14230679196E+02 -0.30495655674E+02  0.64243668545E+02  0.47000000000E+01 0. -1.
        -11    1    6    6    0    0  0.35239168896E+02  0.22173314563E+02 -0.87805614469E+02  0.97176544678E+02  0.00000000000E+00 0.  1.
         12    1    6    6    0    0 -0.71617279466E+01 -0.38637428647E+01 -0.27654954631E+03  0.27666924372E+03  0.00000000000E+00 0. -1.
         -5    1    3    3    0  503 -0.54547200325E+02  0.47351355789E+02 -0.16014905533E+02  0.74135788642E+02  0.47000000000E+01 0.  1.
         13    1    4    4    0    0 -0.33959466258E+02  0.10836377900E+02 -0.66477909499E+02  0.75431988479E+02  0.00000000000E+00 0. -1.
        -14    1    4    4    0    0  0.59071044090E+01 -0.62266626192E+02 -0.81954943816E+02  0.10309529298E+03  0.00000000000E+00 0.  1.
</event>
<event>
12    1  0.1032880E+000  0.2064339E+03  0.7818608E-02  0.1145316E+00
         21   -1    0    0  503  502  0.00000000000E+00  0.00000000000E+00  0.28315486424E+03  0.28315486424E+03  0.00000000000E+00 0. -1.
         21   -1    0    0  501  503 -0.00000000000E+00 -0.00000000000E+00 -0.81375164653E+03  0.81375164653E+03  0.00000000000E+00 0. -1.
          6    2    1    2  501    0  0.17407066717E+02 -0.10804951953E+03  0.23050943221E+03  0.30943427311E+03  0.17503504334E+03 0.  0.
         24    2    3    3    0    0  0.18452042342E+02 -0.45287252746E+02  0.22785492541E+03  0.24643165005E+03  0.80120396827E+02 0.  0.
         -6    2    1    2    0  502 -0.17407066717E+02  0.10804951953E+03 -0.76110621450E+03  0.78747223766E+03  0.16985920845E+03 0.  0.
        -24    2    5    5    0    0  0.11850172049E+02  0.12256907686E+03 -0.42198163728E+03  0.44674599500E+03  0.79686113375E+02 0.  0.
          5    1    3    3  501    0 -0.10449756247E+01 -0.62762266785E+02  0.26545067999E+01  0.63002623059E+02  0.47000000000E+01 0. -1.
        -11    1    4    4    0    0  0.34205831621E+02  0.10573761072E+02  0.84323046455E+02  0.91609057978E+02  0.00000000000E+00 0.  1.
         12    1    4    4    0    0 -0.15753789280E+02 -0.55861013818E+02  0.14353187895E+03  0.15482259208E+03  0.00000000000E+00 0. -1.
         -5    1    5    5    0  502 -0.29257238766E+02 -0.14519557332E+02 -0.33912457721E+03  0.34072624266E+03  0.47000000000E+01 0.  1.
         11    1    6    6    0    0 -0.21810947578E+01  0.53811892610E+02 -0.72646313663E+02  0.90432095239E+02  0.00000000000E+00 0. -1.
        -12    1    6    6    0    0  0.14031266807E+02  0.68757184254E+02 -0.34933532362E+03  0.35631389976E+03  0.00000000000E+00 0.  1.
</event>
<event>
12    1  0.1032880E+000  0.2421281E+03  0.7818608E-02  0.1118666E+00
         21   -1    0    0  501  502  0.00000000000E+00  0.00000000000E+00  0.13372755267E+04  0.13372755267E+04  0.00000000000E+00 0.  1.
         21   -1    0    0  502  503 -0.00000000000E+00 -0.00000000000E+00 -0.72997449291E+02  0.72997449291E+02  0.00000000000E+00 0.  1.
         -6    2    1    2    0  503 -0.16809394658E+03 -0.21328360367E+02  0.18279645686E+03  0.30201825056E+03  0.17055792330E+03 0.  0.
        -24    2    3    3    0    0 -0.37586536542E+02 -0.54866417339E+02  0.57955234186E+02  0.11826731527E+03  0.78773581941E+02 0.  0.
          6    2    1    2  501    0  0.16809394658E+03  0.21328360367E+02  0.10814816206E+04  0.11082547254E+04  0.17296117201E+03 0.  0.
         24    2    5    5    0    0  0.12803351205E+02 -0.20026020528E+02  0.26999111836E+03  0.28099159983E+03  0.74135739580E+02 0.  0.
          5    1    5    5  501    0  0.15529059537E+03  0.41354380895E+02  0.81149050219E+03  0.82726312560E+03  0.47000000000E+01 0. -1.
        -11    1    6    6    0    0  0.15784195550E+02  0.26574684449E+02  0.11868398096E+03  0.12264274140E+03  0.00000000000E+00 0.  1.
         12    1    6    6    0    0 -0.29808443450E+01 -0.46600704977E+02  0.15130713740E+03  0.15834885843E+03  0.00000000000E+00 0. -1.
         -5    1    3    3    0  503 -0.13050741004E+03  0.33538056972E+02  0.12484122267E+03  0.18375093528E+03  0.47000000000E+01 0.  1.
         11    1    4    4    0    0 -0.41184445089E+02 -0.32567558300E+02  0.73875503140E+02  0.90633295952E+02  0.00000000000E+00 0. -1.
        -12    1    4    4    0    0  0.35979085469E+01 -0.22298859039E+02 -0.15920268954E+02  0.27634019323E+02  0.00000000000E+00 0.  1.
</event>
<event>
12    1  0.1032880E+000  0.5469686E+03  0.7818608E-02  0.1002224E+00
         21   -1    0    0  501  502  0.00000000000E+00  0.00000000000E+00  0.53343752914E+03  0.53343752914E+03  0.00000000000E+00 0. -1.
         21   -1    0    0  502  503 -0.00000000000E+00 -0.00000000000E+00 -0.62397357900E+03  0.62397357900E+03  0.00000000000E+00 0. -1.
         -6    2    1    2    0  503 -0.18234117295E+03 -0.48589749958E+03 -0.23001695991E+03  0.59336532440E+03  0.17271341264E+03 0.  0.
        -24    2    3    3    0    0 -0.98300528473E+02 -0.18774066154E+03 -0.15401722895E+03  0.27436943242E+03  0.81533604971E+02 0.  0.
          6    2    1    2  501    0  0.18234117295E+03  0.48589749958E+03  0.13948091004E+03  0.56404578374E+03  0.17131269198E+03 0.  0.
         24    2    5    5    0    0  0.16868876173E+03  0.25796000449E+03  0.10596684651E+03  0.33320563892E+03  0.69265886287E+02 0.  0.
          5    1    5    5  501    0  0.13652411220E+02  0.22793749510E+03  0.33514063536E+02  0.23084014481E+03  0.47000000000E+01 0. -1.
        -11    1    6    6    0    0  0.75953568685E+02  0.13680783704E+03  0.88149462199E+02  0.17959859843E+03  0.00000000000E+00 0.  1.
         12    1    6    6    0    0  0.92735193046E+02  0.12115216744E+03  0.17817384309E+02  0.15360704049E+03  0.00000000000E+00 0. -1.
         -5    1    3    3    0  503 -0.84040644478E+02 -0.29815683805E+03 -0.75999730959E+02  0.31899589199E+03  0.47000000000E+01 0.  1.
         11    1    4    4    0    0 -0.32764786640E+02 -0.12106076241E+03 -0.12351342696E+03  0.17602501549E+03  0.00000000000E+00 0. -1.
        -12    1    4    4    0    0 -0.65535741833E+02 -0.66679899126E+02 -0.30503801990E+02  0.98344416928E+02  0.00000000000E+00 0.  1.
</event>
<event>
12    1  0.1032880E+000  0.2063544E+03  0.7818608E-02  0.1144601E+00
         21   -1    0    0  503  502  0.00000000000E+00  0.00000000000E+00  0.21315900588E+03  0.21315900588E+03  0.00000000000E+00 0. -1.
         21   -1    0    0  501  503 -0.00000000000E+00 -0.00000000000E+00 -0.27810870159E+03  0.27810870159E+03  0.00000000000E+00 0. -1.
          6    2    1    2  501    0 -0.87389580306E+02  0.74245835718E+02  0.98318347955E+02  0.22857961478E+03  0.17155978515E+03 0.  0.
         24    2    3    3    0    0 -0.99142520383E+02  0.11047397551E+03  0.83720361121E+02  0.18752110856E+03  0.78238920480E+02 0.  0.
         -6    2    1    2    0  502  0.87389580306E+02 -0.74245835718E+02 -0.16326804366E+03  0.26268809270E+03  0.17087772557E+03 0.  0.
        -24    2    5    5    0    0  0.72737688501E+02 -0.41097673688E+02 -0.18659277464E+03  0.21933360441E+03  0.79439136238E+02 0.  0.
          5    1    3    3  501    0  0.11752940077E+02 -0.36228139789E+02  0.14597986834E+02  0.41058506216E+02  0.47000000000E+01 0. -1.
        -11    1    4    4    0    0 -0.90901923162E+01 -0.58243048367E+01 -0.86506296490E+01  0.13834287712E+02  0.00000000000E+00 0.  1.
         12    1    4    4    0    0 -0.90052328067E+02  0.11629828034E+03  0.92370990770E+02  0.17368682085E+03  0.00000000000E+00 0. -1.
         -5    1    5    5    0  502  0.14651891805E+02 -0.33148162030E+02  0.23324730975E+02  0.43354488285E+02  0.47000000000E+01 0.  1.
         13    1    6    6    0    0 -0.15740075973E+01 -0.40859557037E+02 -0.62312011007E+02  0.74530313409E+02  0.00000000000E+00 0. -1.
        -14    1    6    6    0    0  0.74311696098E+02 -0.23811665162E+00 -0.12428076363E+03  0.14480329100E+03  0.00000000000E+00 0.  1.
</event>
<event>
12    1  0.1032880E+000  0.1966388E+03  0.7818608E-02  0.1153045E+00
         21   -1    0    0  503  502  0.00000000000E+00  0.00000000000E+00  0.35149239476E+03  0.35149239476E+03  0.00000000000E+00 0. -1.
         21   -1    0    0  501  503 -0.00000000000E+00 -0.00000000000E+00 -0.22823847301E+03  0.22823847301E+03  0.00000000000E+00 0. -1.
          6    2    1    2  501    0  0.90610880908E+02 -0.32994076468E+02 -0.14783856224E+03  0.24601436305E+03  0.17137060869E+03 0.  0.
         24    2    3    3    0    0  0.10046613435E+03 -0.68223533812E+02 -0.72455953784E+02  0.16209256408E+03  0.79222720071E+02 0.  0.
         -6    2    1    2    0  502 -0.90610880908E+02  0.32994076468E+02  0.27109248399E+03  0.33371650472E+03  0.16904623576E+03 0.  0.
        -24    2    5    5    0    0  0.43049117346E+01  0.15083746520E+02  0.19148358268E+03  0.20845895094E+03  0.80889555045E+02 0.  0.
          5    1    3    3  501    0 -0.98552534426E+01  0.35229457343E+02 -0.75382608452E+02  0.83921798969E+02  0.47000000000E+01 0. -1.
        -13    1    4    4    0    0 -0.10864818722E+02 -0.20190066613E+02 -0.18119584061E+02  0.29223319494E+02  0.00000000000E+00 0.  1.
         14    1    4    4    0    0  0.11133095307E+03 -0.48033467199E+02 -0.54336369723E+02  0.13286924459E+03  0.00000000000E+00 0. -1.
         -5    1    5    5    0  502 -0.94915792642E+02  0.17910329948E+02  0.79608901311E+02  0.12525755378E+03  0.47000000000E+01 0.  1.
         13    1    6    6    0    0  0.21737850432E+02  0.16880480562E+02  0.15464430183E+02  0.31569500571E+02  0.00000000000E+00 0. -1.
        -14    1    6    6    0    0 -0.17432938698E+02 -0.17967340417E+01  0.17601915250E+03  0.17688945037E+03  0.00000000000E+00 0.  1.
</event>
<event>
12    1  0.1032880E+000  0.2569992E+03  0.7818608E-02  0.1109037E+00
         21   -1    0    0  503  502  0.00000000000E+00  0.00000000000E+00  0.82288603162E+02  0.82288603162E+02  0.00000000000E+00 0. -1.
         21   -1    0    0  501  503 -0.00000000000E+00 -0.00000000000E+00 -0.12572171804E+04  0.12572171804E+04  0.00000000000E+00 0. -1.
          6    2    1    2  501    0 -0.68426840661E+02  0.17888585834E+03 -0.18440600567E+03  0.31631340818E+03  0.17136573296E+03 0.  0.
         24    2    3    3    0    0  0.13712103311E+02  0.79865777111E+02 -0.14161739889E+03  0.18064934709E+03  0.77537957174E+02 0.  0.
         -6    2    1    2    0  502  0.68426840661E+02 -0.17888585834E+03 -0.99052257162E+03  0.10231923754E+04  0.17060272390E+03 0.  0.
        -24    2    5    5    0    0  0.67643647808E+02 -0.10657086830E+03 -0.37481872217E+03  0.40323802920E+03  0.78605474655E+02 0.  0.
          5    1    3    3  501    0 -0.82138943971E+02  0.99020081233E+02 -0.42788606772E+02  0.13566406110E+03  0.47000000000E+01 0. -1.
        -11    1    4    4    0    0 -0.23008941154E+02  0.66916408834E+02 -0.10848625667E+03  0.12952407124E+03  0.00000000000E+00 0.  1.
         12    1    4    4    0    0  0.36721044465E+02  0.12949368276E+02 -0.33131142223E+02  0.51125275846E+02  0.00000000000E+00 0. -1.
         -5    1    5    5    0  502  0.78319285261E+00 -0.72314990048E+02 -0.61570384944E+03  0.61995434622E+03  0.47000000000E+01 0.  1.
         11    1    6    6    0    0  0.59030669492E+02 -0.27723406774E+02 -0.21732125173E+03  0.22689586528E+03  0.00000000000E+00 0. -1.
        -12    1    6    6    0    0  0.86129783163E+01 -0.78847461522E+02 -0.15749747044E+03  0.17634216393E+03  0.00000000000E+00 0.  1.
</event>
<event>
12    1  0.1032880E+000  0.2029334E+03  0.7818608E-02  0.1149192E+00
         21   -1    0    0  501  502  0.00000000000E+00  0.00000000000E+00  0.31786820612E+03  0.31786820612E+03  0.00000000000E+00 0. -1.
         21   -1    0    0  502  503 -0.00000000000E+00 -0.00000000000E+00 -0.14321988169E+03  0.14321988169E+03  0.00000000000E+00 0. -1.
         -6    2    1    2    0  503  0.35330859266E+02 -0.83122351830E+02  0.17371944042E+03  0.26713368066E+03  0.18172606960E+03 0.  0.
        -24    2    3    3    0    0  0.15424380374E+02 -0.92508449147E+02  0.19852324456E+03  0.23364210822E+03  0.79883862130E+02 0.  0.
          6    2    1    2  501    0 -0.35330859266E+02  0.83122351830E+02  0.92888400618E+00  0.19395440714E+03  0.17163873174E+03 0.  0.
         24    2    5    5    0    0 -0.66982383725E+02  0.99877111467E+02 -0.17063758260E+02  0.15360138809E+03  0.94022005152E+02 0.  0.
          5    1    5    5  501    0  0.31651524459E+02 -0.16754759637E+02  0.17992642266E+02  0.40353019054E+02  0.47000000000E+01 0. -1.
        -13    1    6    6    0    0 -0.46169659296E+02  0.35204559975E+02  0.35189595338E+02  0.67891870667E+02  0.00000000000E+00 0.  1.
         14    1    6    6    0    0 -0.20812724429E+02  0.64672551492E+02 -0.52253353598E+02  0.85709517423E+02  0.00000000000E+00 0. -1.
         -5    1    3    3    0  503  0.19906478893E+02  0.93860973171E+01 -0.24803804141E+02  0.33491572442E+02  0.47000000000E+01 0.  1.
         11    1    4    4    0    0  0.45625378216E+02 -0.75691172138E+02  0.13585188988E+03  0.16206962905E+03  0.00000000000E+00 0. -1.
        -12    1    4    4    0    0 -0.30200997843E+02 -0.16817277009E+02  0.62671354681E+02  0.71572479168E+02  0.00000000000E+00 0.  1.
</event>
<event>
12    1  0.1032880E+000  0.2212723E+03  0.7818608E-02  0.1134862E+00
         21   -1    0    0  503  502  0.00000000000E+00  0.00000000000E+00  0.56377714374E+03  0.56377714374E+03  0.00000000000E+00 0. -1.
         21   -1    0    0  501  503 -0.00000000000E+00 -0.00000000000E+00 -0.83115664212E+02  0.83115664212E+02  0.00000000000E+00 0. -1.
          6    2    1    2  501    0  0.13370472628E+03  0.35735058547E+02  0.26201793043E+03  0.34295019951E+03  0.17264847302E+03 0.  0.
         24    2    3    3    0    0  0.48668815691E+02 -0.23508734022E+02  0.19148056229E+03  0.21749684821E+03  0.87856468459E+02 0.  0.
         -6    2    1    2    0  502 -0.13370472628E+03 -0.35735058547E+02  0.21864354909E+03  0.30394260844E+03  0.15944327965E+03 0.  0.
        -24    2    5    5    0    0 -0.39611295376E+02  0.62459683768E+01  0.16576948634E+03  0.18803860992E+03  0.79189199866E+02 0.  0.
          5    1    3    3  501    0  0.85035910593E+02  0.59243792569E+02  0.70537368146E+02  0.12545335130E+03  0.47000000000E+01 0. -1.
        -13    1    4    4    0    0 -0.17839262651E+02  0.72045432394E+01  0.97756475951E+01  0.21580269255E+02  0.00000000000E+00 0.  1.
         14    1    4    4    0    0  0.66508078342E+02 -0.30713277262E+02  0.18170491469E+03  0.19591657895E+03  0.00000000000E+00 0. -1.
         -5    1    5    5    0  502 -0.94093430908E+02 -0.41981026924E+02  0.52874062750E+02  0.11590399852E+03  0.47000000000E+01 0.  1.
         13    1    6    6    0    0 -0.27091968311E+02 -0.24197443869E+02  0.26583127313E+02  0.45012817003E+02  0.00000000000E+00 0. -1.
        -14    1    6    6    0    0 -0.12519327065E+02  0.30443412246E+02  0.13918635903E+03  0.14302579292E+03  0.00000000000E+00 0.  1.
</event>
<event>
12    1  0.1032880E+000  0.2997874E+03  0.7818608E-02  0.1086743E+00
         21   -1    0    0  501  502  0.00000000000E+00  0.00000000000E+00  0.90699715983E+02  0.90699715983E+02  0.00000000000E+00 0. -1.
         21   -1    0    0  502  503 -0.00000000000E+00 -0.00000000000E+00 -0.97796279390E+03  0.97796279390E+03  0.00000000000E+00 0. -1.
         -6    2    1    2    0  503  0.20083179428E+03 -0.11548603647E+03 -0.36989783189E+03  0.47612694682E+03  0.19026830855E+03 0.  0.
        -24    2    3    3    0    0  0.64591458924E+01 -0.27458643025E+02 -0.11417417831E+03  0.14304103383E+03  0.81420493256E+02 0.  0.
          6    2    1    2  501    0 -0.20083179428E+03  0.11548603647E+03 -0.51736524602E+03  0.59253556306E+03  0.17251423560E+03 0.  0.
         24    2    5    5    0    0 -0.60378688959E+02 -0.45841283765E-01 -0.13150298528E+03  0.16593684783E+03  0.81218311654E+02 0.  0.
          5    1    5    5  501    0 -0.14045310532E+03  0.11553187776E+03 -0.38586226074E+03  0.42659871523E+03  0.47000000000E+01 0. -1.
        -13    1    6    6    0    0 -0.76109566258E+02  0.12032405979E+02 -0.12111295275E+03  0.14354717759E+03  0.00000000000E+00 0.  1.
         14    1    6    6    0    0  0.15730877299E+02 -0.12078247262E+02 -0.10390032532E+02  0.22389670242E+02  0.00000000000E+00 0. -1.
         -5    1    3    3    0  503  0.19437264838E+03 -0.88027393447E+02 -0.25572365358E+03  0.33308591300E+03  0.47000000000E+01 0.  1.
         11    1    4    4    0    0  0.32043489004E+02 -0.28963170969E+02 -0.10851465224E+03  0.11679503504E+03  0.00000000000E+00 0. -1.
        -12    1    4    4    0    0 -0.25584343111E+02  0.15045279448E+01 -0.56595260760E+01  0.26245998784E+02  0.00000000000E+00 0.  1.
</event>
<event>
12    1  0.1032880E+000  0.1805208E+03  0.7818608E-02  0.1167540E+00
         21   -1    0    0  503  502  0.00000000000E+00  0.00000000000E+00  0.10358034839E+03  0.10358034839E+03  0.00000000000E+00 0.  1.
         21   -1    0    0  501  503 -0.00000000000E+00 -0.00000000000E+00 -0.35313839239E+03  0.35313839239E+03  0.00000000000E+00 0.  1.
          6    2    1    2  501    0 -0.30016335948E+02 -0.41522185301E+02 -0.20218551592E+03  0.27104750965E+03  0.17309736377E+03 0.  0.
         24    2    3    3    0    0 -0.48342910074E+02  0.31042450210E+02 -0.15491873959E+03  0.18240368420E+03  0.77269770702E+02 0.  0.
         -6    2    1    2    0  502  0.30016335948E+02  0.41522185301E+02 -0.47372528086E+02  0.18567123112E+03  0.17205980749E+03 0.  0.
        -24    2    5    5    0    0 -0.91869149599E+01  0.82212569703E+02 -0.58644825843E+02  0.12786329948E+03  0.77887750842E+02 0.  0.
          5    1    3    3  501    0  0.18326574127E+02 -0.72564635511E+02 -0.47266776324E+02  0.88643825448E+02  0.47000000000E+01 0. -1.
        -13    1    4    4    0    0 -0.10490060162E+02 -0.75325520836E+01 -0.11370802046E+03  0.11443904325E+03  0.00000000000E+00 0.  1.
         14    1    4    4    0    0 -0.37852849912E+02  0.38575002293E+02 -0.41210719133E+02  0.67964640953E+02  0.00000000000E+00 0. -1.
         -5    1    5    5    0  502  0.39203250907E+02 -0.40690384403E+02  0.11272297757E+02  0.57807931647E+02  0.47000000000E+01 0.  1.
         13    1    6    6    0    0  0.85683167228E+01  0.25910592830E+02 -0.63010778525E+02  0.68666826653E+02  0.00000000000E+00 0. -1.
        -14    1    6    6    0    0 -0.17755231683E+02  0.56301976873E+02  0.43659526823E+01  0.59196472824E+02  0.00000000000E+00 0.  1.
</event>
<event>
12    1  0.1032880E+000  0.3152554E+03  0.7818608E-02  0.1078297E+00
         21   -1    0    0  503  502  0.00000000000E+00  0.00000000000E+00  0.66370151265E+03  0.66370151265E+03  0.00000000000E+00 0.  1.
         21   -1    0    0  501  503 -0.00000000000E+00 -0.00000000000E+00 -0.18361260186E+03  0.18361260186E+03  0.00000000000E+00 0.  1.
          6    2    1    2  501    0  0.88052010298E+02  0.24730799575E+03  0.42786095416E+03  0.53146117842E+03  0.17456112625E+03 0.  0.
         24    2    3    3    0    0  0.63873404003E+02  0.50352308379E+02  0.12917650899E+03  0.17283792824E+03  0.81063014151E+02 0.  0.
         -6    2    1    2    0  502 -0.88052010298E+02 -0.24730799575E+03  0.52227956629E+02  0.31585293608E+03  0.16769292322E+03 0.  0.
        -24    2    5    5    0    0 -0.31442068918E+02 -0.15426940767E+03 -0.26844885831E+02  0.18118494155E+03  0.85555136084E+02 0.  0.
          5    1    3    3  501    0  0.24178606294E+02  0.19695568738E+03  0.29868444516E+03  0.35862325019E+03  0.47000000000E+01 0. -1.
        -13    1    4    4    0    0 -0.52230976388E+01 -0.14726261104E+01 -0.86338570581E+01  0.10197689165E+02  0.00000000000E+00 0.  1.
         14    1    4    4    0    0  0.69096501642E+02  0.51824934489E+02  0.13781036605E+03  0.16264023907E+03  0.00000000000E+00 0. -1.
         -5    1    5    5    0  502 -0.56609941380E+02 -0.93038588088E+02  0.79072842461E+02  0.13466799453E+03  0.47000000000E+01 0.  1.
         11    1    6    6    0    0  0.17562892742E+02 -0.84106126127E+02 -0.39688669367E+02  0.94643996797E+02  0.00000000000E+00 0. -1.
        -12    1    6    6    0    0 -0.49004961659E+02 -0.70163281540E+02  0.12843783536E+02  0.86540944755E+02  0.00000000000E+00 0.  1.
</event>
<event>
12    1  0.1032880E+000  0.1873932E+03  0.7818608E-02  0.1161451E+00
         21   -1    0    0  501  502  0.00000000000E+00  0.00000000000E+00  0.13696562698E+03  0.13696562698E+03  0.00000000000E+00 0.  1.
         21   -1    0    0  502  503 -0.00000000000E+00 -0.00000000000E+00 -0.27210386325E+03  0.27210386325E+03  0.00000000000E+00 0.  1.
         -6    2    1    2    0  503  0.58075419580E+02 -0.21744329010E+02 -0.13473249018E+02  0.18787689071E+03  0.17683502882E+03 0.  0.
        -24    2    3    3    0    0  0.48876767648E+02 -0.81207860433E+02  0.49093232574E+01  0.12478540372E+03  0.81016297837E+02 0.  0.
          6    2    1    2  501    0 -0.58075419580E+02  0.21744329010E+02 -0.12166498725E+03  0.22119259953E+03  0.17400639862E+03 0.  0.
         24    2    5    5    0    0 -0.96868482660E+02  0.37676221379E+02 -0.51922881343E+02  0.13967709012E+03  0.77528725691E+02 0.  0.
          5    1    5    5  501    0  0.38793063080E+02 -0.15931892369E+02 -0.69742105908E+02  0.81515509408E+02  0.47000000000E+01 0. -1.
        -13    1    6    6    0    0 -0.36574252863E+02  0.54851876417E+02 -0.35460273721E+02  0.74858769234E+02  0.00000000000E+00 0.  1.
         14    1    6    6    0    0 -0.60294229797E+02 -0.17175655037E+02 -0.16462607622E+02  0.64818320886E+02  0.00000000000E+00 0. -1.
         -5    1    3    3    0  503  0.91986519318E+01  0.59463531423E+02 -0.18382572275E+02  0.63091486986E+02  0.47000000000E+01 0.  1.
         11    1    4    4    0    0  0.60336813149E+02 -0.21800608155E+02  0.11181456524E+01  0.64164225131E+02  0.00000000000E+00 0. -1.
        -12    1    4    4    0    0 -0.11460045501E+02 -0.59407252278E+02  0.37911776050E+01  0.60621178591E+02  0.00000000000E+00 0.  1.
</event>
<event>
12    1  0.1032880E+000  0.2512985E+03  0.7818608E-02  0.1112513E+00
         21   -1    0    0  503  502  0.00000000000E+00  0.00000000000E+00  0.11704361865E+03  0.11704361865E+03  0.00000000000E+00 0.  1.
         21   -1    0    0  501  503 -0.00000000000E+00 -0.00000000000E+00 -0.90262931877E+03  0.90262931877E+03  0.00000000000E+00 0.  1.
          6    2    1    2  501    0 -0.18003440102E+03 -0.29426542166E+02 -0.71638453454E+03  0.75918228577E+03  0.17283701792E+03 0.  0.
         24    2    3    3    0    0 -0.17295576453E+03  0.28412818456E+02 -0.53832797219E+03  0.57177436671E+03  0.80049584905E+02 0.  0.
         -6    2    1    2    0  502  0.18003440102E+03  0.29426542166E+02 -0.69201165579E+02  0.26049065165E+03  0.17259279053E+03 0.  0.
        -24    2    5    5    0    0  0.88508322950E+02 -0.17128210896E+02  0.20885116936E+02  0.12380855224E+03  0.82251265398E+02 0.  0.
          5    1    3    3  501    0 -0.70786364888E+01 -0.57839360622E+02 -0.17805656234E+03  0.18740791906E+03  0.47000000000E+01 0. -1.
        -13    1    4    4    0    0 -0.69440584360E+02  0.36154056068E+02 -0.14280862651E+03  0.16286010664E+03  0.00000000000E+00 0.  1.
         14    1    4    4    0    0 -0.10351518017E+03 -0.77412376121E+01 -0.39551934568E+03  0.40891426008E+03  0.00000000000E+00 0. -1.
         -5    1    5    5    0  502  0.91526078070E+02  0.46554753062E+02 -0.90086282515E+02  0.13668209940E+03  0.47000000000E+01 0.  1.
         11    1    6    6    0    0 -0.67831947903E+01 -0.13094340201E+02 -0.15806403905E+02  0.21617490171E+02  0.00000000000E+00 0. -1.
        -12    1    6    6    0    0  0.95291517741E+02 -0.40338706948E+01  0.36691520841E+02  0.10219106207E+03  0.00000000000E+00 0.  1.
</event>
<event>
12    1  0.1032880E+000  0.2025634E+03  0.7818608E-02  0.1147610E+00
         21   -1    0    0  503  502  0.00000000000E+00  0.00000000000E+00  0.86219697560E+03  0.86219697560E+03  0.00000000000E+00 0.  1.
         21   -1    0    0  501  503 -0.00000000000E+00 -0.00000000000E+00 -0.71531219312E+02  0.71531219312E+02  0.00000000000E+00 0.  1.
          6    2    1    2  501    0 -0.54796709763E+02  0.91076230853E+02  0.12518737021E+03  0.23812565586E+03  0.17243662921E+03 0.  0.
         24    2    3    3    0    0 -0.31791289097E+01 -0.18292438424E+02  0.45689425340E+02  0.93322707995E+02  0.79226788875E+02 0.  0.
         -6    2    1    2    0  502  0.54796709763E+02 -0.91076230853E+02  0.66547838608E+03  0.69560253905E+03  0.17234805126E+03 0.  0.
        -24    2    5    5    0    0  0.73705183462E+02 -0.91318696080E+02  0.32570510714E+03  0.35527099446E+03  0.79762800616E+02 0.  0.
          5    1    3    3  501    0 -0.51617580853E+02  0.10936866928E+03  0.79497944874E+02  0.14480294787E+03  0.47000000000E+01 0. -1.
        -13    1    4    4    0    0  0.31024697324E+02 -0.22845353977E+02  0.44409798215E+02  0.58793470895E+02  0.00000000000E+00 0.  1.
         14    1    4    4    0    0 -0.34203826234E+02  0.45529155529E+01  0.12796271244E+01  0.34529237099E+02  0.00000000000E+00 0. -1.
         -5    1    5    5    0  502 -0.18908473699E+02  0.24246522766E+00  0.33977327893E+03  0.34033154459E+03  0.47000000000E+01 0.  1.
         13    1    6    6    0    0  0.41535133747E+02 -0.84276112277E+02  0.15370614493E+03  0.18014774332E+03  0.00000000000E+00 0. -1.
        -14    1    6    6    0    0  0.32170049715E+02 -0.70425838037E+01  0.17199896222E+03  0.17512325114E+03  0.00000000000E+00 0.  1.
</event>
<event>
12    1  0.1032880E+000  0.2114678E+03  0.7818608E-02  0.1140761E+00
         21   -1    0    0  501  502  0.00000000000E+00  0.00000000000E+00  0.42673129179E+03  0.42673129179E+03  0.00000000000E+00 0. -1.
         21   -1    0    0  502  503 -0.00000000000E+00 -0.00000000000E+00 -0.13908713615E+03  0.13908713615E+03  0.00000000000E+00 0. -1.
         -6    2    1    2    0  503  0.76891381388E+02 -0.92157798585E+02  0.10934336182E+01  0.20968650768E+03  0.17193571920E+03 0.  0.
        -24    2    3    3    0    0  0.73454568790E+02 -0.11281786869E+03  0.43327127211E+02  0.16231114434E+03  0.79650627452E+02 0.  0.
          6    2    1    2  501    0 -0.76891381388E+02  0.92157798585E+02  0.28655072202E+03  0.35613192026E+03  0.17410710487E+03 0.  0.
         24    2    5    5    0    0 -0.16075566968E+01  0.10068114381E+03  0.13617508736E+03  0.18768245255E+03  0.80881219192E+02 0.  0.
          5    1    5    5  501    0 -0.75283824691E+02 -0.85233452255E+01  0.15037563466E+03  0.16844946771E+03  0.47000000000E+01 0. -1.
        -11    1    6    6    0    0 -0.34216034102E+02  0.87552475238E+02  0.98640245097E+02  0.13625736994E+03  0.00000000000E+00 0.  1.
         12    1    6    6    0    0  0.32608477405E+02  0.13128668572E+02  0.37534842265E+02  0.51425082606E+02  0.00000000000E+00 0. -1.
         -5    1    3    3    0  503  0.34368125985E+01  0.20660070102E+02 -0.42233693592E+02  0.47375363343E+02  0.47000000000E+01 0.  1.
         13    1    4    4    0    0 -0.52319809532E+01  0.14474970533E+01  0.21121109810E+02  0.21807570980E+02  0.00000000000E+00 0. -1.
        -14    1    4    4    0    0  0.78686549743E+02 -0.11426536574E+03  0.22206017400E+02  0.14050357336E+03  0.00000000000E+00 0.  1.
</event>
<event>
12    1  0.1032880E+000  0.2254139E+03  0.7818608E-02  0.1131047E+00
         21   -1    0    0  503  502  0.00000000000E+00  0.00000000000E+00  0.70289592284E+02  0.70289592284E+02  0.00000000000E+00 0. -1.
         21   -1    0    0  501  503 -0.00000000000E+00 -0.00000000000E+00 -0.16230727943E+04  0.16230727943E+04  0.00000000000E+00 0. -1.
          6    2    1    2  501    0  0.20773255469E+02 -0.14202817271E+03 -0.14184810905E+04  0.14362799245E+04  0.17380416368E+03 0.  0.
         24    2    3    3    0    0  0.61020712303E+02 -0.33337780904E+02 -0.80870687096E+03  0.81557053362E+03  0.79457895871E+02 0.  0.
         -6    2    1    2    0  502 -0.20773255469E+02  0.14202817271E+03 -0.13430211150E+03  0.25708246211E+03  0.16568284518E+03 0.  0.
        -24    2    5    5    0    0 -0.10045139155E+02  0.13995398077E+02 -0.90298019787E+02  0.12119304403E+03  0.78976234119E+02 0.  0.
          5    1    3    3  501    0 -0.40247456834E+02 -0.10869039180E+03 -0.60977421953E+03  0.62070939083E+03  0.47000000000E+01 0. -1.
        -13    1    4    4    0    0  0.36665023906E+02 -0.58010766701E+02 -0.61156939645E+03  0.61540775077E+03  0.00000000000E+00 0.  1.
         14    1    4    4    0    0  0.24355688397E+02  0.24672985797E+02 -0.19713747450E+03  0.20016278285E+03  0.00000000000E+00 0. -1.
         -5    1    5    5    0  502 -0.10728116314E+02  0.12803277463E+03 -0.44004091712E+02  0.13588941808E+03  0.47000000000E+01 0.  1.
         11    1    6    6    0    0 -0.33519698479E+02  0.24075255994E+01 -0.88828457385E+02  0.94972949870E+02  0.00000000000E+00 0. -1.
        -12    1    6    6    0    0  0.23474559324E+02  0.11587872478E+02 -0.14695624020E+01  0.26220094159E+02  0.00000000000E+00 0.  1.
</event>
<event>
12    1  0.1032880E+000  0.4533888E+03  0.7818608E-02  0.1026730E+00
         21   -1    0    0  501  502  0.00000000000E+00  0.00000000000E+00  0.78694549557E+03  0.78694549557E+03  0.00000000000E+00 0. -1.
         21   -1    0    0  502  503 -0.00000000000E+00 -0.00000000000E+00 -0.28176880744E+03  0.28176880744E+03  0.00000000000E+00 0. -1.
         -6    2    1    2    0  503 -0.31317773085E+03 -0.27910062418E+03  0.10793386977E+03  0.46605915449E+03  0.17199990035E+03 0.  0.
        -24    2    3    3    0    0 -0.27156227826E+03 -0.29192392204E+03  0.11293785338E+03  0.42197499958E+03  0.79638522757E+02 0.  0.
          6    2    1    2  501    0  0.31317773085E+03  0.27910062418E+03  0.39724281836E+03  0.60265514852E+03  0.17150487392E+03 0.  0.
         24    2    5    5    0    0  0.23803216011E+03  0.21152802394E+03  0.37942556452E+03  0.49992999269E+03  0.67548681869E+02 0.  0.
          5    1    5    5  501    0  0.75145570738E+02  0.67572600247E+02  0.17817253840E+02  0.10272515583E+03  0.47000000000E+01 0. -1.
        -11    1    6    6    0    0  0.19220290976E+03  0.19048158640E+03  0.28577364227E+03  0.39356291478E+03  0.00000000000E+00 0.  1.
         12    1    6    6    0    0  0.45829250348E+02  0.21046437534E+02  0.93651922255E+02  0.10636707791E+03  0.00000000000E+00 0. -1.
         -5    1    3    3    0  503 -0.41615452589E+02  0.12823297860E+02 -0.50039836119E+01  0.44084154910E+02  0.47000000000E+01 0.  1.
         13    1    4    4    0    0  0.14866555604E+01 -0.22785360083E+02  0.23754230624E+01  0.22957034076E+02  0.00000000000E+00 0. -1.
        -14    1    4    4    0    0 -0.27304893382E+03 -0.26913856196E+03  0.11056243032E+03  0.39901796550E+03  0.00000000000E+00 0.  1.
</event>
<event>
12    1  0.1032880E+000  0.3509693E+03  0.7818608E-02  0.1062220E+00
         21   -1    0    0  501  502  0.00000000000E+00  0.00000000000E+00  0.58946270852E+03  0.58946270852E+03  0.00000000000E+00 0.  1.
         21   -1    0    0  502  503 -0.00000000000E+00 -0.00000000000E+00 -0.46627892496E+03  0.46627892496E+03  0.00000000000E+00 0. -1.
         -6    2    1    2    0  503  0.45877555063E+02 -0.30285515364E+03  0.45373588330E+03  0.57363375187E+03  0.17132844290E+03 0.  0.
        -24    2    3    3    0    0  0.12690444955E+02 -0.30098810796E+03  0.37854932286E+03  0.49129312394E+03  0.85524588666E+02 0.  0.
          6    2    1    2  501    0 -0.45877555063E+02  0.30285515364E+03 -0.33055209974E+03  0.48210788161E+03  0.17128141967E+03 0.  0.
         24    2    5    5    0    0 -0.27765940000E+02  0.57020421702E+02 -0.11395226349E+03  0.15393060468E+03  0.81775526832E+02 0.  0.
          5    1    5    5  501    0 -0.18111615063E+02  0.24583473194E+03 -0.21659983625E+03  0.32817727693E+03  0.47000000000E+01 0. -1.
        -11    1    6    6    0    0  0.22165966832E+02  0.37174021977E+02 -0.24923693741E+02  0.49944253976E+02  0.00000000000E+00 0.  1.
         12    1    6    6    0    0 -0.49931906832E+02  0.19846399725E+02 -0.89028569749E+02  0.10398635071E+03  0.00000000000E+00 0. -1.
         -5    1    3    3    0  503  0.33187110108E+02 -0.18670456734E+01  0.75186560438E+02  0.82340627927E+02  0.47000000000E+01 0.  1.
         13    1    4    4    0    0  0.33544890613E+02 -0.20742945066E+03  0.20805790163E+03  0.29570310637E+03  0.00000000000E+00 0. -1.
        -14    1    4    4    0    0 -0.20854445658E+02 -0.93558657304E+02  0.17049142123E+03  0.19559001757E+03  0.00000000000E+00 0.  1.
</event>
<event>
12    1  0.1032880E+000  0.1989023E+03  0.7818608E-02  0.1151207E+00
         21   -1    0    0  503  502  0.00000000000E+00  0.00000000000E+00  0.31975637520E+03  0.31975637520E+03  0.00000000000E+00 0.  1.
         21   -1    0    0  501  503 -0.00000000000E+00 -0.00000000000E+00 -0.12857318359E+03  0.12857318359E+03  0.00000000000E+00 0.  1.
          6    2    1    2  501    0 -0.75671152297E+02 -0.65469702161E+02  0.46128421780E+02  0.20418121903E+03  0.17190035985E+03 0.  0.
         24    2    3    3    0    0 -0.94747842405E+02 -0.73728523819E+02  0.79594921455E+02  0.16450471664E+03  0.79456915444E+02 0.  0.
         -6    2    1    2    0  502  0.75671152297E+02  0.65469702161E+02  0.14505476983E+03  0.24414833976E+03  0.16898260374E+03 0.  0.
        -24    2    5    5    0    0  0.62914614450E+02  0.79904441327E+02  0.16918968895E+03  0.21291253861E+03  0.79772362363E+02 0.  0.
          5    1    3    3  501    0  0.19076690108E+02  0.82588216580E+01 -0.33466499676E+02  0.39676502381E+02  0.47000000000E+01 0. -1.
        -13    1    4    4    0    0 -0.51060200496E+01 -0.47714260742E+02  0.12609074252E+02  0.49615631331E+02  0.00000000000E+00 0.  1.
         14    1    4    4    0    0 -0.89641822356E+02 -0.26014263077E+02  0.66985847203E+02  0.11488908531E+03  0.00000000000E+00 0. -1.
         -5    1    5    5    0  502  0.12756537847E+02 -0.14434739167E+02 -0.24134919117E+02  0.31235801149E+02  0.47000000000E+01 0.  1.
         13    1    6    6    0    0 -0.59235168429E+01  0.24241097666E+02  0.92435628754E+02  0.95744787487E+02  0.00000000000E+00 0. -1.
        -14    1    6    6    0    0  0.68838131293E+02  0.55663343662E+02  0.76754060193E+02  0.11716775112E+03  0.00000000000E+00 0.  1.
</event>
<event>
12    1  0.1032880E+000  0.2207297E+03  0.7818608E-02  0.1133454E+00
         21   -1    0    0  501  502  0.00000000000E+00  0.00000000000E+00  0.55716438226E+02  0.55716438226E+02  0.00000000000E+00 0. -1.
         21   -1    0    0  502  503 -0.00000000000E+00 -0.00000000000E+00 -0.88697110828E+03  0.88697110828E+03  0.00000000000E+00 0.  1.
         -6    2    1    2    0  503 -0.25501090099E+01 -0.13790543887E+03 -0.35503205442E+03  0.41805423279E+03  0.17232866495E+03 0.  0.
        -24    2    3    3    0    0  0.43147232686E+02 -0.25814900764E+02 -0.20475685550E+03  0.22503283195E+03  0.78653116866E+02 0.  0.
          6    2    1    2  501    0  0.25501090099E+01  0.13790543887E+03 -0.47622261564E+03  0.52463331372E+03  0.17154509931E+03 0.  0.
         24    2    5    5    0    0 -0.54921267508E+01  0.31882491301E+02 -0.34485344103E+03  0.35556086474E+03  0.80330417883E+02 0.  0.
          5    1    5    5  501    0  0.80422357607E+01  0.10602294757E+03 -0.13136917460E+03  0.16907244898E+03  0.47000000000E+01 0. -1.
        -11    1    6    6    0    0 -0.38973031630E+02  0.32429461871E+02 -0.16489447106E+03  0.17251305394E+03  0.00000000000E+00 0.  1.
         12    1    6    6    0    0  0.33480904879E+02 -0.54697057050E+00 -0.17995896997E+03  0.18304781081E+03  0.00000000000E+00 0. -1.
         -5    1    3    3    0  503 -0.45697341696E+02 -0.11209053810E+03 -0.15027519893E+03  0.19302140084E+03  0.47000000000E+01 0.  1.
         11    1    4    4    0    0  0.54308773170E+01  0.16267939104E+01  0.65364624155E+01  0.86525272474E+01  0.00000000000E+00 0. -1.
        -12    1    4    4    0    0  0.37716355370E+02 -0.27441694675E+02 -0.21129331791E+03  0.21638030470E+03  0.00000000000E+00 0.  1.
</event>
<event>
12    1  0.1032880E+000  0.2986232E+03  0.7818608E-02  0.1085969E+00
         21   -1    0    0  503  502  0.00000000000E+00  0.00000000000E+00  0.37610075484E+03  0.37610075484E+03  0.00000000000E+00 0. -1.
         21   -1    0    0  501  503 -0.00000000000E+00 -0.00000000000E+00 -0.31131576895E+03  0.31131576895E+03  0.00000000000E+00 0. -1.
          6    2    1    2  501    0 -0.68890611432E+02 -0.23411495480E+03  0.20048676611E+03  0.35968150110E+03  0.17210494021E+03 0.  0.
         24    2    3    3    0    0 -0.48540487938E+02 -0.24119182472E+03  0.21178382511E+03  0.33490402834E+03  0.82332522999E+02 0.  0.
         -6    2    1    2    0  502  0.68890611432E+02  0.23411495480E+03 -0.13570178022E+03  0.32773502270E+03  0.17157955456E+03 0.  0.
        -24    2    5    5    0    0 -0.24618072432E+01  0.43900746886E+02 -0.15093019692E+02  0.91427647317E+02  0.78726611628E+02 0.  0.
          5    1    3    3  501    0 -0.20350123494E+02  0.70768699243E+01 -0.11297058996E+02  0.24777472755E+02  0.47000000000E+01 0. -1.
        -11    1    4    4    0    0 -0.69192637434E+02 -0.19453885933E+03  0.15249963108E+03  0.25668877331E+03  0.00000000000E+00 0.  1.
         12    1    4    4    0    0  0.20652149496E+02 -0.46652965389E+02  0.59284194023E+02  0.78215255029E+02  0.00000000000E+00 0. -1.
         -5    1    5    5    0  502  0.71352418675E+02  0.19021420791E+03 -0.12060876053E+03  0.23630737538E+03  0.47000000000E+01 0.  1.
         11    1    6    6    0    0  0.21052636087E+02  0.32148907491E+01 -0.34534026183E+02  0.40572749145E+02  0.00000000000E+00 0. -1.
        -12    1    6    6    0    0 -0.23514443330E+02  0.40685856137E+02  0.19441006491E+02  0.50854898172E+02  0.00000000000E+00 0.  1.
</event>
<event>
12    1  0.1032880E+000  0.2143778E+03  0.7818608E-02  0.1138232E+00
         21   -1    0    0  501  502  0.00000000000E+00  0.00000000000E+00  0.15892626717E+03  0.15892626717E+03  0.00000000000E+00 0. -1.
         21   -1    0    0  502  503 -0.00000000000E+00 -0.00000000000E+00 -0.39819799656E+03  0.39819799656E+03  0.00000000000E+00 0. -1.
         -6    2    1    2    0  503 -0.12722386725E+03 -0.10761238552E+02  0.26433064764E+02  0.21600126639E+03  0.17220953376E+03 0.  0.
        -24    2    3    3    0    0 -0.14307022640E+03 -0.98152003147E+01  0.63347702213E+02  0.17554409713E+03  0.78977027185E+02 0.  0.
          6    2    1    2  501    0  0.12722386725E+03  0.10761238552E+02 -0.26570479415E+03  0.34112299734E+03  0.17165123078E+03 0.  0.
         24    2    5    5    0    0  0.86041629645E+01 -0.32571758167E+02 -0.13300967610E+03  0.15787871447E+03  0.78097141418E+02 0.  0.
          5    1    5    5  501    0  0.11861970428E+03  0.43332996720E+02 -0.13269511806E+03  0.18324428287E+03  0.47000000000E+01 0. -1.
        -11    1    6    6    0    0  0.30187878435E+02  0.14226259564E+02 -0.56843591273E+02  0.65915766963E+02  0.00000000000E+00 0.  1.
         12    1    6    6    0    0 -0.21583715470E+02 -0.46798017732E+02 -0.76166084823E+02  0.91962947508E+02  0.00000000000E+00 0. -1.
         -5    1    3    3    0  503  0.15846359149E+02 -0.94603823765E+00 -0.36914637449E+02  0.40457169262E+02  0.47000000000E+01 0.  1.
         13    1    4    4    0    0 -0.32428263903E+02 -0.27559237919E+02 -0.71545641231E+01  0.43154277682E+02  0.00000000000E+00 0. -1.
        -14    1    4    4    0    0 -0.11064196249E+03  0.17744037604E+02  0.70502266336E+02  0.13238981945E+03  0.00000000000E+00 0.  1.
</event>
<event>
12    1  0.1032880E+000  0.1978385E+03  0.7818608E-02  0.1151710E+00
         21   -1    0    0  501  502  0.00000000000E+00  0.00000000000E+00  0.14242901285E+03  0.14242901285E+03  0.00000000000E+00 0. -1.
         21   -1    0    0  502  503 -0.00000000000E+00 -0.00000000000E+00 -0.33189081012E+03  0.33189081012E+03  0.00000000000E+00 0. -1.
         -6    2    1    2    0  503  0.74499731216E+02  0.61829779825E+02  0.42492116779E+01  0.19788414564E+03  0.17253100496E+03 0.  0.
        -24    2    3    3    0    0  0.10907800694E+03  0.12463231567E+02  0.12236250276E+02  0.13690385354E+03  0.80867765846E+02 0.  0.
          6    2    1    2  501    0 -0.74499731216E+02 -0.61829779825E+02 -0.19371100894E+03  0.27643567733E+03  0.17181268024E+03 0.  0.
         24    2    5    5    0    0 -0.97696696664E+02 -0.91152477531E+02 -0.17286799496E+03  0.23337245592E+03  0.82011833289E+02 0.  0.
          5    1    5    5  501    0  0.23196965449E+02  0.29322697706E+02 -0.20843013976E+02  0.43063221412E+02  0.47000000000E+01 0. -1.
        -11    1    6    6    0    0 -0.27809412928E+02 -0.30152540003E+02 -0.46622158347E+01  0.41282870207E+02  0.00000000000E+00 0.  1.
         12    1    6    6    0    0 -0.69887283736E+02 -0.60999937528E+02 -0.16820577913E+03  0.19208958571E+03  0.00000000000E+00 0. -1.
         -5    1    3    3    0  503 -0.34578275728E+02  0.49366548258E+02 -0.79870385981E+01  0.60980292101E+02  0.47000000000E+01 0.  1.
         11    1    4    4    0    0  0.28663941634E+02 -0.27753143421E+02 -0.15515093779E+02  0.42808604914E+02  0.00000000000E+00 0. -1.
        -12    1    4    4    0    0  0.80414065309E+02  0.40216374988E+02  0.27751344055E+02  0.94095248624E+02  0.00000000000E+00 0.  1.
</event>
<event>
12    1  0.1032880E+000  0.2519926E+03  0.7818608E-02  0.1112118E+00
         21   -1    0    0  503  502  0.00000000000E+00  0.00000000000E+00  0.74777720056E+03  0.74777720056E+03  0.00000000000E+00 0. -1.
         21   -1    0    0  501  503 -0.00000000000E+00 -0.00000000000E+00 -0.87548796773E+02  0.87548796773E+02  0.00000000000E+00 0. -1.
          6    2    1    2  501    0  0.18125665147E+03 -0.34327128369E+02  0.40417101932E+03  0.47606890107E+03  0.17104110695E+03 0.  0.
         24    2    3    3    0    0  0.63770715385E+02  0.66631222928E+01  0.86831249513E+02  0.13517336674E+03  0.81369968934E+02 0.  0.
         -6    2    1    2    0  502 -0.18125665147E+03  0.34327128369E+02  0.25605738447E+03  0.35925709626E+03  0.17166231860E+03 0.  0.
        -24    2    5    5    0    0 -0.11541334324E+03 -0.39540727109E+02  0.18846278168E+03  0.23932827721E+03  0.82922224386E+02 0.  0.
          5    1    3    3  501    0  0.11748593609E+03 -0.40990250662E+02  0.31733976981E+03  0.34089553434E+03  0.47000000000E+01 0. -1.
        -11    1    4    4    0    0  0.39898345388E+02 -0.36069725862E+02  0.36736294149E+02  0.65134156909E+02  0.00000000000E+00 0.  1.
         12    1    4    4    0    0  0.23872369997E+02  0.42732848155E+02  0.50094955364E+02  0.70039209830E+02  0.00000000000E+00 0. -1.
         -5    1    5    5    0  502 -0.65843308234E+02  0.73867855479E+02  0.67594602783E+02  0.11992881905E+03  0.47000000000E+01 0.  1.
         13    1    6    6    0    0 -0.11745461278E+02  0.26331273027E+01 -0.71220134732E+01  0.13986146572E+02  0.00000000000E+00 0. -1.
        -14    1    6    6    0    0 -0.10366788196E+03 -0.42173854412E+02  0.19558479516E+03  0.22534213064E+03  0.00000000000E+00 0.  1.
</event>
<event>
12    1  0.1032880E+000  0.1798828E+03  0.7818608E-02  0.1168412E+00
         21   -1    0    0  501  502  0.00000000000E+00  0.00000000000E+00  0.31523339599E+02  0.31523339599E+02  0.00000000000E+00 0. -1.
         21   -1    0    0  502  503 -0.00000000000E+00 -0.00000000000E+00 -0.12148324376E+04  0.12148324376E+04  0.00000000000E+00 0. -1.
         -6    2    1    2    0  503  0.31229823811E+02 -0.13684276952E+02 -0.33604466443E+03  0.38020634432E+03  0.17455167269E+03 0.  0.
        -24    2    3    3    0    0 -0.27572876788E+02  0.42631021113E+02 -0.22268429903E+03  0.24055738143E+03  0.75510855039E+02 0.  0.
          6    2    1    2  501    0 -0.31229823811E+02  0.13684276952E+02 -0.84726443354E+03  0.86614943285E+03  0.17662179466E+03 0.  0.
         24    2    5    5    0    0 -0.56929115812E+02  0.67803203902E+02 -0.53906887924E+03  0.55214958961E+03  0.80222902302E+02 0.  0.
          5    1    5    5  501    0  0.25699292001E+02 -0.54118926949E+02 -0.30819555430E+03  0.31399984324E+03  0.47000000000E+01 0. -1.
        -11    1    6    6    0    0  0.11242825341E+02  0.44974939939E+02 -0.17404412934E+03  0.18011247958E+03  0.00000000000E+00 0.  1.
         12    1    6    6    0    0 -0.68171941153E+02  0.22828263962E+02 -0.36502474991E+03  0.37203711003E+03  0.00000000000E+00 0. -1.
         -5    1    3    3    0  503  0.58802700599E+02 -0.56315298065E+02 -0.11336036540E+03  0.13964896289E+03  0.47000000000E+01 0.  1.
         11    1    4    4    0    0 -0.40200916972E+02 -0.17899467204E+00 -0.62844531855E+02  0.74602821317E+02  0.00000000000E+00 0. -1.
        -12    1    4    4    0    0  0.12628040184E+02  0.42810015785E+02 -0.15983976718E+03  0.16595456011E+03  0.00000000000E+00 0.  1.
</event>
<event>
12    1  0.1032880E+000  0.2761516E+03  0.7818608E-02  0.1098090E+00
         21   -1    0    0  503  502  0.00000000000E+00  0.00000000000E+00  0.10475736354E+04  0.10475736354E+04  0.00000000000E+00 0.  1.
         21   -1    0    0  501  503 -0.00000000000E+00 -0.00000000000E+00 -0.72950914978E+02  0.72950914978E+02  0.00000000000E+00 0.  1.
          6    2    1    2  501    0 -0.20450009642E+03 -0.69884093693E+02  0.43487671051E+03  0.51514798671E+03  0.17191747693E+03 0.  0.
         24    2    3    3    0    0 -0.28488594132E+02 -0.43839259745E+02  0.18767853160E+03  0.21053772429E+03  0.79808655126E+02 0.  0.
         -6    2    1    2    0  502  0.20450009642E+03  0.69884093693E+02  0.53974600991E+03  0.60537656367E+03  0.16867410187E+03 0.  0.
        -24    2    5    5    0    0  0.10540895659E+03 -0.87332128119E+01  0.15878752614E+03  0.20394015373E+03  0.72047142268E+02 0.  0.
          5    1    3    3  501    0 -0.17601150229E+03 -0.26044833948E+02  0.24719817891E+03  0.30461026242E+03  0.47000000000E+01 0. -1.
        -13    1    4    4    0    0 -0.19996859228E+02 -0.29377098280E+02  0.17640477025E+02  0.39674610420E+02  0.00000000000E+00 0.  1.
         14    1    4    4    0    0 -0.84917349038E+01 -0.14462161465E+02  0.17003805458E+03  0.17086311387E+03  0.00000000000E+00 0. -1.
         -5    1    5    5    0  502  0.99091139837E+02  0.78617306505E+02  0.38095848376E+03  0.40143640994E+03  0.47000000000E+01 0.  1.
         11    1    6    6    0    0  0.58391917790E+02  0.11961132907E+02  0.13450566066E+03  0.14712055435E+03  0.00000000000E+00 0. -1.
        -12    1    6    6    0    0  0.47017038796E+02 -0.20694345719E+02  0.24281865488E+02  0.56819599378E+02  0.00000000000E+00 0.  1.
</event>
<event>
12    1  0.1032880E+000  0.2334832E+03  0.7818608E-02  0.1125425E+00
         21   -1    0    0  501  502  0.00000000000E+00  0.00000000000E+00  0.30525165244E+03  0.30525165244E+03  0.00000000000E+00 0.  1.
         21   -1    0    0  502  503 -0.00000000000E+00 -0.00000000000E+00 -0.18346529474E+03  0.18346529474E+03  0.00000000000E+00 0. -1.
         -6    2    1    2    0  503  0.83399865057E+02 -0.13449629710E+03  0.11743189348E+03  0.25519316082E+03  0.16213731310E+03 0.  0.
        -24    2    3    3    0    0  0.19206042734E+02 -0.11193770569E+03  0.27782213162E+02  0.14254817845E+03  0.81542686862E+02 0.  0.
          6    2    1    2  501    0 -0.83399865057E+02  0.13449629710E+03  0.43544642187E+01  0.23352378636E+03  0.17166713725E+03 0.  0.
         24    2    5    5    0    0 -0.11676701127E+02  0.33965290576E+02  0.50764313615E+02  0.10151371236E+03  0.80237347582E+02 0.  0.
          5    1    5    5  501    0 -0.71723163930E+02  0.10053100652E+03 -0.46409849396E+02  0.13201007400E+03  0.47000000000E+01 0. -1.
        -13    1    6    6    0    0 -0.23051501144E+02  0.57098069087E+02  0.40855428003E+02  0.73896733322E+02  0.00000000000E+00 0.  1.
         14    1    6    6    0    0  0.11374800017E+02 -0.23132778511E+02  0.99088856121E+01  0.27616979037E+02  0.00000000000E+00 0. -1.
         -5    1    3    3    0  503  0.64193822322E+02 -0.22558591410E+02  0.89649680320E+02  0.11264498237E+03  0.47000000000E+01 0.  1.
         11    1    4    4    0    0 -0.10680398428E+02 -0.70309497777E+02  0.49752304335E+02  0.86791636550E+02  0.00000000000E+00 0. -1.
        -12    1    4    4    0    0  0.29886441162E+02 -0.41628207909E+02 -0.21970091173E+02  0.55756541905E+02  0.00000000000E+00 0.  1.
</event>
<event>
12    1  0.1032880E+000  0.2801413E+03  0.7818608E-02  0.1096469E+00
         21   -1    0    0  501  502  0.00000000000E+00  0.00000000000E+00  0.14229124698E+03  0.14229124698E+03  0.00000000000E+00 0.  1.
         21   -1    0    0  502  503 -0.00000000000E+00 -0.00000000000E+00 -0.54807952669E+03  0.54807952669E+03  0.00000000000E+00 0.  1.
         -6    2    1    2    0  503 -0.83823693209E+02 -0.19636934426E+03 -0.15718496533E+03  0.31582735345E+03  0.17161722803E+03 0.  0.
        -24    2    3    3    0    0 -0.86627698934E+02 -0.21991592595E+03 -0.14793701003E+03  0.28994456700E+03  0.79467731089E+02 0.  0.
          6    2    1    2  501    0  0.83823693209E+02  0.19636934426E+03 -0.24860331438E+03  0.37454342022E+03  0.18136106197E+03 0.  0.
         24    2    5    5    0    0 -0.25115760194E+02  0.12499337060E+03 -0.13013709044E+03  0.19842223938E+03  0.78623016162E+02 0.  0.
          5    1    5    5  501    0  0.10893945340E+03  0.71375973661E+02 -0.11846622395E+03  0.17612118084E+03  0.47000000000E+01 0. -1.
        -11    1    6    6    0    0 -0.43151403069E+02  0.28845508442E+02 -0.47709388580E+02  0.70500302856E+02  0.00000000000E+00 0.  1.
         12    1    6    6    0    0  0.18035642876E+02  0.96147862156E+02 -0.82427701858E+02  0.12792193653E+03  0.00000000000E+00 0. -1.
         -5    1    3    3    0  503  0.28040057254E+01  0.23546581693E+02 -0.92479552934E+01  0.25882786454E+02  0.47000000000E+01 0.  1.
         11    1    4    4    0    0 -0.95360400184E+02 -0.17075840741E+03 -0.13711835182E+03  0.23885870725E+03  0.00000000000E+00 0. -1.
        -12    1    4    4    0    0  0.87327012499E+01 -0.49157518543E+02 -0.10818658210E+02  0.51085859745E+02  0.00000000000E+00 0.  1.
</event>
<event>
12    1  0.1032880E+000  0.1788580E+03  0.7818608E-02  0.1169425E+00
         21   -1    0    0  503  502  0.00000000000E+00  0.00000000000E+00  0.37297009008E+03  0.37297009008E+03  0.00000000000E+00 0.  1.
         21   -1    0    0  501  503 -0.00000000000E+00 -0.00000000000E+00 -0.11134609123E+03  0.11134609123E+03  0.00000000000E+00 0.  1.
          6    2    1    2  501    0  0.47223246244E+02 -0.67676734449E+01  0.24852295910E+03  0.30497900791E+03  0.17021368241E+03 0.  0.
         24    2    3    3    0    0  0.34529556510E+02  0.27882214122E+02  0.25182158088E+03  0.26763311961E+03  0.79016896790E+02 0.  0.
         -6    2    1    2    0  502 -0.47223246244E+02  0.67676734449E+01  0.13101039753E+02  0.17933717339E+03  0.17237850251E+03 0.  0.
        -24    2    5    5    0    0  0.37142263713E+02 -0.58684129263E+00  0.31267788102E+02  0.92597627026E+02  0.78846393841E+02 0.  0.
          5    1    3    3  501    0  0.12693689734E+02 -0.34649887567E+02 -0.32986217830E+01  0.37345888303E+02  0.47000000000E+01 0. -1.
        -13    1    4    4    0    0  0.22080154671E+01 -0.26910869199E+02  0.73172223330E+02  0.77995156775E+02  0.00000000000E+00 0.  1.
         14    1    4    4    0    0  0.32321541043E+02  0.54793083321E+02  0.17864935755E+03  0.18963796284E+03  0.00000000000E+00 0. -1.
         -5    1    5    5    0  502 -0.84365509957E+02  0.73545147376E+01 -0.18166748349E+02  0.86739546361E+02  0.47000000000E+01 0.  1.
         11    1    6    6    0    0  0.76653341880E+00 -0.23747262480E+02  0.41913930558E+02  0.48179846654E+02  0.00000000000E+00 0. -1.
        -12    1    6    6    0    0  0.36375730295E+02  0.23160421187E+02 -0.10646142456E+02  0.44417780373E+02  0.00000000000E+00 0.  1.
</event>
<event>
12    1  0.1032880E+000  0.2371364E+03  0.7818608E-02  0.1122066E+00
         21   -1    0    0  503  502  0.00000000000E+00  0.00000000000E+00  0.27703001824E+04  0.27703001824E+04  0.00000000000E+00 0.  1.
         21   -1    0    0  501  503 -0.00000000000E+00 -0.00000000000E+00 -0.35183560456E+02  0.35183560456E+02  0.00000000000E+00 0.  1.
          6    2    1    2  501    0 -0.12779989907E+03 -0.94459157804E+02  0.22819075573E+04  0.22939838481E+04  0.17321792255E+03 0.  0.
         24    2    3    3    0    0 -0.69423711962E+02 -0.11126057447E+03  0.11597131774E+04  0.11701367130E+04  0.84182575895E+02 0.  0.
         -6    2    1    2    0  502  0.12779989907E+03  0.94459157804E+02  0.45320906463E+03  0.51149989472E+03  0.17600664572E+03 0.  0.
        -24    2    5    5    0    0  0.74622534242E+01  0.70456700818E+02  0.24399692614E+03  0.26891161018E+03  0.88085879742E+02 0.  0.
          5    1    3    3  501    0 -0.58376187112E+02  0.16801416668E+02  0.11221943799E+04  0.11238471351E+04  0.47000000000E+01 0. -1.
        -11    1    4    4    0    0 -0.87280020670E+02 -0.74006877998E+02  0.86958573781E+03  0.87708276429E+03  0.00000000000E+00 0.  1.
         12    1    4    4    0    0  0.17856308708E+02 -0.37253696474E+02  0.29012743957E+03  0.29305394871E+03  0.00000000000E+00 0. -1.
         -5    1    5    5    0  502  0.12033764565E+03  0.24002456986E+02  0.20921213849E+03  0.24258828454E+03  0.47000000000E+01 0.  1.
         13    1    6    6    0    0  0.13615127176E+02  0.19333572290E+02  0.19938380987E+03  0.20078113044E+03  0.00000000000E+00 0. -1.
        -14    1    6    6    0    0 -0.61528737518E+01  0.51123128528E+02  0.44613116268E+02  0.68130479736E+02  0.00000000000E+00 0.  1.
</event>
<event>
12    1  0.1032880E+000  0.2060835E+03  0.7818608E-02  0.1147276E+00
         21   -1    0    0  501  502  0.00000000000E+00  0.00000000000E+00  0.18076026885E+03  0.18076026885E+03  0.00000000000E+00 0.  1.
         21   -1    0    0  502  503 -0.00000000000E+00 -0.00000000000E+00 -0.22257169475E+03  0.22257169475E+03  0.00000000000E+00 0.  1.
         -6    2    1    2    0  503 -0.33409068077E+02 -0.79407551165E+02 -0.37452457880E+02  0.20945909615E+03  0.18721298392E+03 0.  0.
        -24    2    3    3    0    0 -0.85701198590E+02 -0.84252561766E+02  0.26018528942E+01  0.14324445387E+03  0.77903878737E+02 0.  0.
          6    2    1    2  501    0  0.33409068077E+02  0.79407551165E+02 -0.43589680198E+01  0.19387286744E+03  0.17362592870E+03 0.  0.
         24    2    5    5    0    0  0.98551578151E+01 -0.27137373723E+02 -0.14536688917E+02  0.84181100612E+02  0.77727608913E+02 0.  0.
          5    1    5    5  501    0  0.23553910262E+02  0.10654492489E+03  0.10177720898E+02  0.10969176683E+03  0.47000000000E+01 0. -1.
        -13    1    6    6    0    0  0.23608969636E+02 -0.28568443573E+02 -0.40417872345E+02  0.54837430833E+02  0.00000000000E+00 0.  1.
         14    1    6    6    0    0 -0.13753811821E+02  0.14310698499E+01  0.25881183427E+02  0.29343669779E+02  0.00000000000E+00 0. -1.
         -5    1    3    3    0  503  0.52292130513E+02  0.48450106013E+01 -0.40054310774E+02  0.66214642285E+02  0.47000000000E+01 0.  1.
         11    1    4    4    0    0 -0.26733936785E+02 -0.51576420952E+02  0.35654582685E+02  0.68162158421E+02  0.00000000000E+00 0. -1.
        -12    1    4    4    0    0 -0.58967261805E+02 -0.32676140815E+02 -0.33052729790E+02  0.75082295449E+02  0.00000000000E+00 0.  1.
</event>
<event>
12    1  0.1032880E+000  0.1983322E+03  0.7818608E-02  0.1151473E+00
         21   -1    0    0  503  502  0.00000000000E+00  0.00000000000E+00  0.23595257945E+03  0.23595257945E+03  0.00000000000E+00 0.  1.
         21   -1    0    0  501  503 -0.00000000000E+00 -0.00000000000E+00 -0.16648484549E+03  0.16648484549E+03  0.00000000000E+00 0.  1.
          6    2    1    2  501    0 -0.15338592488E+02  0.93850501529E+02  0.50382852357E+02  0.20318909288E+03  0.17234902552E+03 0.  0.
         24    2    3    3    0    0  0.49878440501E+02  0.81035974960E+02  0.55044485093E+02  0.13639617183E+03  0.80742382218E+02 0.  0.
         -6    2    1    2    0  502  0.15338592488E+02 -0.93850501529E+02  0.19084881601E+02  0.19924833206E+03  0.17404733857E+03 0.  0.
        -24    2    5    5    0    0 -0.18617933858E+02 -0.12464900614E+03 -0.34031911397E+01  0.14797068602E+03  0.77457988727E+02 0.  0.
          5    1    3    3  501    0 -0.65217032989E+02  0.12814526568E+02 -0.46616327363E+01  0.66792921053E+02  0.47000000000E+01 0. -1.
        -11    1    4    4    0    0  0.36248052713E+02 -0.38203632602E+01  0.45903805217E+01  0.36736740387E+02  0.00000000000E+00 0.  1.
         12    1    4    4    0    0  0.13630387788E+02  0.84856338221E+02  0.50454104571E+02  0.99659431443E+02  0.00000000000E+00 0. -1.
         -5    1    5    5    0  502  0.33956526346E+02  0.30798504611E+02  0.22488072740E+02  0.51277646039E+02  0.47000000000E+01 0.  1.
         11    1    6    6    0    0  0.21694912435E+02 -0.95247387411E+02 -0.70562743844E+01  0.97941436800E+02  0.00000000000E+00 0. -1.
        -12    1    6    6    0    0 -0.40312846292E+02 -0.29401618729E+02  0.36530832447E+01  0.50029249217E+02  0.00000000000E+00 0.  1.
</event>
<event>
12    1  0.1032880E+000  0.1996530E+03  0.7818608E-02  0.1152193E+00
         21   -1    0    0  503  502  0.00000000000E+00  0.00000000000E+00  0.48169180745E+03  0.48169180745E+03  0.00000000000E+00 0. -1.
         21   -1    0    0  501  503 -0.00000000000E+00 -0.00000000000E+00 -0.79605313015E+02  0.79605313015E+02  0.00000000000E+00 0. -1.
          6    2    1    2  501    0  0.10059152604E+03 -0.10771924499E+02  0.22618231400E+03  0.29520765836E+03  0.16048187722E+03 0.  0.
         24    2    3    3    0    0  0.66125464091E+02  0.50499541398E+02  0.17141850729E+03  0.20597052211E+03  0.78209786181E+02 0.  0.
         -6    2    1    2    0  502 -0.10059152604E+03  0.10771924499E+02  0.17590418043E+03  0.26608946211E+03  0.17212388469E+03 0.  0.
        -24    2    5    5    0    0 -0.13724315710E+03  0.17711403929E+02  0.12113615439E+03  0.19965810573E+03  0.77717522357E+02 0.  0.
          5    1    3    3  501    0  0.34466061953E+02 -0.61271465896E+02  0.54763806716E+02  0.89237136247E+02  0.47000000000E+01 0. -1.
        -13    1    4    4    0    0  0.11852940189E+02  0.59671524294E+01  0.11538687562E+03  0.11614745010E+03  0.00000000000E+00 0.  1.
         14    1    4    4    0    0  0.54272523902E+02  0.44532388968E+02  0.56031631667E+02  0.89823072009E+02  0.00000000000E+00 0. -1.
         -5    1    5    5    0  502  0.36651631060E+02 -0.69394794300E+01  0.54768026036E+02  0.66431356376E+02  0.47000000000E+01 0.  1.
         11    1    6    6    0    0 -0.51446556704E+02  0.38734755989E+02  0.78608836603E+02  0.10161928316E+03  0.00000000000E+00 0. -1.
        -12    1    6    6    0    0 -0.85796600400E+02 -0.21023352060E+02  0.42527317790E+02  0.98038822568E+02  0.00000000000E+00 0.  1.
</event>
<event>
12    1  0.1032880E+000  0.1744097E+03  0.7818608E-02  0.1173534E+00
         21   -1    0    0  503  502  0.00000000000E+00  0.00000000000E+00  0.81403671103E+03  0.81403671103E+03  0.00000000000E+00 0. -1.
         21   -1    0    0  501  503 -0.00000000000E+00 -0.00000000000E+00 -0.43281863312E+02  0.43281863312E+02  0.00000000000E+00 0. -1.
          6    2    1    2  501    0 -0.25869380193E+02 -0.20831624229E+01  0.54695768131E+03  0.57409184456E+03  0.17246789977E+03 0.  0.
         24    2    3    3    0    0 -0.83148648616E+02  0.61634372824E+01  0.39494928882E+03  0.41137256978E+03  0.79314341088E+02 0.  0.
         -6    2    1    2    0  502  0.25869380193E+02  0.20831624229E+01  0.22379716641E+03  0.28322672979E+03  0.17163520727E+03 0.  0.
        -24    2    5    5    0    0 -0.93902812109E+01 -0.55760719167E+02  0.16916730978E+03  0.19607359102E+03  0.81423824630E+02 0.  0.
          5    1    3    3  501    0  0.57279268423E+02 -0.82465997053E+01  0.15200839249E+03  0.16271927478E+03  0.47000000000E+01 0. -1.
        -11    1    4    4    0    0 -0.57874255769E+02 -0.24065143682E+02  0.13991825136E+03  0.15331561461E+03  0.00000000000E+00 0.  1.
         12    1    4    4    0    0 -0.25274392847E+02  0.30228580964E+02  0.25503103746E+03  0.25805695517E+03  0.00000000000E+00 0. -1.
         -5    1    5    5    0  502  0.35259661404E+02  0.57843881589E+02  0.54629856638E+02  0.87153138762E+02  0.47000000000E+01 0.  1.
         11    1    6    6    0    0 -0.20209460880E+02 -0.43269688537E+02  0.17269458280E+03  0.17917619034E+03  0.00000000000E+00 0. -1.
        -12    1    6    6    0    0  0.10819179669E+02 -0.12491030629E+02 -0.35272730275E+01  0.16897400685E+02  0.00000000000E+00 0.  1.
</event>
<event>
12    1  0.1032880E+000  0.1985074E+03  0.7818608E-02  0.1151101E+00
         21   -1    0    0  503  502  0.00000000000E+00  0.00000000000E+00  0.18595032448E+03  0.18595032448E+03  0.00000000000E+00 0. -1.
         21   -1    0    0  501  503 -0.00000000000E+00 -0.00000000000E+00 -0.24581438431E+03  0.24581438431E+03  0.00000000000E+00 0. -1.
          6    2    1    2  501    0  0.96992030007E+02  0.23068979114E+02 -0.11064342258E+03  0.22686541184E+03  0.17113245293E+03 0.  0.
         24    2    3    3    0    0  0.22333009501E+00 -0.13144897690E+02 -0.95860995354E+02  0.12238461786E+03  0.74938815350E+02 0.  0.
         -6    2    1    2    0  502 -0.96992030007E+02 -0.23068979114E+02  0.50779362741E+02  0.20489929696E+03  0.17165531314E+03 0.  0.
        -24    2    5    5    0    0  0.72886717347E+01  0.15230237222E+02 -0.20203605271E+01  0.81809104393E+02  0.80022264674E+02 0.  0.
          5    1    3    3  501    0  0.96768699912E+02  0.36213876804E+02 -0.14782427222E+02  0.10448079398E+03  0.47000000000E+01 0. -1.
        -11    1    4    4    0    0 -0.13387087221E+02 -0.22030316336E+02 -0.64049420806E+00  0.25786802341E+02  0.00000000000E+00 0.  1.
         12    1    4    4    0    0  0.13610417316E+02  0.88854186457E+01 -0.95220501146E+02  0.96597815516E+02  0.00000000000E+00 0. -1.
         -5    1    5    5    0  502 -0.10428070174E+03 -0.38299216336E+02  0.52799723268E+02  0.12309019256E+03  0.47000000000E+01 0.  1.
         13    1    6    6    0    0 -0.15805443963E+02  0.34073538629E+02  0.21999326310E+02  0.43529167827E+02  0.00000000000E+00 0. -1.
        -14    1    6    6    0    0  0.23094115698E+02 -0.18843301407E+02 -0.24019686837E+02  0.38279936567E+02  0.00000000000E+00 0.  1.
</event>
<event>
12    1  0.1032880E+000  0.2332696E+03  0.7818608E-02  0.1124705E+00
         21   -1    0    0  501  502  0.00000000000E+00  0.00000000000E+00  0.27001470754E+03  0.27001470754E+03  0.00000000000E+00 0.  1.
         21   -1    0    0  502  503 -0.00000000000E+00 -0.00000000000E+00 -0.22084678660E+03  0.22084678660E+03  0.00000000000E+00 0.  1.
         -6    2    1    2    0  503 -0.25582663755E+02  0.15119789401E+03  0.10042730739E+03  0.25396923317E+03  0.17578239812E+03 0.  0.
        -24    2    3    3    0    0 -0.85657605788E+02  0.10475035803E+03  0.77498901256E+02  0.17450745577E+03  0.78338429195E+02 0.  0.
          6    2    1    2  501    0  0.25582663755E+02 -0.15119789401E+03 -0.51259386456E+02  0.23689226096E+03  0.17313330924E+03 0.  0.
         24    2    5    5    0    0 -0.34072112107E+02 -0.31932843961E+02 -0.46069246057E+02  0.10335622836E+03  0.79871892192E+02 0.  0.
          5    1    5    5  501    0  0.59654775863E+02 -0.11926505005E+03 -0.51901403992E+01  0.13353603260E+03  0.47000000000E+01 0. -1.
        -11    1    6    6    0    0 -0.51913302202E+02 -0.46218605454E+02 -0.32016829102E+02  0.76525994155E+02  0.00000000000E+00 0.  1.
         12    1    6    6    0    0  0.17841190095E+02  0.14285761493E+02 -0.14052416955E+02  0.26830234209E+02  0.00000000000E+00 0. -1.
         -5    1    3    3    0  503  0.60074942033E+02  0.46447535980E+02  0.22928406138E+02  0.79461777396E+02  0.47000000000E+01 0.  1.
         11    1    4    4    0    0 -0.31292356496E+02  0.44241233847E+02 -0.99270560481E+01  0.55091240585E+02  0.00000000000E+00 0. -1.
        -12    1    4    4    0    0 -0.54365249292E+02  0.60509124179E+02  0.87425957304E+02  0.11941621519E+03  0.00000000000E+00 0.  1.
</event>
<event>
12    1  0.1032880E+000  0.1941116E+03  0.7818608E-02  0.1155297E+00
         21   -1    0    0  503  502  0.00000000000E+00  0.00000000000E+00  0.37897944376E+03  0.37897944376E+03  0.00000000000E+00 0. -1.
         21   -1    0    0  501  503 -0.00000000000E+00 -0.00000000000E+00 -0.10154581937E+03  0.10154581937E+03  0.00000000000E+00 0. -1.
          6    2    1    2  501    0 -0.61490350933E+02 -0.63794368618E+02  0.18101208726E+03  0.26378483969E+03  0.17019483303E+03 0.  0.
         24    2    3    3    0    0 -0.93854640470E+02 -0.16540889941E+02  0.15092626319E+03  0.19891893729E+03  0.87793576717E+02 0.  0.
         -6    2    1    2    0  502  0.61490350933E+02  0.63794368618E+02  0.96421537126E+02  0.21674042343E+03  0.17270933271E+03 0.  0.
        -24    2    5    5    0    0 -0.18469491971E+02  0.36472882893E+01  0.91560747889E+01  0.83892394973E+02  0.81238386143E+02 0.  0.
          5    1    3    3  501    0  0.32364289537E+02 -0.47253478677E+02  0.30085824073E+02  0.64865902402E+02  0.47000000000E+01 0. -1.
        -11    1    4    4    0    0 -0.71573704131E+02 -0.27326863087E+02  0.42314274859E+02  0.87521714026E+02  0.00000000000E+00 0.  1.
         12    1    4    4    0    0 -0.22280936339E+02  0.10785973146E+02  0.10861198833E+03  0.11139722326E+03  0.00000000000E+00 0. -1.
         -5    1    5    5    0  502  0.79959842904E+02  0.60147080329E+02  0.87265462337E+02  0.13284802846E+03  0.47000000000E+01 0.  1.
         13    1    6    6    0    0  0.13093084567E+02 -0.28071993801E+01 -0.30198012988E+02  0.33033758797E+02  0.00000000000E+00 0. -1.
        -14    1    6    6    0    0 -0.31562576539E+02  0.64544876694E+01  0.39354087777E+02  0.50858636175E+02  0.00000000000E+00 0.  1.
</event>
<event>
12    1  0.1032880E+000  0.1927189E+03  0.7818608E-02  0.1156230E+00
         21   -1    0    0  503  502  0.00000000000E+00  0.00000000000E+00  0.64524951180E+03  0.64524951180E+03  0.00000000000E+00 0.  1.
         21   -1    0    0  501  503 -0.00000000000E+00 -0.00000000000E+00 -0.10769601330E+03  0.10769601330E+03  0.00000000000E+00 0.  1.
          6    2    1    2  501    0 -0.84951005760E+02  0.11947026575E+02  0.52666033808E+03  0.56081340354E+03  0.17257217928E+03 0.  0.
         24    2    3    3    0    0 -0.11103032313E+03 -0.18072510244E+02  0.30621389888E+03  0.33675978062E+03  0.83581395654E+02 0.  0.
         -6    2    1    2    0  502  0.84951005760E+02 -0.11947026575E+02  0.10893160428E+02  0.19213212156E+03  0.17157122826E+03 0.  0.
        -24    2    5    5    0    0  0.55534251204E+02 -0.74048186676E+02  0.15098752841E+02  0.12312721926E+03  0.79781907582E+02 0.  0.
          5    1    3    3  501    0  0.26079317370E+02  0.30019536819E+02  0.22044643920E+03  0.22405362292E+03  0.47000000000E+01 0. -1.
        -13    1    4    4    0    0 -0.12201988770E+03 -0.13255839540E+02  0.29780964210E+03  0.32211046740E+03  0.00000000000E+00 0.  1.
         14    1    4    4    0    0  0.10989564571E+02 -0.48166707038E+01  0.84042567744E+01  0.14649313228E+02  0.00000000000E+00 0. -1.
         -5    1    5    5    0  502  0.29416754556E+02  0.62101160101E+02 -0.42055924135E+01  0.69004902304E+02  0.47000000000E+01 0.  1.
         13    1    6    6    0    0  0.13314895540E+02 -0.59774845311E+02  0.38952356809E+02  0.72578265866E+02  0.00000000000E+00 0. -1.
        -14    1    6    6    0    0  0.42219355665E+02 -0.14273341365E+02 -0.23853603968E+02  0.50548953389E+02  0.00000000000E+00 0.  1.
</event>
<event>
12    1  0.1032880E+000  0.1922120E+03  0.7818608E-02  0.1157226E+00
         21   -1    0    0  501  502  0.00000000000E+00  0.00000000000E+00  0.14130472466E+03  0.14130472466E+03  0.00000000000E+00 0.  1.
         21   -1    0    0  502  503 -0.00000000000E+00 -0.00000000000E+00 -0.64271628930E+03  0.64271628930E+03  0.00000000000E+00 0.  1.
         -6    2    1    2    0  503  0.23362767000E+02  0.82842870402E+02 -0.55352689070E+03  0.58486920715E+03  0.16814044928E+03 0.  0.
        -24    2    3    3    0    0 -0.17329779285E+02  0.17515255650E+02 -0.43725867470E+03  0.44535587939E+03  0.80867825923E+02 0.  0.
          6    2    1    2  501    0 -0.23362767000E+02 -0.82842870402E+02  0.52115326067E+02  0.19915180680E+03  0.17186237193E+03 0.  0.
         24    2    5    5    0    0 -0.69520306431E+02 -0.10511431878E+02  0.36313623901E+02  0.11177824538E+03  0.78943863929E+02 0.  0.
          5    1    5    5  501    0  0.46157539431E+02 -0.72331438524E+02  0.15801702166E+02  0.87373561428E+02  0.47000000000E+01 0. -1.
        -13    1    6    6    0    0  0.92184887068E+01 -0.10353351138E+02 -0.12890343359E+02  0.18929695342E+02  0.00000000000E+00 0.  1.
         14    1    6    6    0    0 -0.78738795138E+02 -0.15808073995E+00  0.49203967260E+02  0.92848550034E+02  0.00000000000E+00 0. -1.
         -5    1    3    3    0  503  0.40692546285E+02  0.65327614752E+02 -0.11626821600E+03  0.13951332777E+03  0.47000000000E+01 0.  1.
         11    1    4    4    0    0 -0.25091643544E+02 -0.22354579173E+02 -0.96481381958E+02  0.10216640764E+03  0.00000000000E+00 0. -1.
        -12    1    4    4    0    0  0.77618642591E+01  0.39869834823E+02 -0.34077729274E+03  0.34318947174E+03  0.00000000000E+00 0.  1.
</event>
<event>
12    1  0.1032880E+000  0.2113985E+03  0.7818608E-02  0.1140891E+00
         21   -1    0    0  503  502  0.00000000000E+00  0.00000000000E+00  0.60914222670E+03  0.60914222670E+03  0.00000000000E+00 0. -1.
         21   -1    0    0  501  503 -0.00000000000E+00 -0.00000000000E+00 -0.14358335604E+03  0.14358335604E+03  0.00000000000E+00 0. -1.
          6    2    1    2  501    0  0.11458960215E+03  0.21842522562E+02 -0.32423425241E+02  0.21173048371E+03  0.17369699627E+03 0.  0.
         24    2    3    3    0    0  0.11196933024E+03  0.79632926708E+02 -0.20567940838E+02  0.15249165230E+03  0.62865967733E+02 0.  0.
         -6    2    1    2    0  502 -0.11458960215E+03 -0.21842522562E+02  0.49798229590E+03  0.54099509903E+03  0.17629934040E+03 0.  0.
        -24    2    5    5    0    0  0.85958691245E+01  0.88229328598E+01  0.24493876613E+03  0.25785529531E+03  0.79640574183E+02 0.  0.
          5    1    3    3  501    0  0.26202719027E+01 -0.57790404146E+02 -0.11855484403E+02  0.59238831409E+02  0.47000000000E+01 0. -1.
        -11    1    4    4    0    0  0.54052517807E+02  0.71112012771E+02  0.30293832070E+01  0.89374326315E+02  0.00000000000E+00 0.  1.
         12    1    4    4    0    0  0.57916812436E+02  0.85209139367E+01 -0.23597324045E+02  0.63117325983E+02  0.00000000000E+00 0. -1.
         -5    1    5    5    0  502 -0.12318547127E+03 -0.30665455421E+02  0.25304352978E+03  0.28313980372E+03  0.47000000000E+01 0.  1.
         11    1    6    6    0    0  0.90759777250E+01 -0.11776978786E+02  0.23410243095E+03  0.23457412213E+03  0.00000000000E+00 0. -1.
        -12    1    6    6    0    0 -0.48010860045E+00  0.20599911646E+02  0.10836335181E+02  0.23281173171E+02  0.00000000000E+00 0.  1.
</event>
<event>
12    1  0.1032880E+000  0.2768985E+03  0.7818608E-02  0.1098012E+00
         21   -1    0    0  503  502  0.00000000000E+00  0.00000000000E+00  0.14241865807E+03  0.14241865807E+03  0.00000000000E+00 0. -1.
         21   -1    0    0  501  503 -0.00000000000E+00 -0.00000000000E+00 -0.10750195695E+04  0.10750195695E+04  0.00000000000E+00 0. -1.
          6    2    1    2  501    0 -0.34964084207E+02  0.21813612304E+03 -0.30958680813E+02  0.27423545102E+03  0.15950168437E+03 0.  0.
         24    2    3    3    0    0 -0.28813222079E+02  0.91980516712E+02  0.43995025961E+02  0.12728914017E+03  0.70543218484E+02 0.  0.
         -6    2    1    2    0  502  0.34964084207E+02 -0.21813612304E+03 -0.90164223063E+03  0.94320277657E+03  0.16693385009E+03 0.  0.
        -24    2    5    5    0    0 -0.13699230892E+02 -0.17770012245E+03 -0.50703447587E+03  0.54352721002E+03  0.81073212971E+02 0.  0.
          5    1    3    3  501    0 -0.61508621288E+01  0.12615560633E+03 -0.74953706774E+02  0.14694631085E+03  0.47000000000E+01 0. -1.
        -13    1    4    4    0    0 -0.37975238934E+02  0.63223675758E+02 -0.22368765839E+00  0.73752301554E+02  0.00000000000E+00 0.  1.
         14    1    4    4    0    0  0.91620168550E+01  0.28756840954E+02  0.44218713620E+02  0.53536838613E+02  0.00000000000E+00 0. -1.
         -5    1    5    5    0  502  0.48663315099E+02 -0.40436000596E+02 -0.39460775476E+03  0.39967556655E+03  0.47000000000E+01 0.  1.
         11    1    6    6    0    0  0.16713687217E+02 -0.21508337688E+01 -0.59268677689E+02  0.61617770012E+02  0.00000000000E+00 0. -1.
        -12    1    6    6    0    0 -0.30412918109E+02 -0.17554928868E+03 -0.44776579818E+03  0.48190944000E+03  0.00000000000E+00 0.  1.
</event>
<event>
12    1  0.1032880E+000  0.1810098E+03  0.7818608E-02  0.1167749E+00
         21   -1    0    0  503  502  0.00000000000E+00  0.00000000000E+00  0.31490426186E+03  0.31490426186E+03  0.00000000000E+00 0.  1.
         21   -1    0    0  501  503 -0.00000000000E+00 -0.00000000000E+00 -0.13182093007E+03  0.13182093007E+03  0.00000000000E+00 0.  1.
          6    2    1    2  501    0 -0.17038104468E+02  0.56812432052E+02 -0.14154544887E+02  0.18156237019E+03  0.17101635504E+03 0.  0.
         24    2    3    3    0    0 -0.58634529876E+02  0.10350163589E+02 -0.42049084914E+02  0.11308463395E+03  0.86457358933E+02 0.  0.
         -6    2    1    2    0  502  0.17038104468E+02 -0.56812432052E+02  0.19723787668E+03  0.26516282173E+03  0.16700476818E+03 0.  0.
        -24    2    5    5    0    0  0.46322733128E+02 -0.48594080086E+01  0.18061732715E+03  0.20307386257E+03  0.80292996860E+02 0.  0.
          5    1    3    3  501    0  0.41596425408E+02  0.46462268463E+02  0.27894540028E+02  0.68477736242E+02  0.47000000000E+01 0. -1.
        -13    1    4    4    0    0 -0.49790994152E+02  0.30690112453E+02  0.73358988977E+01  0.58947786334E+02  0.00000000000E+00 0.  1.
         14    1    4    4    0    0 -0.88435357245E+01 -0.20339948864E+02 -0.49384983812E+02  0.54136847618E+02  0.00000000000E+00 0. -1.
         -5    1    5    5    0  502 -0.29284628659E+02 -0.51953024043E+02  0.16620549529E+02  0.62088959160E+02  0.47000000000E+01 0.  1.
         11    1    6    6    0    0  0.28436432929E+02 -0.41945674434E+02  0.84861577705E+02  0.98841072900E+02  0.00000000000E+00 0. -1.
        -12    1    6    6    0    0  0.17886300199E+02  0.37086266425E+02  0.95755749443E+02  0.10423278968E+03  0.00000000000E+00 0.  1.
</event>
<event>
12    1  0.1032880E+000  0.1996500E+03  0.7818608E-02  0.1152704E+00
         21   -1    0    0  503  502  0.00000000000E+00  0.00000000000E+00  0.28596493396E+03  0.28596493396E+03  0.00000000000E+00 0.  1.
         21   -1    0    0  501  503 -0.00000000000E+00 -0.00000000000E+00 -0.13432376709E+03  0.13432376709E+03  0.00000000000E+00 0.  1.
          6    2    1    2  501    0  0.74155466152E+02 -0.25499490158E+01  0.45088613189E+02  0.20467801337E+03  0.18534986032E+03 0.  0.
         24    2    3    3    0    0 -0.28727306794E+02  0.32119506534E+02 -0.19224118133E+02  0.78404288762E+02  0.62615852008E+02 0.  0.
         -6    2    1    2    0  502 -0.74155466152E+02  0.25499490158E+01  0.10655255368E+03  0.21561068768E+03  0.17213072516E+03 0.  0.
        -24    2    5    5    0    0 -0.56663881269E+02 -0.33250862826E+02  0.29087201446E+01  0.10447208997E+03  0.81175991590E+02 0.  0.
          5    1    3    3  501    0  0.10288277295E+03 -0.34669455549E+02  0.64312731321E+02  0.12627372461E+03  0.47000000000E+01 0. -1.
        -11    1    4    4    0    0 -0.17583589146E+02  0.16424605614E+01  0.20534411140E+02  0.27083986501E+02  0.00000000000E+00 0.  1.
         12    1    4    4    0    0 -0.11143717648E+02  0.30477045972E+02 -0.39758529272E+02  0.51320302261E+02  0.00000000000E+00 0. -1.
         -5    1    5    5    0  502 -0.17491584883E+02  0.35800811842E+02  0.10364383354E+03  0.11113859771E+03  0.47000000000E+01 0.  1.
         13    1    6    6    0    0  0.71508640651E+01 -0.21552706835E+02 -0.25063619503E+02  0.33820689694E+02  0.00000000000E+00 0. -1.
        -14    1    6    6    0    0 -0.63814745334E+02 -0.11698155991E+02  0.27972339647E+02  0.70651400276E+02  0.00000000000E+00 0.  1.
</event>
<event>
12    1  0.1032880E+000  0.2236945E+03  0.7818608E-02  0.1131439E+00
         21   -1    0    0  503  502  0.00000000000E+00  0.00000000000E+00  0.24137921097E+03  0.24137921097E+03  0.00000000000E+00 0. -1.
         21   -1    0    0  501  503 -0.00000000000E+00 -0.00000000000E+00 -0.26176678135E+03  0.26176678135E+03  0.00000000000E+00 0. -1.
          6    2    1    2  501    0 -0.13894556204E+03  0.35373580216E+02  0.10606658068E+03  0.24618319813E+03  0.16970235153E+03 0.  0.
         24    2    3    3    0    0 -0.12264979543E+03  0.23737886721E+02  0.14166542431E+03  0.20506982999E+03  0.79862902156E+02 0.  0.
         -6    2    1    2    0  502  0.13894556204E+03 -0.35373580216E+02 -0.12645415106E+03  0.25696279418E+03  0.17170342420E+03 0.  0.
        -24    2    5    5    0    0  0.30605384757E+02 -0.34365805698E+02 -0.21010710017E+01  0.91964648297E+02  0.79595124597E+02 0.  0.
          5    1    3    3  501    0 -0.16295766612E+02  0.11635693496E+02 -0.35598843628E+02  0.41113368145E+02  0.47000000000E+01 0. -1.
        -11    1    4    4    0    0 -0.10021590179E+03 -0.42547827214E+01  0.62575005840E+02  0.11822420016E+03  0.00000000000E+00 0.  1.
         12    1    4    4    0    0 -0.22433893642E+02  0.27992669442E+02  0.79090418471E+02  0.86845629829E+02  0.00000000000E+00 0. -1.
         -5    1    5    5    0  502  0.10834017729E+03 -0.10077745180E+01 -0.12435308006E+03  0.16499814588E+03  0.47000000000E+01 0.  1.
         13    1    6    6    0    0  0.17270811731E+02  0.25202701480E+02  0.30530140316E+01  0.30704690105E+02  0.00000000000E+00 0. -1.
        -14    1    6    6    0    0  0.13334573026E+02 -0.59568507178E+02 -0.51540850334E+01  0.61259958193E+02  0.00000000000E+00 0.  1.
</event>
<event>
12    1  0.1032880E+000  0.3931129E+03  0.7818608E-02  0.1046354E+00
         21   -1    0    0  501  502  0.00000000000E+00  0.00000000000E+00  0.10913283142E+04  0.10913283142E+04  0.00000000000E+00 0. -1.
         21   -1    0    0  502  503 -0.00000000000E+00 -0.00000000000E+00 -0.16339145124E+03  0.16339145124E+03  0.00000000000E+00 0. -1.
         -6    2    1    2    0  503  0.35362835870E+03 -0.31700153702E+02  0.69745498282E+03  0.80061303869E+03  0.16875979627E+03 0.  0.
        -24    2    3    3    0    0  0.21754839931E+03 -0.25595979940E+01  0.55258995900E+03  0.59967799331E+03  0.83211629516E+02 0.  0.
          6    2    1    2  501    0 -0.35362835870E+03  0.31700153702E+02  0.23048188010E+03  0.45410672671E+03  0.16441747586E+03 0.  0.
         24    2    5    5    0    0 -0.23114592886E+03 -0.41475403177E+02  0.14871081349E+03  0.28959166637E+03  0.81239015791E+02 0.  0.
          5    1    5    5  501    0 -0.12248242985E+03  0.73175556878E+02  0.81771066612E+02  0.16451506035E+03  0.47000000000E+01 0. -1.
        -11    1    6    6    0    0 -0.10304179283E+03 -0.46138423469E+02  0.10493155959E+03  0.15413305093E+03  0.00000000000E+00 0.  1.
         12    1    6    6    0    0 -0.12810413603E+03  0.46630202927E+01  0.43779253893E+02  0.13545861544E+03  0.00000000000E+00 0. -1.
         -5    1    3    3    0  503  0.13607995940E+03 -0.29140555708E+02  0.14486502382E+03  0.20093504538E+03  0.47000000000E+01 0.  1.
         13    1    4    4    0    0 -0.37183533955E+01  0.71356528298E+01  0.47303840753E+02  0.47983299628E+02  0.00000000000E+00 0. -1.
        -14    1    4    4    0    0  0.22126675270E+03 -0.96952508237E+01  0.50528611825E+03  0.55169469368E+03  0.00000000000E+00 0.  1.
</event>
<event>
12    1  0.1032880E+000  0.5256630E+03  0.7818608E-02  0.1007376E+00
         21   -1    0    0  503  502  0.00000000000E+00  0.00000000000E+00  0.40037042736E+03  0.40037042736E+03  0.00000000000E+00 0. -1.
         21   -1    0    0  501  503 -0.00000000000E+00 -0.00000000000E+00 -0.94257299611E+03  0.94257299611E+03  0.00000000000E+00 0.  1.
          6    2    1    2  501    0 -0.48490888577E+03 -0.10297688425E+03 -0.61958058875E+03  0.81161592069E+03  0.17058555209E+03 0.  0.
         24    2    3    3    0    0 -0.21281693860E+03 -0.34980926100E+02 -0.18565551924E+03  0.29492400670E+03  0.77443420364E+02 0.  0.
         -6    2    1    2    0  502  0.48490888577E+03  0.10297688425E+03  0.77378019990E+02  0.53132750278E+03  0.17487335716E+03 0.  0.
        -24    2    5    5    0    0  0.30712462504E+03  0.94223270064E+02 -0.13819265873E+02  0.33127025079E+03  0.79658314208E+02 0.  0.
          5    1    3    3  501    0 -0.27209194717E+03 -0.67995958150E+02 -0.43392506951E+03  0.51669191399E+03  0.47000000000E+01 0. -1.
        -11    1    4    4    0    0 -0.18644381120E+03 -0.49803940825E+02 -0.18049235015E+03  0.26423326006E+03  0.00000000000E+00 0.  1.
         12    1    4    4    0    0 -0.26373127404E+02  0.14823014725E+02 -0.51631690854E+01  0.30690746645E+02  0.00000000000E+00 0. -1.
         -5    1    5    5    0  502  0.17778426073E+03  0.87536141862E+01  0.91197285863E+02  0.20005725199E+03  0.47000000000E+01 0.  1.
         13    1    6    6    0    0  0.14639721575E+02 -0.15103659358E+00 -0.18884481618E+02  0.23894934732E+02  0.00000000000E+00 0. -1.
        -14    1    6    6    0    0  0.29248490346E+03  0.94374306657E+02  0.50652157457E+01  0.30737531606E+03  0.00000000000E+00 0.  1.
</event>
<event>
12    1  0.1032880E+000  0.1923880E+03  0.7818608E-02  0.1156405E+00
         21   -1    0    0  501  502  0.00000000000E+00  0.00000000000E+00  0.46714755942E+03  0.46714755942E+03  0.00000000000E+00 0.  1.
         21   -1    0    0  502  503 -0.00000000000E+00 -0.00000000000E+00 -0.10423591570E+03  0.10423591570E+03  0.00000000000E+00 0.  1.
         -6    2    1    2    0  503  0.60716578927E+02 -0.60565701652E+02  0.32192583918E+03  0.37503250930E+03  0.17221623015E+03 0.  0.
        -24    2    3    3    0    0  0.50308916882E+02  0.18067480627E+02  0.24390958631E+03  0.26367667202E+03  0.84711747112E+02 0.  0.
          6    2    1    2  501    0 -0.60716578927E+02  0.60565701652E+02  0.40985804540E+02  0.19635096582E+03  0.17181140367E+03 0.  0.
         24    2    5    5    0    0 -0.94274139829E+02  0.46645622650E+00  0.24563124882E+02  0.12542971653E+03  0.79002757304E+02 0.  0.
          5    1    5    5  501    0  0.33557560903E+02  0.60099245425E+02  0.16422679658E+02  0.70921249295E+02  0.47000000000E+01 0. -1.
        -11    1    6    6    0    0 -0.23688212121E+02 -0.28085423928E+02 -0.14925438648E+02  0.39657170216E+02  0.00000000000E+00 0.  1.
         12    1    6    6    0    0 -0.70585927708E+02  0.28551880154E+02  0.39488563530E+02  0.85772546309E+02  0.00000000000E+00 0. -1.
         -5    1    3    3    0  503  0.10407662045E+02 -0.78633182279E+02  0.78016252865E+02  0.11135583728E+03  0.47000000000E+01 0.  1.
         11    1    4    4    0    0  0.33856989150E+02 -0.28038739506E+02  0.16551156775E+03  0.17124995091E+03  0.00000000000E+00 0. -1.
        -12    1    4    4    0    0  0.16451927732E+02  0.46106220133E+02  0.78398018567E+02  0.92426721116E+02  0.00000000000E+00 0.  1.
</event>
<event>
12    1  0.1032880E+000  0.1836858E+03  0.7818608E-02  0.1164938E+00
         21   -1    0    0  503  502  0.00000000000E+00  0.00000000000E+00  0.35715047823E+03  0.35715047823E+03  0.00000000000E+00 0. -1.
         21   -1    0    0  501  503 -0.00000000000E+00 -0.00000000000E+00 -0.93420602937E+02  0.93420602937E+02  0.00000000000E+00 0. -1.
          6    2    1    2  501    0  0.26657725850E+01  0.57547063828E+02  0.11685019878E+03  0.21538153167E+03  0.17151228624E+03 0.  0.
         24    2    3    3    0    0  0.26683825463E+02  0.99628039221E+02  0.10039234583E+03  0.16399450726E+03  0.78598998524E+02 0.  0.
         -6    2    1    2    0  502 -0.26657725850E+01 -0.57547063828E+02  0.14687967651E+03  0.23518954950E+03  0.17441821557E+03 0.  0.
        -24    2    5    5    0    0 -0.31128233411E+02 -0.28685561546E+02  0.16653619616E+03  0.18989532520E+03  0.80833789635E+02 0.  0.
          5    1    3    3  501    0 -0.24018052878E+02 -0.42080975393E+02  0.16457852948E+02  0.51387024410E+02  0.47000000000E+01 0. -1.
        -13    1    4    4    0    0 -0.21884858374E+02  0.60165574830E+02  0.68485690725E+02  0.93750377358E+02  0.00000000000E+00 0.  1.
         14    1    4    4    0    0  0.48568683837E+02  0.39462464391E+02  0.31906655110E+02  0.70244129902E+02  0.00000000000E+00 0. -1.
         -5    1    5    5    0  502  0.28462460826E+02 -0.28861502282E+02 -0.19656519644E+02  0.45294224298E+02  0.47000000000E+01 0.  1.
         11    1    6    6    0    0 -0.38728814032E+02  0.17110510229E+02  0.10162490416E+03  0.11009228739E+03  0.00000000000E+00 0. -1.
        -12    1    6    6    0    0  0.76005806209E+01 -0.45796071774E+02  0.64911291996E+02  0.79803037814E+02  0.00000000000E+00 0.  1.
</event>
<event>
12    1  0.1032880E+000  0.4897747E+03  0.7818608E-02  0.1016596E+00
         21   -1    0    0  501  502  0.00000000000E+00  0.00000000000E+00  0.12315784752E+04  0.12315784752E+04  0.00000000000E+00 0.  1.
         21   -1    0    0  502  503 -0.00000000000E+00 -0.00000000000E+00 -0.23509599838E+03  0.23509599838E+03  0.00000000000E+00 0.  1.
         -6    2    1    2    0  503  0.45572464693E+03 -0.49657955222E+02  0.19130576486E+03  0.52423680281E+03  0.16755734365E+03 0.  0.
        -24    2    3    3    0    0  0.20373570745E+03 -0.48887484864E+00  0.31043890922E+02  0.22154557016E+03  0.81303376337E+02 0.  0.
          6    2    1    2  501    0 -0.45572464693E+03  0.49657955222E+02  0.80517671195E+03  0.94243767075E+03  0.17241913890E+03 0.  0.
         24    2    5    5    0    0 -0.11565189555E+03  0.34825343781E+02  0.29968424919E+03  0.33300005910E+03  0.80561930435E+02 0.  0.
          5    1    5    5  501    0 -0.34007275138E+03  0.14832611441E+02  0.50549246276E+03  0.60943761166E+03  0.47000000000E+01 0. -1.
        -13    1    6    6    0    0 -0.33646074968E+02  0.51380549637E+02  0.13321821577E+03  0.14669394076E+03  0.00000000000E+00 0.  1.
         14    1    6    6    0    0 -0.82005820581E+02 -0.16555205856E+02  0.16646603341E+03  0.18630611834E+03  0.00000000000E+00 0. -1.
         -5    1    3    3    0  503  0.25198893948E+03 -0.49169080373E+02  0.16026187394E+03  0.30269123265E+03  0.47000000000E+01 0.  1.
         13    1    4    4    0    0  0.17642061796E+03 -0.81763985151E+01  0.54394654624E+02  0.18479682461E+03  0.00000000000E+00 0. -1.
        -14    1    4    4    0    0  0.27315089499E+02  0.76875236665E+01 -0.23350763702E+02  0.36748745556E+02  0.00000000000E+00 0.  1.
</event>
<event>
12    1  0.1032880E+000  0.2491924E+03  0.7818608E-02  0.1114299E+00
         21   -1    0    0  501  502  0.00000000000E+00  0.00000000000E+00  0.86936436752E+03  0.86936436752E+03  0.00000000000E+00 0. -1.
         21   -1    0    0  502  503 -0.00000000000E+00 -0.00000000000E+00 -0.72111419594E+02  0.72111419594E+02  0.00000000000E+00 0. -1.
         -6    2    1    2    0  503  0.58953985136E+02  0.17164668463E+03  0.46995614252E+03  0.53193572080E+03  0.17075912409E+03 0.  0.
        -24    2    3    3    0    0 -0.30147202638E+02  0.69570011381E+02  0.25610840919E+03  0.27873301162E+03  0.79697767835E+02 0.  0.
          6    2    1    2  501    0 -0.58953985136E+02 -0.17164668463E+03  0.32729680540E+03  0.40954006632E+03  0.16631809999E+03 0.  0.
         24    2    5    5    0    0 -0.69987063138E+02 -0.18280495231E+03  0.25435360172E+03  0.33478020602E+03  0.95216553399E+02 0.  0.
          5    1    5    5  501    0  0.11033078003E+02  0.11158267677E+02  0.72943203684E+02  0.74759860295E+02  0.47000000000E+01 0. -1.
        -13    1    6    6    0    0 -0.12111634138E+02 -0.10333020948E+03  0.68616277158E+02  0.12462751447E+03  0.00000000000E+00 0.  1.
         14    1    6    6    0    0 -0.57875429000E+02 -0.79474742827E+02  0.18573732456E+03  0.21015269155E+03  0.00000000000E+00 0. -1.
         -5    1    3    3    0  503  0.89101187774E+02  0.10207667325E+03  0.21384773334E+03  0.25320270918E+03  0.47000000000E+01 0.  1.
         11    1    4    4    0    0  0.43575396583E+01  0.55983653569E+01  0.14971099970E+03  0.14987899546E+03  0.00000000000E+00 0. -1.
        -12    1    4    4    0    0 -0.34504742296E+02  0.63971646024E+02  0.10639740948E+03  0.12885401616E+03  0.00000000000E+00 0.  1.
</event>
<event>
12    1  0.1032880E+000  0.1969520E+03  0.7818608E-02  0.1152636E+00
         21   -1    0    0  503  502  0.00000000000E+00  0.00000000000E+00  0.22927434258E+03  0.22927434258E+03  0.00000000000E+00 0.  1.
         21   -1    0    0  501  503 -0.00000000000E+00 -0.00000000000E+00 -0.20964258004E+03  0.20964258004E+03  0.00000000000E+00 0.  1.
          6    2    1    2  501    0  0.82015600669E+02  0.49152966063E+02 -0.87970111931E+02  0.21570538240E+03  0.17218448994E+03 0.  0.
         24    2    3    3    0    0  0.36155783916E+02 -0.40488183957E+02 -0.39703519001E+02  0.10394486807E+03  0.79256750039E+02 0.  0.
         -6    2    1    2    0  502 -0.82015600669E+02 -0.49152966063E+02  0.10760187448E+03  0.22321154022E+03  0.17059500424E+03 0.  0.
        -24    2    5    5    0    0 -0.97690330619E+02 -0.57092516934E+02  0.13290055049E+03  0.19205312827E+03  0.80117985319E+02 0.  0.
          5    1    3    3  501    0  0.45859816753E+02  0.89641150019E+02 -0.48266592930E+02  0.11176051433E+03  0.47000000000E+01 0. -1.
        -11    1    4    4    0    0 -0.12821915897E+02 -0.41072602036E+02 -0.37617996483E+01  0.43191565170E+02  0.00000000000E+00 0.  1.
         12    1    4    4    0    0  0.48977699813E+02  0.58441807864E+00 -0.35941719353E+02  0.60753302902E+02  0.00000000000E+00 0. -1.
         -5    1    5    5    0  502  0.15674729949E+02  0.79395508717E+01 -0.25298676018E+02  0.31158411951E+02  0.47000000000E+01 0.  1.
         13    1    6    6    0    0 -0.46235737851E+02 -0.17421184687E+02  0.63722850425E+01  0.49818140744E+02  0.00000000000E+00 0. -1.
        -14    1    6    6    0    0 -0.51454592768E+02 -0.39671332247E+02  0.12652826545E+03  0.14223498753E+03  0.00000000000E+00 0.  1.
</event>
<event>
12    1  0.1032880E+000  0.2074441E+03  0.7818608E-02  0.1143634E+00
         21   -1    0    0  503  502  0.00000000000E+00  0.00000000000E+00  0.53552100064E+02  0.53552100064E+02  0.00000000000E+00 0. -1.
         21   -1    0    0  501  503 -0.00000000000E+00 -0.00000000000E+00 -0.84896478209E+03  0.84896478209E+03  0.00000000000E+00 0. -1.
          6    2    1    2  501    0 -0.99417735994E+01 -0.11197120152E+03 -0.29287558884E+03  0.35889992651E+03  0.17434637329E+03 0.  0.
         24    2    3    3    0    0 -0.33090491037E+02 -0.11397702179E+03 -0.12941262360E+03  0.19372693405E+03  0.81833707831E+02 0.  0.
         -6    2    1    2    0  502  0.99417735994E+01  0.11197120152E+03 -0.50253709319E+03  0.54361695565E+03  0.17418230564E+03 0.  0.
        -24    2    5    5    0    0  0.63071914374E+02  0.30216973704E+02 -0.30865689375E+03  0.32654971408E+03  0.80464313979E+02 0.  0.
          5    1    3    3  501    0  0.23148717438E+02  0.20058202633E+01 -0.16346296524E+03  0.16517299246E+03  0.47000000000E+01 0. -1.
        -13    1    4    4    0    0 -0.35953755487E+02 -0.11146068492E+03 -0.13996903165E+03  0.18250338802E+03  0.00000000000E+00 0.  1.
         14    1    4    4    0    0  0.28632644500E+01 -0.25163368644E+01  0.10556408053E+02  0.11223546031E+02  0.00000000000E+00 0. -1.
         -5    1    5    5    0  502 -0.53130140774E+02  0.81754227819E+02 -0.19388019945E+03  0.21706724157E+03  0.47000000000E+01 0.  1.
         11    1    6    6    0    0  0.20748733589E+02 -0.14988931767E+02 -0.19880099647E+03  0.20044204703E+03  0.00000000000E+00 0. -1.
        -12    1    6    6    0    0  0.42323180785E+02  0.45205905470E+02 -0.10985589728E+03  0.12610766705E+03  0.00000000000E+00 0.  1.
</event>
<event>
12    1  0.1032880E+000  0.2035120E+03  0.7818608E-02  0.1147261E+00
         21   -1    0    0  503  502  0.00000000000E+00  0.00000000000E+00  0.97238982082E+03  0.97238982082E+03  0.00000000000E+00 0.  1.
         21   -1    0    0  501  503 -0.00000000000E+00 -0.00000000000E+00 -0.42519142662E+02  0.42519142662E+02  0.00000000000E+00 0. -1.
          6    2    1    2  501    0  0.34572384943E+02 -0.98855710369E+02  0.41446526218E+03  0.46077912273E+03  0.17195419481E+03 0.  0.
         24    2    3    3    0    0 -0.36279943224E+02 -0.95486546605E+02  0.29980069868E+03  0.32586635167E+03  0.76645321840E+02 0.  0.
         -6    2    1    2    0  502 -0.34572384943E+02  0.98855710369E+02  0.51540541598E+03  0.55412984076E+03  0.17449766854E+03 0.  0.
        -24    2    5    5    0    0 -0.87414934117E+02  0.42557475930E+02  0.32615649400E+03  0.34968163051E+03  0.80291186765E+02 0.  0.
          5    1    3    3  501    0  0.70852328166E+02 -0.33691637637E+01  0.11466456350E+03  0.13491277106E+03  0.47000000000E+01 0. -1.
        -13    1    4    4    0    0 -0.34968214941E+02 -0.62814071946E+01  0.56689622484E+02  0.66902506902E+02  0.00000000000E+00 0.  1.
         14    1    4    4    0    0 -0.13117282829E+01 -0.89205139411E+02  0.24311107619E+03  0.25896384477E+03  0.00000000000E+00 0. -1.
         -5    1    5    5    0  502  0.52842549174E+02  0.56298234439E+02  0.18924892197E+03  0.20444821024E+03  0.47000000000E+01 0.  1.
         13    1    6    6    0    0  0.13593262122E+01  0.12598409838E+02  0.27363151328E+01  0.12963607473E+02  0.00000000000E+00 0. -1.
        -14    1    6    6    0    0 -0.88774260329E+02  0.29959066092E+02  0.32342017887E+03  0.33671802304E+03  0.00000000000E+00 0.  1.
</event>
<event>
12    1  0.1032880E+000  0.4156367E+03  0.7818608E-02  0.1038534E+00
         21   -1    0    0  503  502  0.00000000000E+00  0.00000000000E+00  0.50784355923E+03  0.50784355923E+03  0.00000000000E+00 0. -1.
         21   -1    0    0  501  503 -0.00000000000E+00 -0.00000000000E+00 -0.44378401857E+03  0.44378401857E+03  0.00000000000E+00 0. -1.
          6    2    1    2  501    0  0.20266122953E+03  0.31894509307E+03  0.26234690144E+03  0.49111513621E+03  0.17196114088E+03 0.  0.
         24    2    3    3    0    0  0.21384209877E+03  0.31727217673E+03  0.22407542964E+03  0.45093297550E+03  0.82101601053E+02 0.  0.
         -6    2    1    2    0  502 -0.20266122953E+03 -0.31894509307E+03 -0.19828736077E+03  0.46051244159E+03  0.17307884061E+03 0.  0.
        -24    2    5    5    0    0 -0.18217895147E+03 -0.16925004072E+03 -0.99811515882E+02  0.28010259031E+03  0.81611125182E+02 0.  0.
          5    1    3    3  501    0 -0.11180869232E+02  0.16729163398E+01  0.38271471797E+02  0.40182160710E+02  0.47000000000E+01 0. -1.
        -11    1    4    4    0    0  0.59121106683E+02  0.15268669360E+03  0.73624088214E+02  0.17952447751E+03  0.00000000000E+00 0.  1.
         12    1    4    4    0    0  0.15472099208E+03  0.16458548313E+03  0.15045134143E+03  0.27140849800E+03  0.00000000000E+00 0. -1.
         -5    1    5    5    0  502 -0.20482278065E+02 -0.14969505234E+03 -0.98475844889E+02  0.18040985128E+03  0.47000000000E+01 0.  1.
         11    1    6    6    0    0 -0.88360424313E+02 -0.29722915409E+02 -0.42618304296E+02  0.10250529814E+03  0.00000000000E+00 0. -1.
        -12    1    6    6    0    0 -0.93818527156E+02 -0.13952712531E+03 -0.57193211586E+02  0.17759729217E+03  0.00000000000E+00 0.  1.
</event>
<event>
12    1  0.1032880E+000  0.2398379E+03  0.7818608E-02  0.1119917E+00
         21   -1    0    0  501  502  0.00000000000E+00  0.00000000000E+00  0.15197798951E+03  0.15197798951E+03  0.00000000000E+00 0.  1.
         21   -1    0    0  502  503 -0.00000000000E+00 -0.00000000000E+00 -0.49248153862E+03  0.49248153862E+03  0.00000000000E+00 0.  1.
         -6    2    1    2    0  503  0.29787850033E+02  0.16427632918E+03 -0.15145689358E+02  0.24031565265E+03  0.17218650546E+03 0.  0.
        -24    2    3    3    0    0  0.41788412827E+02  0.27181394319E+02  0.23732961080E+02  0.97232899907E+02  0.80036764920E+02 0.  0.
          6    2    1    2  501    0 -0.29787850033E+02 -0.16427632918E+03 -0.32535785975E+03  0.40414387547E+03  0.17204797832E+03 0.  0.
         24    2    5    5    0    0 -0.30318419195E+02 -0.44194353711E+02 -0.36351559185E+02  0.91147559037E+02  0.64141205327E+02 0.  0.
          5    1    5    5  501    0  0.53056916237E+00 -0.12008197547E+03 -0.28900630056E+03  0.31299631644E+03  0.47000000000E+01 0. -1.
        -11    1    6    6    0    0 -0.18517104175E+02  0.12930005157E+02 -0.32257278056E+00  0.22586992575E+02  0.00000000000E+00 0.  1.
         12    1    6    6    0    0 -0.11801315021E+02 -0.57124358867E+02 -0.36028986405E+02  0.68560566462E+02  0.00000000000E+00 0. -1.
         -5    1    3    3    0  503 -0.12000562794E+02  0.13709493486E+03 -0.38878650437E+02  0.14308275274E+03  0.47000000000E+01 0.  1.
         13    1    4    4    0    0  0.62928917682E+02  0.32258997308E+02  0.97542606664E+01  0.71385132830E+02  0.00000000000E+00 0. -1.
        -14    1    4    4    0    0 -0.21140504855E+02 -0.50776029892E+01  0.13978700413E+02  0.25847767077E+02  0.00000000000E+00 0.  1.
</event>
<event>
12    1  0.1032880E+000  0.1888990E+03  0.7818608E-02  0.1159474E+00
         21   -1    0    0  503  502  0.00000000000E+00  0.00000000000E+00  0.16475362082E+03  0.16475362082E+03  0.00000000000E+00 0. -1.
         21   -1    0    0  501  503 -0.00000000000E+00 -0.00000000000E+00 -0.32564902035E+03  0.32564902035E+03  0.00000000000E+00 0. -1.
          6    2    1    2  501    0  0.60762191409E+02 -0.50041368938E+02  0.61516066048E+02  0.19859842704E+03  0.17164185483E+03 0.  0.
         24    2    3    3    0    0  0.54376409027E+02 -0.87400498988E+02  0.50071727909E+01  0.13039411755E+03  0.79886876465E+02 0.  0.
         -6    2    1    2    0  502 -0.60762191409E+02  0.50041368938E+02 -0.22241146557E+03  0.29180421413E+03  0.17171679259E+03 0.  0.
        -24    2    5    5    0    0  0.28218142755E+02 -0.23210619749E+01 -0.10133560542E+03  0.13261634415E+03  0.80725082225E+02 0.  0.
          5    1    3    3  501    0  0.63857823821E+01  0.37359130050E+02  0.56508893257E+02  0.68204309482E+02  0.47000000000E+01 0. -1.
        -11    1    4    4    0    0 -0.18266782882E+02 -0.28073264734E+02 -0.10987113284E+02  0.35249116414E+02  0.00000000000E+00 0.  1.
         12    1    4    4    0    0  0.72643191908E+02 -0.59327234254E+02  0.15994286075E+02  0.95145001140E+02  0.00000000000E+00 0. -1.
         -5    1    5    5    0  502 -0.88980334164E+02  0.52362430913E+02 -0.12107586015E+03  0.15918786999E+03  0.47000000000E+01 0.  1.
         11    1    6    6    0    0  0.16382628307E+02 -0.36270255833E+02 -0.83462415755E+02  0.92465652066E+02  0.00000000000E+00 0. -1.
        -12    1    6    6    0    0  0.11835514447E+02  0.33949193858E+02 -0.17873189666E+02  0.40150692082E+02  0.00000000000E+00 0.  1.
</event>
<event>
12    1  0.1032880E+000  0.2053621E+03  0.7818608E-02  0.1145555E+00
         21   -1    0    0  501  502  0.00000000000E+00  0.00000000000E+00  0.13827552235E+03  0.13827552235E+03  0.00000000000E+00 0. -1.
         21   -1    0    0  502  503 -0.00000000000E+00 -0.00000000000E+00 -0.30666503518E+03  0.30666503518E+03  0.00000000000E+00 0. -1.
         -6    2    1    2    0  503 -0.11052506787E+03 -0.11244427144E+02 -0.60431783255E+02  0.21406913482E+03  0.17271759114E+03 0.  0.
        -24    2    3    3    0    0 -0.17874560104E+02 -0.34407078566E+02  0.18484511005E+02  0.90091328302E+02  0.79192318654E+02 0.  0.
          6    2    1    2  501    0  0.11052506787E+03  0.11244427144E+02 -0.10795772958E+03  0.23087142271E+03  0.17118561469E+03 0.  0.
         24    2    5    5    0    0  0.11574335335E+03  0.33252909429E+02 -0.13433271857E+03  0.19580956537E+03  0.76117191118E+02 0.  0.
          5    1    5    5  501    0 -0.52182854773E+01 -0.22008482286E+02  0.26374988987E+02  0.35061857337E+02  0.47000000000E+01 0. -1.
        -13    1    6    6    0    0 -0.60736760895E+01 -0.79540932708E+01 -0.25311754561E+02  0.27218413987E+02  0.00000000000E+00 0.  1.
         14    1    6    6    0    0  0.12181702944E+03  0.41207002700E+02 -0.10902096401E+03  0.16859115138E+03  0.00000000000E+00 0. -1.
         -5    1    3    3    0  503 -0.92650507765E+02  0.23162651422E+02 -0.78916294260E+02  0.12397780652E+03  0.47000000000E+01 0.  1.
         13    1    4    4    0    0 -0.20515368495E+02 -0.38503648063E+02 -0.22313577955E+02  0.49003132755E+02  0.00000000000E+00 0. -1.
        -14    1    4    4    0    0  0.26408083913E+01  0.40965694969E+01  0.40798088960E+02  0.41088195548E+02  0.00000000000E+00 0.  1.
</event>
<event>
12    1  0.1032880E+000  0.2094296E+03  0.7818608E-02  0.1142022E+00
         21   -1    0    0  501  502  0.00000000000E+00  0.00000000000E+00  0.11650779773E+03  0.11650779773E+03  0.00000000000E+00 0. -1.
         21   -1    0    0  502  503 -0.00000000000E+00 -0.00000000000E+00 -0.37805174437E+03  0.37805174437E+03  0.00000000000E+00 0. -1.
         -6    2    1    2    0  503  0.10312770407E+03 -0.61373861404E+02 -0.11458790631E+03  0.23872822664E+03  0.17163538012E+03 0.  0.
        -24    2    3    3    0    0  0.13296030907E+03 -0.77898849527E+02 -0.10353389599E+03  0.20257106002E+03  0.81049936411E+02 0.  0.
          6    2    1    2  501    0 -0.10312770407E+03  0.61373861404E+02 -0.14695604034E+03  0.25583131547E+03  0.17161442239E+03 0.  0.
         24    2    5    5    0    0 -0.59083933756E+01 -0.16968512468E+02 -0.52917829530E+02  0.99452298309E+02  0.82265566486E+02 0.  0.
          5    1    5    5  501    0 -0.97219310690E+02  0.78342373872E+02 -0.94038210806E+02  0.15637901716E+03  0.47000000000E+01 0. -1.
        -13    1    6    6    0    0 -0.41088793903E+02  0.69101890556E+01 -0.25101243054E+02  0.48642698322E+02  0.00000000000E+00 0.  1.
         14    1    6    6    0    0  0.35180400527E+02 -0.23878701523E+02 -0.27816586476E+02  0.50809599987E+02  0.00000000000E+00 0. -1.
         -5    1    3    3    0  503 -0.29832605004E+02  0.16524988122E+02 -0.11054010319E+02  0.36157166619E+02  0.47000000000E+01 0.  1.
         13    1    4    4    0    0  0.64841779917E+02 -0.43718863840E+02 -0.54987859784E+01  0.78396633381E+02  0.00000000000E+00 0. -1.
        -14    1    4    4    0    0  0.68118529152E+02 -0.34179985687E+02 -0.98035110011E+02  0.12417442664E+03  0.00000000000E+00 0.  1.
</event>
<event>
12    1  0.1032880E+000  0.1739242E+03  0.7818608E-02  0.1174257E+00
         21   -1    0    0  501  502  0.00000000000E+00  0.00000000000E+00  0.76567830291E+02  0.76567830291E+02  0.00000000000E+00 0. -1.
         21   -1    0    0  502  503 -0.00000000000E+00 -0.00000000000E+00 -0.44341494005E+03  0.44341494005E+03  0.00000000000E+00 0. -1.
         -6    2    1    2    0  503 -0.56383052363E+01  0.40013651349E+01 -0.27187731033E+03  0.32181896267E+03  0.17205339711E+03 0.  0.
        -24    2    3    3    0    0 -0.80946666403E+01 -0.18811380023E+02 -0.41710518235E+02  0.90463614267E+02  0.77617694687E+02 0.  0.
          6    2    1    2  501    0  0.56383052363E+01 -0.40013651349E+01 -0.94969799433E+02  0.19816380767E+03  0.17378673844E+03 0.  0.
         24    2    5    5    0    0  0.11418519919E+01 -0.95371845040E+01 -0.13490262686E+03  0.15732774402E+03  0.80380585905E+02 0.  0.
          5    1    5    5  501    0  0.44964532444E+01  0.55358193691E+01  0.39932827429E+02  0.40836063649E+02  0.47000000000E+01 0. -1.
        -13    1    6    6    0    0  0.17734926533E+02  0.54519733622E+01  0.19537928131E+01  0.18656605775E+02  0.00000000000E+00 0.  1.
         14    1    6    6    0    0 -0.16593074542E+02 -0.14989157866E+02 -0.13685641968E+03  0.13867113825E+03  0.00000000000E+00 0. -1.
         -5    1    3    3    0  503  0.24563614040E+01  0.22812745158E+02 -0.23016679209E+03  0.23135534841E+03  0.47000000000E+01 0.  1.
         13    1    4    4    0    0  0.12631979736E+02 -0.31230120788E+02 -0.53775737616E+02  0.63456420579E+02  0.00000000000E+00 0. -1.
        -14    1    4    4    0    0 -0.20726646377E+02  0.12418740765E+02  0.12065219382E+02  0.27007193689E+02  0.00000000000E+00 0.  1.
</event>
<event>
12    1  0.1032880E+000  0.2093554E+03  0.7818608E-02  0.1142295E+00
         21   -1    0    0  501  502  0.00000000000E+00  0.00000000000E+00  0.11217916115E+03  0.11217916115E+03  0.00000000000E+00 0.  1.
         21   -1    0    0  502  503 -0.00000000000E+00 -0.00000000000E+00 -0.47346932753E+03  0.47346932753E+03  0.00000000000E+00 0.  1.
         -6    2    1    2    0  503  0.59787183222E+02 -0.10035463090E+03 -0.30417438355E+03  0.36864177434E+03  0.17242141097E+03 0.  0.
        -24    2    3    3    0    0  0.39097560332E+02 -0.33649612161E+02 -0.54869869529E+02  0.10969689462E+03  0.79760833028E+02 0.  0.
          6    2    1    2  501    0 -0.59787183222E+02  0.10035463090E+03 -0.57115782834E+02  0.21700671434E+03  0.17373584029E+03 0.  0.
         24    2    5    5    0    0  0.15744352297E+02  0.57511921806E+02  0.15087342380E+02  0.10397622345E+03  0.83832698660E+02 0.  0.
          5    1    5    5  501    0 -0.75531535519E+02  0.42842709093E+02 -0.72203125213E+02  0.11303049089E+03  0.47000000000E+01 0. -1.
        -11    1    6    6    0    0  0.11895131241E+02  0.24886197542E+02 -0.34699811636E+02  0.44327123784E+02  0.00000000000E+00 0.  1.
         12    1    6    6    0    0  0.38492210557E+01  0.32625724264E+02  0.49787154016E+02  0.59649099670E+02  0.00000000000E+00 0. -1.
         -5    1    3    3    0  503  0.20689622890E+02 -0.66705018738E+02 -0.24930451402E+03  0.25894487972E+03  0.47000000000E+01 0.  1.
         11    1    4    4    0    0  0.55723507869E+02 -0.17585034553E+02 -0.62298731420E+02  0.85413551068E+02  0.00000000000E+00 0. -1.
        -12    1    4    4    0    0 -0.16625947537E+02 -0.16064577608E+02  0.74288618904E+01  0.24283343555E+02  0.00000000000E+00 0.  1.
</event>
<event>
12    1  0.1032880E+000  0.1757800E+03  0.7818608E-02  0.1172087E+00
         21   -1    0    0  503  502  0.00000000000E+00  0.00000000000E+00  0.37826033753E+03  0.37826033753E+03  0.00000000000E+00 0. -1.
         21   -1    0    0  501  503 -0.00000000000E+00 -0.00000000000E+00 -0.91379921082E+02  0.91379921082E+02  0.00000000000E+00 0. -1.
          6    2    1    2  501    0  0.14070168330E+02  0.27362304284E+02  0.22111483345E+03  0.28247189258E+03  0.17306627400E+03 0.  0.
         24    2    3    3    0    0 -0.49549328180E+02  0.24815384969E+02  0.74000353228E+02  0.12210142328E+03  0.79760679752E+02 0.  0.
         -6    2    1    2    0  502 -0.14070168330E+02 -0.27362304284E+02  0.65765582999E+02  0.18716836603E+03  0.17251150687E+03 0.  0.
        -24    2    5    5    0    0  0.22748639960E+02 -0.19947294433E+02  0.10248087522E+03  0.13443593106E+03  0.81579988966E+02 0.  0.
          5    1    3    3  501    0  0.63619496510E+02  0.25469193146E+01  0.14711448022E+03  0.16037046930E+03  0.47000000000E+01 0. -1.
        -13    1    4    4    0    0 -0.47252119076E+02  0.49351091209E+02  0.68706487695E+02  0.96896204322E+02  0.00000000000E+00 0.  1.
         14    1    4    4    0    0 -0.22972091037E+01 -0.24535706240E+02  0.52938655336E+01  0.25205218956E+02  0.00000000000E+00 0. -1.
         -5    1    5    5    0  502 -0.36818808290E+02 -0.74150098514E+01 -0.36715292219E+02  0.52732434969E+02  0.47000000000E+01 0.  1.
         13    1    6    6    0    0 -0.17658099217E+02 -0.33637265207E+02  0.23506418395E+02  0.44674666024E+02  0.00000000000E+00 0. -1.
        -14    1    6    6    0    0  0.40406739177E+02  0.13689970775E+02  0.78974456823E+02  0.89761265038E+02  0.00000000000E+00 0.  1.
</event>
<event>
12    1  0.1032880E+000  0.1777484E+03  0.7818608E-02  0.1170291E+00
         21   -1    0    0  501  502  0.00000000000E+00  0.00000000000E+00  0.12098328997E+03  0.12098328997E+03  0.00000000000E+00 0.  1.
         21   -1    0    0  502  503 -0.00000000000E+00 -0.00000000000E+00 -0.30889786804E+03  0.30889786804E+03  0.00000000000E+00 0.  1.
         -6    2    1    2    0  503 -0.19477188794E+02  0.44204346702E+02 -0.17972039401E+03  0.25194395883E+03  0.16983213247E+03 0.  0.
        -24    2    3    3    0    0 -0.25876511213E+02 -0.40995534000E+01 -0.18508626632E+03  0.20269864760E+03  0.78379943781E+02 0.  0.
          6    2    1    2  501    0  0.19477188794E+02 -0.44204346702E+02 -0.81941840627E+01  0.17793719919E+03  0.17105881167E+03 0.  0.
         24    2    5    5    0    0 -0.19630362323E+02 -0.66523602453E+02  0.38614377162E+02  0.11281668678E+03  0.80161049673E+02 0.  0.
          5    1    5    5  501    0  0.39107551117E+02  0.22319255751E+02 -0.46808561225E+02  0.65120512403E+02  0.47000000000E+01 0. -1.
        -11    1    6    6    0    0 -0.42337386657E+02 -0.82431872645E+01  0.11459875680E+02  0.44628838163E+02  0.00000000000E+00 0.  1.
         12    1    6    6    0    0  0.22707024333E+02 -0.58280415188E+02  0.27154501482E+02  0.68187848619E+02  0.00000000000E+00 0. -1.
         -5    1    3    3    0  503  0.63993224191E+01  0.48303900102E+02  0.53658723185E+01  0.49245311231E+02  0.47000000000E+01 0.  1.
         11    1    4    4    0    0 -0.37220508014E+02 -0.33608492356E+02 -0.98704816595E+02  0.11071376515E+03  0.00000000000E+00 0. -1.
        -12    1    4    4    0    0  0.11343996802E+02  0.29508938956E+02 -0.86381449729E+02  0.91984882448E+02  0.00000000000E+00 0.  1.
</event>
<event>
12    1  0.1032880E+000  0.3758347E+03  0.7818608E-02  0.1052576E+00
         21   -1    0    0  501  502  0.00000000000E+00  0.00000000000E+00  0.87172412442E+03  0.87172412442E+03  0.00000000000E+00 0.  1.
         21   -1    0    0  502  503 -0.00000000000E+00 -0.00000000000E+00 -0.16299458184E+03  0.16299458184E+03  0.00000000000E+00 0. -1.
         -6    2    1    2    0  503 -0.12055469484E+03 -0.31090207434E+03  0.40151248042E+03  0.54929720632E+03  0.17123555316E+03 0.  0.
        -24    2    3    3    0    0 -0.47106088775E+02 -0.16562091208E+03  0.12293799136E+03  0.22660981922E+03  0.81172595933E+02 0.  0.
          6    2    1    2  501    0  0.12055469484E+03  0.31090207434E+03  0.30721706217E+03  0.48542149994E+03  0.17337293629E+03 0.  0.
         24    2    5    5    0    0  0.90469440765E+02  0.30539664990E+03  0.22655386341E+03  0.39902662830E+03  0.80273056404E+02 0.  0.
          5    1    5    5  501    0  0.30085254079E+02  0.55054244385E+01  0.80663198757E+02  0.86394871635E+02  0.47000000000E+01 0. -1.
        -13    1    6    6    0    0  0.77989358806E+02  0.12498904457E+03  0.11036600178E+03  0.18407948201E+03  0.00000000000E+00 0.  1.
         14    1    6    6    0    0  0.12480081959E+02  0.18040760533E+03  0.11618786163E+03  0.21494714629E+03  0.00000000000E+00 0. -1.
         -5    1    3    3    0  503 -0.73448606068E+02 -0.14528116226E+03  0.27857448905E+03  0.32268738710E+03  0.47000000000E+01 0.  1.
         13    1    4    4    0    0  0.14703167805E+01 -0.85548346750E+02  0.97177584408E+02  0.12947650124E+03  0.00000000000E+00 0. -1.
        -14    1    4    4    0    0 -0.48576405556E+02 -0.80072565331E+02  0.25760406954E+02  0.97133317980E+02  0.00000000000E+00 0.  1.
</event>
<event>
12    1  0.1032880E+000  0.2163470E+03  0.7818608E-02  0.1137603E+00
         21   -1    0    0  501  502  0.00000000000E+00  0.00000000000E+00  0.49849769568E+03  0.49849769568E+03  0.00000000000E+00 0.  1.
         21   -1    0    0  502  503 -0.00000000000E+00 -0.00000000000E+00 -0.91740336428E+02  0.91740336428E+02  0.00000000000E+00 0.  1.
         -6    2    1    2    0  503  0.97979387849E+02  0.76250511369E+02  0.20375885204E+03  0.29356575996E+03  0.17102363786E+03 0.  0.
        -24    2    3    3    0    0  0.69009683153E+02  0.43909943053E+02  0.21953992945E+03  0.24712990578E+03  0.78644708896E+02 0.  0.
          6    2    1    2  501    0 -0.97979387849E+02 -0.76250511369E+02  0.20299850721E+03  0.29667227215E+03  0.17717771362E+03 0.  0.
         24    2    5    5    0    0  0.99700541758E+00 -0.12388524731E+02  0.28047491587E+02  0.85711072804E+02  0.80032847332E+02 0.  0.
          5    1    5    5  501    0 -0.98976393266E+02 -0.63861986639E+02  0.17495101562E+03  0.21096119934E+03  0.47000000000E+01 0. -1.
        -13    1    6    6    0    0  0.13992439445E+02 -0.16369153102E+02 -0.23808985554E+02  0.32103042349E+02  0.00000000000E+00 0.  1.
         14    1    6    6    0    0 -0.12995434028E+02  0.39806283718E+01  0.51856477141E+02  0.53608030455E+02  0.00000000000E+00 0. -1.
         -5    1    3    3    0  503  0.28969704696E+02  0.32340568316E+02 -0.15781077413E+02  0.46435854181E+02  0.47000000000E+01 0.  1.
         13    1    4    4    0    0  0.14993696704E+02 -0.20008169352E+02  0.25015568899E+02  0.35368297514E+02  0.00000000000E+00 0. -1.
        -14    1    4    4    0    0  0.54015986449E+02  0.63918112405E+02  0.19452436056E+03  0.21176160827E+03  0.00000000000E+00 0.  1.
</event>
<event>
12    1  0.1032880E+000  0.4092116E+03  0.7818608E-02  0.1040670E+00
         21   -1    0    0  501  502  0.00000000000E+00  0.00000000000E+00  0.72156533806E+02  0.72156533806E+02  0.00000000000E+00 0. -1.
         21   -1    0    0  502  503 -0.00000000000E+00 -0.00000000000E+00 -0.24728294065E+04  0.24728294065E+04  0.00000000000E+00 0. -1.
         -6    2    1    2    0  503  0.23838789802E+03 -0.28482661335E+03 -0.15188543639E+04  0.15730139053E+04  0.17175324664E+03 0.  0.
        -24    2    3    3    0    0  0.20748772480E+03 -0.14737632450E+03 -0.93164873226E+03  0.96912654285E+03  0.80411185692E+02 0.  0.
          6    2    1    2  501    0 -0.23838789802E+03  0.28482661335E+03 -0.88181850876E+03  0.97197203504E+03  0.17079451079E+03 0.  0.
         24    2    5    5    0    0 -0.18767336396E+03  0.12371853137E+03 -0.55330851374E+03  0.60255535313E+03  0.79969217005E+02 0.  0.
          5    1    5    5  501    0 -0.50714534058E+02  0.16110808198E+03 -0.32850999502E+03  0.36941668191E+03  0.47000000000E+01 0. -1.
        -11    1    6    6    0    0 -0.14842260184E+03  0.12390550363E+03 -0.39963348170E+03  0.44394680116E+03  0.00000000000E+00 0.  1.
         12    1    6    6    0    0 -0.39250762114E+02 -0.18697226205E+00 -0.15367503204E+03  0.15860855197E+03  0.00000000000E+00 0. -1.
         -5    1    3    3    0  503  0.30900173218E+02 -0.13745028884E+03 -0.58720563167E+03  0.60388736241E+03  0.47000000000E+01 0.  1.
         11    1    4    4    0    0  0.17646870026E+03 -0.10262150584E+03 -0.61959921900E+03  0.65236153153E+03  0.00000000000E+00 0. -1.
        -12    1    4    4    0    0  0.31019024535E+02 -0.44754818658E+02 -0.31204951325E+03  0.31676501132E+03  0.00000000000E+00 0.  1.
</event>
<event>
12    1  0.1032880E+000  0.2465292E+03  0.7818608E-02  0.1117053E+00
         21   -1    0    0  501  502  0.00000000000E+00  0.00000000000E+00  0.35984587751E+03  0.35984587751E+03  0.00000000000E+00 0.  1.
         21   -1    0    0  502  503 -0.00000000000E+00 -0.00000000000E+00 -0.16375551600E+03  0.16375551600E+03  0.00000000000E+00 0.  1.
         -6    2    1    2    0  503 -0.17829242860E+03  0.45443292102E+01  0.73750945102E+02  0.24838589590E+03  0.15635699650E+03 0.  0.
        -24    2    3    3    0    0 -0.58032201704E+02 -0.13902858518E+02 -0.98583200475E+01  0.10068545539E+03  0.80494400698E+02 0.  0.
          6    2    1    2  501    0  0.17829242860E+03 -0.45443292102E+01  0.12233941641E+03  0.27521549760E+03  0.17019928404E+03 0.  0.
         24    2    5    5    0    0  0.36862509927E+02 -0.46958543210E+02  0.36317691574E+02  0.10426750964E+03  0.77387269148E+02 0.  0.
          5    1    5    5  501    0  0.14142991868E+03  0.42414214000E+02  0.86021724833E+02  0.17094798797E+03  0.47000000000E+01 0. -1.
        -11    1    6    6    0    0  0.38529794218E+02  0.86336713329E+01  0.33820731923E+01  0.39629833992E+02  0.00000000000E+00 0.  1.
         12    1    6    6    0    0 -0.16672842905E+01 -0.55592214543E+02  0.32935618382E+02  0.64637675646E+02  0.00000000000E+00 0. -1.
         -5    1    3    3    0  503 -0.12026022690E+03  0.18447187728E+02  0.83609265149E+02  0.14770044051E+03  0.47000000000E+01 0.  1.
         11    1    4    4    0    0 -0.51277616170E+02  0.84773433787E+01 -0.37791414186E+02  0.64260798758E+02  0.00000000000E+00 0. -1.
        -12    1    4    4    0    0 -0.67545855336E+01 -0.22380201897E+02  0.27933094139E+02  0.36424656633E+02  0.00000000000E+00 0.  1.
</event>
<event>
12    1  0.1032880E+000  0.2275208E+03  0.7818608E-02  0.1128441E+00
         21   -1    0    0  501  502  0.00000000000E+00  0.00000000000E+00  0.59933603575E+02  0.59933603575E+02  0.00000000000E+00 0. -1.
         21   -1    0    0  502  503 -0.00000000000E+00 -0.00000000000E+00 -0.93495408723E+03  0.93495408723E+03  0.00000000000E+00 0. -1.
         -6    2    1    2    0  503  0.82970783728E+02  0.12289060295E+03 -0.57549518501E+03  0.61874795603E+03  0.17224422742E+03 0.  0.
        -24    2    3    3    0    0  0.11882500293E+03  0.93887341339E+02 -0.51334816653E+03  0.54121695497E+03  0.80344496326E+02 0.  0.
          6    2    1    2  501    0 -0.82970783728E+02 -0.12289060295E+03 -0.29952529865E+03  0.37613973477E+03  0.17256721677E+03 0.  0.
         24    2    5    5    0    0 -0.33817047797E+02 -0.14821284628E+03 -0.23155368600E+03  0.28839273546E+03  0.80265931998E+02 0.  0.
          5    1    5    5  501    0 -0.49153735931E+02  0.25322243335E+02 -0.67971612642E+02  0.87746999314E+02  0.47000000000E+01 0. -1.
        -11    1    6    6    0    0 -0.57915113981E+02 -0.74701715773E+02 -0.12474936519E+03  0.15651489029E+03  0.00000000000E+00 0.  1.
         12    1    6    6    0    0  0.24098066184E+02 -0.73511130509E+02 -0.10680432082E+03  0.13187784517E+03  0.00000000000E+00 0. -1.
         -5    1    3    3    0  503 -0.35854219203E+02  0.29003261608E+02 -0.62147018481E+02  0.77531001055E+02  0.47000000000E+01 0.  1.
         13    1    4    4    0    0  0.35618667606E+02  0.24201208222E+02 -0.53209945268E+02  0.68452072554E+02  0.00000000000E+00 0. -1.
        -14    1    4    4    0    0  0.83206335325E+02  0.69686133117E+02 -0.46013822126E+03  0.47276488242E+03  0.00000000000E+00 0.  1.
</event>
<event>
12    1  0.1032880E+000  0.2104611E+03  0.7818608E-02  0.1141670E+00
         21   -1    0    0  501  502  0.00000000000E+00  0.00000000000E+00  0.24364203607E+03  0.24364203607E+03  0.00000000000E+00 0.  1.
         21   -1    0    0  502  503 -0.00000000000E+00 -0.00000000000E+00 -0.22253768894E+03  0.22253768894E+03  0.00000000000E+00 0.  1.
         -6    2    1    2    0  503 -0.19840760493E+02 -0.11459962107E+03 -0.91584931703E+02  0.22952484761E+03  0.17540560718E+03 0.  0.
        -24    2    3    3    0    0 -0.51230178380E+02 -0.12725146691E+03 -0.33764780301E+02  0.16236366338E+03  0.80027693894E+02 0.  0.
          6    2    1    2  501    0  0.19840760493E+02  0.11459962107E+03  0.11268927883E+03  0.23665487740E+03  0.17256861971E+03 0.  0.
         24    2    5    5    0    0  0.75821286095E+02  0.94107110757E+02  0.97938661412E+02  0.17506402630E+03  0.80314483028E+02 0.  0.
          5    1    5    5  501    0 -0.55980525602E+02  0.20492510308E+02  0.14750617422E+02  0.61590851104E+02  0.47000000000E+01 0. -1.
        -13    1    6    6    0    0  0.62737431261E+02  0.85873575433E+02  0.11179817186E+03  0.15430193606E+03  0.00000000000E+00 0.  1.
         14    1    6    6    0    0  0.13083854834E+02  0.82335353246E+01 -0.13859510450E+02  0.20762090241E+02  0.00000000000E+00 0. -1.
         -5    1    3    3    0  503  0.31389417887E+02  0.12651845845E+02 -0.57820151402E+02  0.67161184227E+02  0.47000000000E+01 0.  1.
         11    1    4    4    0    0 -0.37968518625E+02 -0.79622019842E+02 -0.59717853156E+02  0.10652462831E+03  0.00000000000E+00 0. -1.
        -12    1    4    4    0    0 -0.13261659756E+02 -0.47629447069E+02  0.25953072854E+02  0.55839035075E+02  0.00000000000E+00 0.  1.
</event>
<event>
12    1  0.1032880E+000  0.1828821E+03  0.7818608E-02  0.1165280E+00
         21   -1    0    0  501  502  0.00000000000E+00  0.00000000000E+00  0.17000183139E+03  0.17000183139E+03  0.00000000000E+00 0.  1.
         21   -1    0    0  502  503 -0.00000000000E+00 -0.00000000000E+00 -0.21595035990E+03  0.21595035990E+03  0.00000000000E+00 0.  1.
         -6    2    1    2    0  503  0.50588214655E+02  0.31455520095E+02  0.36224804276E+02  0.18545698976E+03  0.17185296447E+03 0.  0.
        -24    2    3    3    0    0 -0.41250313980E+01 -0.40613722415E+02  0.12400405454E+01  0.88330583961E+02  0.78321542566E+02 0.  0.
          6    2    1    2  501    0 -0.50588214655E+02 -0.31455520095E+02 -0.82173332796E+02  0.20049520153E+03  0.17290821845E+03 0.  0.
         24    2    5    5    0    0  0.69704739439E+01 -0.27543228705E+02 -0.10842528382E+03  0.13693764030E+03  0.78668025305E+02 0.  0.
          5    1    5    5  501    0 -0.57558688599E+02 -0.39122913907E+01  0.26251951024E+02  0.63557561232E+02  0.47000000000E+01 0. -1.
        -11    1    6    6    0    0  0.28622141957E+02 -0.44834237759E+02 -0.53629712515E+02  0.75534640729E+02  0.00000000000E+00 0.  1.
         12    1    6    6    0    0 -0.21651668013E+02  0.17291009054E+02 -0.54795571304E+02  0.61402999572E+02  0.00000000000E+00 0. -1.
         -5    1    3    3    0  503  0.54713246053E+02  0.72069242510E+02  0.34984763731E+02  0.97126405797E+02  0.47000000000E+01 0.  1.
         13    1    4    4    0    0  0.10695398433E+02  0.21230747220E+02  0.61213500604E+01  0.24548056985E+02  0.00000000000E+00 0. -1.
        -14    1    4    4    0    0 -0.14820429832E+02 -0.61844469635E+02 -0.48813095150E+01  0.63782526976E+02  0.00000000000E+00 0.  1.
</event>
<event>
12    1  0.1032880E+000  0.2049771E+03  0.7818608E-02  0.1145753E+00
         21   -1    0    0  503  502  0.00000000000E+00  0.00000000000E+00  0.27098345337E+03  0.27098345337E+03  0.00000000000E+00 0.  1.
         21   -1    0    0  501  503 -0.00000000000E+00 -0.00000000000E+00 -0.15904596262E+03  0.15904596262E+03  0.00000000000E+00 0.  1.
          6    2    1    2  501    0 -0.10108171501E+03  0.26311421622E+02  0.92392026537E+02  0.22483745411E+03  0.17636833669E+03 0.  0.
         24    2    3    3    0    0 -0.48433473599E+02 -0.53860196565E+02  0.63853939684E+02  0.12465842393E+03  0.78839551656E+02 0.  0.
         -6    2    1    2    0  502  0.10108171501E+03 -0.26311421622E+02  0.19545464209E+02  0.20519196188E+03  0.17553322201E+03 0.  0.
        -24    2    5    5    0    0  0.13129936126E+03 -0.38595046840E+02 -0.84660210389E+01  0.16194006135E+03  0.86161534630E+02 0.  0.
          5    1    3    3  501    0 -0.52648241413E+02  0.80171618187E+02  0.28538086853E+02  0.10017903018E+03  0.47000000000E+01 0. -1.
        -13    1    4    4    0    0  0.63372758846E+01 -0.55223539713E+01 -0.14982987338E+02  0.17179853567E+02  0.00000000000E+00 0.  1.
         14    1    4    4    0    0 -0.54770749483E+02 -0.48337842594E+02  0.78836927021E+02  0.10747857037E+03  0.00000000000E+00 0. -1.
         -5    1    5    5    0  502 -0.30217646251E+02  0.12283625219E+02  0.28011485248E+02  0.43251900527E+02  0.47000000000E+01 0.  1.
         11    1    6    6    0    0  0.66221340461E+02 -0.23906855135E+02  0.38602004935E+02  0.80292704774E+02  0.00000000000E+00 0. -1.
        -12    1    6    6    0    0  0.65078020801E+02 -0.14688191706E+02 -0.47068025974E+02  0.81647356577E+02  0.00000000000E+00 0.  1.
</event>
<event>
12    1  0.1032880E+000  0.2934619E+03  0.7818608E-02  0.1090377E+00
         21   -1    0    0  503  502  0.00000000000E+00  0.00000000000E+00  0.56247697642E+03  0.56247697642E+03  0.00000000000E+00 0.  1.
         21   -1    0    0  501  503 -0.00000000000E+00 -0.00000000000E+00 -0.17079588237E+03  0.17079588237E+03  0.00000000000E+00 0.  1.
          6    2    1    2  501    0 -0.11904375291E+03 -0.19840515611E+03  0.33956523000E+03  0.44880331824E+03  0.18050997745E+03 0.  0.
         24    2    3    3    0    0 -0.14651630867E+03 -0.11544778729E+03  0.20556214198E+03  0.28875462577E+03  0.79550106171E+02 0.  0.
         -6    2    1    2    0  502  0.11904375291E+03  0.19840515611E+03  0.52115864046E+02  0.28446954056E+03  0.15706952327E+03 0.  0.
        -24    2    5    5    0    0  0.98467024283E+02  0.18925896384E+03  0.89099241418E+02  0.24091595522E+03  0.67728224492E+02 0.  0.
          5    1    3    3  501    0  0.27472555759E+02 -0.82957368824E+02  0.13400308802E+03  0.16004869247E+03  0.47000000000E+01 0. -1.
        -13    1    4    4    0    0 -0.35571736318E+02 -0.76995960386E+02  0.75773528730E+02  0.11373369772E+03  0.00000000000E+00 0.  1.
         14    1    4    4    0    0 -0.11094457235E+03 -0.38451826900E+02  0.12978861325E+03  0.17502092805E+03  0.00000000000E+00 0. -1.
         -5    1    5    5    0  502  0.20576728629E+02  0.91461922718E+01 -0.36983377372E+02  0.43553585340E+02  0.47000000000E+01 0.  1.
         11    1    6    6    0    0  0.91497812592E+02  0.10810110342E+03  0.46978137994E+02  0.14921341668E+03  0.00000000000E+00 0. -1.
        -12    1    6    6    0    0  0.69692116903E+01  0.81157860423E+02  0.42121103424E+02  0.91702538534E+02  0.00000000000E+00 0.  1.
</event>
<event>
12    1  0.1032880E+000  0.2881168E+03  0.7818608E-02  0.1091931E+00
         21   -1    0    0  501  502  0.00000000000E+00  0.00000000000E+00  0.74799385421E+03  0.74799385421E+03  0.00000000000E+00 0.  1.
         21   -1    0    0  502  503 -0.00000000000E+00 -0.00000000000E+00 -0.11433767986E+03  0.11433767986E+03  0.00000000000E+00 0.  1.
         -6    2    1    2    0  503 -0.17839491397E+03  0.14118027320E+03  0.22360287727E+03  0.36117787010E+03  0.16939478226E+03 0.  0.
        -24    2    3    3    0    0 -0.13434586362E+03  0.17008158906E+03  0.17900174099E+03  0.29199003698E+03  0.78993673181E+02 0.  0.
          6    2    1    2  501    0  0.17839491397E+03 -0.14118027320E+03  0.41005329708E+03  0.50115366397E+03  0.17678991371E+03 0.  0.
         24    2    5    5    0    0  0.14159374291E+03 -0.40851188866E+02  0.17380964350E+03  0.24182104895E+03  0.80932193097E+02 0.  0.
          5    1    5    5  501    0  0.36801171063E+02 -0.10032908433E+03  0.23624365358E+03  0.25933261502E+03  0.47000000000E+01 0. -1.
        -13    1    6    6    0    0  0.68596460009E+02  0.19595931966E+02  0.56462512995E+02  0.90980713610E+02  0.00000000000E+00 0.  1.
         14    1    6    6    0    0  0.72997282897E+02 -0.60447120833E+02  0.11734713051E+03  0.15084033534E+03  0.00000000000E+00 0. -1.
         -5    1    3    3    0  503 -0.44049050343E+02 -0.28901315867E+02  0.44601136277E+02  0.69187833123E+02  0.47000000000E+01 0.  1.
         13    1    4    4    0    0 -0.79812842939E+02  0.84307937419E+02  0.46658403060E+02  0.12511964189E+03  0.00000000000E+00 0. -1.
        -14    1    4    4    0    0 -0.54533020686E+02  0.85773651646E+02  0.13234333793E+03  0.16687039509E+03  0.00000000000E+00 0.  1.
</event>
<event>
12    1  0.1301996E+000  0.2870913E+03  0.7818608E-02  0.1091988E+00
         21   -1    0    0  501  502  0.00000000000E+00  0.00000000000E+00  0.72593161417E+03  0.72593161417E+03  0.00000000000E+00 0. -1.
         21   -1    0    0  502  503 -0.00000000000E+00 -0.00000000000E+00 -0.67291376695E+03  0.67291376695E+03  0.00000000000E+00 0. -1.
         -6    2    1    2    0  503 -0.17959506601E+03 -0.14151000997E+03  0.66439605837E+03  0.72377034814E+03  0.17361429613E+03 0.  0.
        -24    2    3    3    0    0 -0.30985995598E+02 -0.81370432639E+01  0.18065782130E+03  0.20041790853E+03  0.80645807475E+02 0.  0.
          6    2    1    2  501    0  0.17959506601E+03  0.14151000997E+03 -0.61137821115E+03  0.67507503298E+03  0.17223098566E+03 0.  0.
         24    2    5    5    0    0  0.47836868725E+02  0.53376611783E+02 -0.12524482953E+03  0.16372830799E+03  0.77351553433E+02 0.  0.
          5    1    5    5  501    0  0.13175819728E+03  0.88133398187E+02 -0.48613338163E+03  0.51134672499E+03  0.47000000000E+01 0. -1.
        -13    1    6    6    0    0  0.63719228068E+02  0.25288893361E+02 -0.10575795318E+03  0.12603337976E+03  0.00000000000E+00 0.  1.
         14    1    6    6    0    0 -0.15882359343E+02  0.28087718423E+02 -0.19486876353E+02  0.37694928233E+02  0.00000000000E+00 0. -1.
         -5    1    3    3    0  503 -0.14860907041E+03 -0.13337296671E+03  0.48373823706E+03  0.52335243962E+03  0.47000000000E+01 0.  1.
         11    1    4    4    0    0 -0.35587238621E+02  0.23189059001E+02  0.48274694844E+02  0.64301089978E+02  0.00000000000E+00 0. -1.
        -12    1    4    4    0    0  0.46012430228E+01 -0.31326102265E+02  0.13238312646E+03  0.13611681855E+03  0.00000000000E+00 0.  1.
</event>
<event>
12    1  0.1032880E+000  0.2281314E+03  0.7818608E-02  0.1129588E+00
         21   -1    0    0  501  502  0.00000000000E+00  0.00000000000E+00  0.28619404813E+02  0.28619404813E+02  0.00000000000E+00 0. -1.
         21   -1    0    0  502  503 -0.00000000000E+00 -0.00000000000E+00 -0.19047751498E+04  0.19047751498E+04  0.00000000000E+00 0. -1.
         -6    2    1    2    0  503  0.32501508954E+02  0.13534425049E+03 -0.67785992287E+03  0.71521885730E+03  0.18074712881E+03 0.  0.
        -24    2    3    3    0    0  0.30478908011E+02  0.99560703076E+01 -0.15456035462E+03  0.17708242963E+03  0.80257065085E+02 0.  0.
          6    2    1    2  501    0 -0.32501508954E+02 -0.13534425049E+03 -0.11982958221E+04  0.12181756973E+04  0.16930663898E+03 0.  0.
         24    2    5    5    0    0 -0.40145354340E+01 -0.11621089985E+03 -0.11509962057E+04  0.11595503062E+04  0.79016184234E+02 0.  0.
          5    1    5    5  501    0 -0.28486973520E+02 -0.19133350641E+02 -0.47299616353E+02  0.58625391037E+02  0.47000000000E+01 0. -1.
        -11    1    6    6    0    0 -0.39441389263E+02 -0.43626026396E+02 -0.55463805272E+03  0.55774745440E+03  0.00000000000E+00 0.  1.
         12    1    6    6    0    0  0.35426853829E+02 -0.72584873453E+02 -0.59635815301E+03  0.60180285184E+03  0.00000000000E+00 0. -1.
         -5    1    3    3    0  503  0.20226009433E+01  0.12538818018E+03 -0.52329956825E+03  0.53813642766E+03  0.47000000000E+01 0.  1.
         13    1    4    4    0    0  0.60077063680E+01 -0.27588642680E+01 -0.14875354542E+03  0.14890037321E+03  0.00000000000E+00 0. -1.
        -14    1    4    4    0    0  0.24471201643E+02  0.12714934576E+02 -0.58068091980E+01  0.28182056422E+02  0.00000000000E+00 0.  1.
</event>
<event>
12    1  0.1032880E+000  0.2582137E+03  0.7818608E-02  0.1108616E+00
         21   -1    0    0  501  502  0.00000000000E+00  0.00000000000E+00  0.10544812390E+03  0.10544812390E+03  0.00000000000E+00 0.  1.
         21   -1    0    0  502  503 -0.00000000000E+00 -0.00000000000E+00 -0.88636704209E+03  0.88636704209E+03  0.00000000000E+00 0.  1.
         -6    2    1    2    0  503  0.98317956884E+02 -0.16258503735E+03 -0.12306067909E+03  0.28603890352E+03  0.17485424952E+03 0.  0.
        -24    2    3    3    0    0  0.86170207242E+02 -0.16583336776E+03 -0.47437004174E+02  0.20923298136E+03  0.81253680800E+02 0.  0.
          6    2    1    2  501    0 -0.98317956884E+02  0.16258503735E+03 -0.65785823911E+03  0.70577626246E+03  0.17100396160E+03 0.  0.
         24    2    5    5    0    0  0.16626327921E+02  0.59615897101E+02 -0.23797387764E+03  0.25840639373E+03  0.79446887362E+02 0.  0.
          5    1    5    5  501    0 -0.11494428481E+03  0.10296914025E+03 -0.41988436146E+03  0.44736986874E+03  0.47000000000E+01 0. -1.
        -11    1    6    6    0    0 -0.14568573370E+02 -0.30113916767E+01 -0.58809907415E+01  0.15996807868E+02  0.00000000000E+00 0.  1.
         12    1    6    6    0    0  0.31194901291E+02  0.62627288777E+02 -0.23209288690E+03  0.24240958586E+03  0.00000000000E+00 0. -1.
         -5    1    3    3    0  503  0.12147749642E+02  0.32483304077E+01 -0.75623674918E+02  0.76805922167E+02  0.47000000000E+01 0.  1.
         11    1    4    4    0    0  0.76465816641E+02 -0.16036372087E+03 -0.18978750516E+02  0.17867214964E+03  0.00000000000E+00 0. -1.
        -12    1    4    4    0    0  0.97043906002E+01 -0.54696468923E+01 -0.28458253658E+02  0.30560831718E+02  0.00000000000E+00 0.  1.
</event>
<event>
12    1  0.1032880E+000  0.3111045E+03  0.7818608E-02  0.1080135E+00
         21   -1    0    0  503  502  0.00000000000E+00  0.00000000000E+00  0.94211047676E+03  0.94211047676E+03  0.00000000000E+00 0. -1.
         21   -1    0    0  501  503 -0.00000000000E+00 -0.00000000000E+00 -0.17465956951E+03  0.17465956951E+03  0.00000000000E+00 0.  1.
          6    2    1    2  501    0  0.24228256576E+03  0.92524145381E+02  0.22273596769E+02  0.30925828021E+03  0.16698206975E+03 0.  0.
         24    2    3    3    0    0  0.10919929626E+03  0.74304422545E+02 -0.42944145792E+02  0.15986430823E+03  0.79162894552E+02 0.  0.
         -6    2    1    2    0  502 -0.24228256576E+03 -0.92524145381E+02  0.74517731049E+03  0.80751176606E+03  0.17182685795E+03 0.  0.
        -24    2    5    5    0    0 -0.55086372599E+02 -0.71062348231E+02  0.25326804163E+03  0.28072922814E+03  0.81116168792E+02 0.  0.
          5    1    3    3  501    0  0.13308326950E+03  0.18219722836E+02  0.65217742561E+02  0.14939397198E+03  0.47000000000E+01 0. -1.
        -11    1    4    4    0    0  0.85365923048E+02  0.18734823234E+02 -0.47054962314E+02  0.99259779859E+02  0.00000000000E+00 0.  1.
         12    1    4    4    0    0  0.23833373213E+02  0.55569599311E+02  0.41108165216E+01  0.60604528368E+02  0.00000000000E+00 0. -1.
         -5    1    5    5    0  502 -0.18719619316E+03 -0.21461797150E+02  0.49190926886E+03  0.52678253792E+03  0.47000000000E+01 0.  1.
         11    1    6    6    0    0 -0.62837880525E+02 -0.81745053513E+02  0.24312112946E+03  0.26408092811E+03  0.00000000000E+00 0. -1.
        -12    1    6    6    0    0  0.77515079254E+01  0.10682705282E+02  0.10146912169E+02  0.16648300028E+02  0.00000000000E+00 0.  1.
</event>
<event>
12    1  0.1032880E+000  0.2347373E+03  0.7818608E-02  0.1123535E+00
         21   -1    0    0  501  502  0.00000000000E+00  0.00000000000E+00  0.24143455291E+02  0.24143455291E+02  0.00000000000E+00 0. -1.
         21   -1    0    0  502  503 -0.00000000000E+00 -0.00000000000E+00 -0.23078400153E+04  0.23078400153E+04  0.00000000000E+00 0. -1.
         -6    2    1    2    0  503 -0.15720188263E+03  0.17597549857E+02 -0.99861847673E+03  0.10258364612E+04  0.17343436027E+03 0.  0.
        -24    2    3    3    0    0 -0.82986143396E+02  0.75948445307E+02 -0.66187274815E+03  0.67607571627E+03  0.79674168008E+02 0.  0.
          6    2    1    2  501    0  0.15720188263E+03 -0.17597549857E+02 -0.12850780833E+04  0.13061470094E+04  0.17196576535E+03 0.  0.
         24    2    5    5    0    0  0.13657450927E+03 -0.36173046206E+02 -0.12540886786E+04  0.12642785153E+04  0.75502745754E+02 0.  0.
          5    1    5    5  501    0  0.20627373363E+02  0.18575496349E+02 -0.30989404617E+02  0.41868494062E+02  0.47000000000E+01 0. -1.
        -11    1    6    6    0    0  0.36358129351E+02 -0.28347117938E+02 -0.19260645180E+03  0.19804726189E+03  0.00000000000E+00 0.  1.
         12    1    6    6    0    0  0.10021637992E+03 -0.78259282675E+01 -0.10614822268E+04  0.10662312535E+04  0.00000000000E+00 0. -1.
         -5    1    3    3    0  503 -0.74215739234E+02 -0.58350895451E+02 -0.33674572857E+03  0.34976074488E+03  0.47000000000E+01 0.  1.
         11    1    4    4    0    0 -0.77427604990E+02  0.77994890354E+02 -0.66101713418E+03  0.67009095548E+03  0.00000000000E+00 0. -1.
        -12    1    4    4    0    0 -0.55585384065E+01 -0.20464450469E+01 -0.85561397751E+00  0.59847607993E+01  0.00000000000E+00 0.  1.
</event>
<event>
12    1  0.1032880E+000  0.2579319E+03  0.7818608E-02  0.1108396E+00
         21   -1    0    0  501  502  0.00000000000E+00  0.00000000000E+00  0.29676625113E+03  0.29676625113E+03  0.00000000000E+00 0. -1.
         21   -1    0    0  502  503 -0.00000000000E+00 -0.00000000000E+00 -0.25386819523E+03  0.25386819523E+03  0.00000000000E+00 0. -1.
         -6    2    1    2    0  503  0.17700070612E+03  0.74573319545E+02  0.11563219323E+03  0.28264359667E+03  0.17212253969E+03 0.  0.
        -24    2    3    3    0    0  0.20173884703E+03  0.76585108234E+02  0.11533467222E+03  0.25738094779E+03  0.79868795327E+02 0.  0.
          6    2    1    2  501    0 -0.17700070612E+03 -0.74573319545E+02 -0.72734137330E+02  0.26799084970E+03  0.17215809838E+03 0.  0.
         24    2    5    5    0    0 -0.67168344304E+02 -0.80027568981E+02  0.87715274469E+01  0.13103041772E+03  0.78587736958E+02 0.  0.
          5    1    5    5  501    0 -0.10983236181E+03  0.54542494360E+01 -0.81505664777E+02  0.13696043198E+03  0.47000000000E+01 0. -1.
        -11    1    6    6    0    0 -0.52316393550E+02 -0.44190122006E+01 -0.50579113113E+01  0.52745759732E+02  0.00000000000E+00 0.  1.
         12    1    6    6    0    0 -0.14851950754E+02 -0.75608556781E+02  0.13829438758E+02  0.78284657986E+02  0.00000000000E+00 0. -1.
         -5    1    3    3    0  503 -0.24738140909E+02 -0.20117886885E+01  0.29752100611E+00  0.25262648873E+02  0.47000000000E+01 0.  1.
         11    1    4    4    0    0  0.99824910427E+01 -0.55649202556E+01  0.29795765877E+02  0.31912476073E+02  0.00000000000E+00 0. -1.
        -12    1    4    4    0    0  0.19175635598E+03  0.82150028490E+02  0.85538906347E+02  0.22546847172E+03  0.00000000000E+00 0.  1.
</event>
<event>
12    1  0.1032880E+000  0.3713208E+03  0.7818608E-02  0.1054837E+00
         21   -1    0    0  503  502  0.00000000000E+00  0.00000000000E+00  0.74196102268E+03  0.74196102268E+03  0.00000000000E+00 0. -1.
         21   -1    0    0  501  503 -0.00000000000E+00 -0.00000000000E+00 -0.40098056784E+03  0.40098056784E+03  0.00000000000E+00 0. -1.
          6    2    1    2  501    0 -0.27002800719E+03 -0.17570479745E+03  0.59163115370E+03  0.69494056689E+03  0.17066830100E+03 0.  0.
         24    2    3    3    0    0 -0.21874272372E+03 -0.18244957498E+03  0.40820944700E+03  0.50430666431E+03  0.80956979027E+02 0.  0.
         -6    2    1    2    0  502  0.27002800719E+03  0.17570479745E+03 -0.25065069886E+03  0.44800102363E+03  0.18463976772E+03 0.  0.
        -24    2    5    5    0    0  0.12336584197E+03  0.14114100185E+03 -0.75941132942E+02  0.21724147540E+03  0.79289908545E+02 0.  0.
          5    1    3    3  501    0 -0.51285283468E+02  0.67447775306E+01  0.18342170671E+03  0.19063390259E+03  0.47000000000E+01 0. -1.
        -13    1    4    4    0    0 -0.20642329428E+03 -0.13432086958E+03  0.34587236987E+03  0.42459435779E+03  0.00000000000E+00 0.  1.
         14    1    4    4    0    0 -0.12319429440E+02 -0.48128705403E+02  0.62337077133E+02  0.79712306522E+02  0.00000000000E+00 0. -1.
         -5    1    5    5    0  502  0.14666216523E+03  0.34563795605E+02 -0.17470956592E+03  0.23075954823E+03  0.47000000000E+01 0.  1.
         11    1    6    6    0    0  0.52538117877E+01  0.47884506721E+02  0.10859376578E+01  0.48184103009E+02  0.00000000000E+00 0. -1.
        -12    1    6    6    0    0  0.11811203018E+03  0.93256495125E+02 -0.77027070599E+02  0.16905737239E+03  0.00000000000E+00 0.  1.
</event>
<event>
12    1  0.1032880E+000  0.2122564E+03  0.7818608E-02  0.1140494E+00
         21   -1    0    0  503  502  0.00000000000E+00  0.00000000000E+00  0.85537377591E+02  0.85537377591E+02  0.00000000000E+00 0. -1.
         21   -1    0    0  501  503 -0.00000000000E+00 -0.00000000000E+00 -0.52159434897E+03  0.52159434897E+03  0.00000000000E+00 0. -1.
          6    2    1    2  501    0  0.12487356730E+03 -0.38432233968E+01 -0.24177658929E+03  0.31938591750E+03  0.16716239707E+03 0.  0.
         24    2    3    3    0    0  0.76269291135E+02  0.32733198189E+02 -0.65155639084E+02  0.13252431008E+03  0.80180848233E+02 0.  0.
         -6    2    1    2    0  502 -0.12487356730E+03  0.38432233968E+01 -0.19428038209E+03  0.28774580906E+03  0.17159430524E+03 0.  0.
        -24    2    5    5    0    0 -0.90471180524E-01  0.10627774152E+02 -0.11178940435E+03  0.13793358454E+03  0.80098970350E+02 0.  0.
          5    1    3    3  501    0  0.48604276166E+02 -0.36576421586E+02 -0.17662095020E+03  0.18686160742E+03  0.47000000000E+01 0. -1.
        -13    1    4    4    0    0  0.12478052676E+02  0.34995369006E+02 -0.57188724822E+02  0.68197711818E+02  0.00000000000E+00 0.  1.
         14    1    4    4    0    0  0.63791238458E+02 -0.22621708171E+01 -0.79669142617E+01  0.64326598260E+02  0.00000000000E+00 0. -1.
         -5    1    5    5    0  502 -0.12478309612E+03 -0.67845507552E+01 -0.82490977740E+02  0.14981222452E+03  0.47000000000E+01 0.  1.
         11    1    6    6    0    0  0.26755509363E+02  0.25625545304E+02 -0.22145450219E+02  0.43161867647E+02  0.00000000000E+00 0. -1.
        -12    1    6    6    0    0 -0.26845980544E+02 -0.14997771152E+02 -0.89643954133E+02  0.94771716897E+02  0.00000000000E+00 0.  1.
</event>
<event>
12    1  0.1032880E+000  0.1739594E+03  0.7818608E-02  0.1174235E+00
         21   -1    0    0  503  502  0.00000000000E+00  0.00000000000E+00  0.47107266510E+02  0.47107266510E+02  0.00000000000E+00 0. -1.
         21   -1    0    0  501  503 -0.00000000000E+00 -0.00000000000E+00 -0.77033901355E+03  0.77033901355E+03  0.00000000000E+00 0. -1.
          6    2    1    2  501    0 -0.58434206522E+01  0.47689378008E+01 -0.53395425460E+03  0.56157725010E+03  0.17379578101E+03 0.  0.
         24    2    3    3    0    0 -0.46813173901E+02 -0.23650540759E+02 -0.18876332535E+03  0.21277206798E+03  0.83003244425E+02 0.  0.
         -6    2    1    2    0  502  0.58434206522E+01 -0.47689378008E+01 -0.18927749244E+03  0.25586902996E+03  0.17200611330E+03 0.  0.
        -24    2    5    5    0    0  0.56559232096E+02  0.10825169281E+02 -0.59730970600E+02  0.11579882960E+03  0.80780251692E+02 0.  0.
          5    1    3    3  501    0  0.40969753249E+02  0.28419478560E+02 -0.34519092924E+03  0.34880518212E+03  0.47000000000E+01 0. -1.
        -11    1    4    4    0    0  0.39859945630E+01 -0.43181885508E+02 -0.93270483766E+02  0.10285886705E+03  0.00000000000E+00 0.  1.
         12    1    4    4    0    0 -0.50799168464E+02  0.19531344750E+02 -0.95492841588E+02  0.10991320093E+03  0.00000000000E+00 0. -1.
         -5    1    5    5    0  502 -0.50715811443E+02 -0.15594107082E+02 -0.12954652184E+03  0.14007020035E+03  0.47000000000E+01 0.  1.
         13    1    6    6    0    0 -0.68414804704E+01 -0.24539420490E+02 -0.81644232499E+01  0.26751576029E+02  0.00000000000E+00 0. -1.
        -14    1    6    6    0    0  0.63400712566E+02  0.35364589771E+02 -0.51566547350E+02  0.89047253574E+02  0.00000000000E+00 0.  1.
</event>
<event>
12    1  0.1032880E+000  0.1979263E+03  0.7818608E-02  0.1151531E+00
         21   -1    0    0  501  502  0.00000000000E+00  0.00000000000E+00  0.51117879959E+03  0.51117879959E+03  0.00000000000E+00 0.  1.
         21   -1    0    0  502  503 -0.00000000000E+00 -0.00000000000E+00 -0.99195086590E+02  0.99195086590E+02  0.00000000000E+00 0. -1.
         -6    2    1    2    0  503 -0.23164638000E+02 -0.92087366287E+02  0.60331728309E+02  0.20691725988E+03  0.17366102474E+03 0.  0.
        -24    2    3    3    0    0 -0.25990734155E+02 -0.73752031546E+02 -0.29601284060E+02  0.11497049249E+03  0.78911961750E+02 0.  0.
          6    2    1    2  501    0  0.23164638000E+02  0.92087366287E+02  0.35165198469E+03  0.40345662630E+03  0.17349768725E+03 0.  0.
         24    2    5    5    0    0  0.29604488611E+02 -0.41957388406E-01  0.25898396696E+03  0.27254163301E+03  0.79560160101E+02 0.  0.
          5    1    5    5  501    0 -0.64398506106E+01  0.92129323676E+02  0.92668017732E+02  0.13091499329E+03  0.47000000000E+01 0. -1.
        -13    1    6    6    0    0 -0.25044194284E+02 -0.81152526536E+01  0.51620529064E+02  0.57946078502E+02  0.00000000000E+00 0.  1.
         14    1    6    6    0    0  0.54648682895E+02  0.80732952652E+01  0.20736343790E+03  0.21459555451E+03  0.00000000000E+00 0. -1.
         -5    1    3    3    0  503  0.28260961545E+01 -0.18335334742E+02  0.89933012370E+02  0.91946767390E+02  0.47000000000E+01 0.  1.
         11    1    4    4    0    0 -0.22343494278E+02  0.27511592535E+01 -0.31067323820E+02  0.38366381418E+02  0.00000000000E+00 0. -1.
        -12    1    4    4    0    0 -0.36472398771E+01 -0.76503190799E+02  0.14660397597E+01  0.76604111076E+02  0.00000000000E+00 0.  1.
</event>
<event>
12    1  0.1032880E+000  0.2022263E+03  0.7818608E-02  0.1148030E+00
         21   -1    0    0  503  502  0.00000000000E+00  0.00000000000E+00  0.67835866033E+02  0.67835866033E+02  0.00000000000E+00 0.  1.
         21   -1    0    0  501  503 -0.00000000000E+00 -0.00000000000E+00 -0.60080868392E+03  0.60080868392E+03  0.00000000000E+00 0.  1.
          6    2    1    2  501    0 -0.94943535147E+02  0.45645836434E+02 -0.26124751892E+03  0.33037212395E+03  0.17261997824E+03 0.  0.
         24    2    3    3    0    0 -0.23872429387E+02 -0.22069103921E+02 -0.55564228778E+02  0.10241572227E+03  0.79653364118E+02 0.  0.
         -6    2    1    2    0  502  0.94943535147E+02 -0.45645836434E+02 -0.27172529896E+03  0.33827242601E+03  0.17174335169E+03 0.  0.
        -24    2    5    5    0    0 -0.33530348048E+01 -0.43914157292E+02 -0.18845341225E+03  0.20934798498E+03  0.79826024412E+02 0.  0.
          5    1    3    3  501    0 -0.71071105760E+02  0.67714940355E+02 -0.20568329015E+03  0.22795640168E+03  0.47000000000E+01 0. -1.
        -11    1    4    4    0    0  0.64213534528E+00 -0.46620322915E+02 -0.47978343118E+02  0.66901332236E+02  0.00000000000E+00 0.  1.
         12    1    4    4    0    0 -0.24514564732E+02  0.24551218995E+02 -0.75858856598E+01  0.35514390032E+02  0.00000000000E+00 0. -1.
         -5    1    5    5    0  502  0.98296569951E+02 -0.17316791416E+01 -0.83271886711E+02  0.12892444102E+03  0.47000000000E+01 0.  1.
         11    1    6    6    0    0 -0.59604812898E+00  0.14572865582E+02 -0.11252089032E+03  0.11346221593E+03  0.00000000000E+00 0. -1.
        -12    1    6    6    0    0 -0.27569866759E+01 -0.58487022874E+02 -0.75932521930E+02  0.95885769053E+02  0.00000000000E+00 0.  1.
</event>
<event>
12    1  0.1032880E+000  0.5104884E+03  0.7818608E-02  0.1011080E+00
         21   -1    0    0  503  502  0.00000000000E+00  0.00000000000E+00  0.45120536712E+03  0.45120536712E+03  0.00000000000E+00 0. -1.
         21   -1    0    0  501  503 -0.00000000000E+00 -0.00000000000E+00 -0.62626852613E+03  0.62626852613E+03  0.00000000000E+00 0. -1.
          6    2    1    2  501    0 -0.28610877340E+03 -0.38647391762E+03  0.62792504791E+02  0.51433576183E+03  0.17140028597E+03 0.  0.
         24    2    3    3    0    0 -0.27579188046E+03 -0.33125385527E+03  0.11897212409E+02  0.43838765881E+03  0.79069069665E+02 0.  0.
         -6    2    1    2    0  502  0.28610877340E+03  0.38647391762E+03 -0.23785566380E+03  0.56313813142E+03  0.17125688029E+03 0.  0.
        -24    2    5    5    0    0  0.11265975854E+03  0.23030642821E+03 -0.17837928906E+03  0.32223903500E+03  0.79281478575E+02 0.  0.
          5    1    3    3  501    0 -0.10316892935E+02 -0.55220062345E+02  0.50895292382E+02  0.75948103017E+02  0.47000000000E+01 0. -1.
        -11    1    4    4    0    0 -0.89601483252E+02 -0.12840778970E+03  0.40021190456E+02  0.16161275303E+03  0.00000000000E+00 0.  1.
         12    1    4    4    0    0 -0.18619039721E+03 -0.20284606557E+03 -0.28123978047E+02  0.27677490578E+03  0.00000000000E+00 0. -1.
         -5    1    5    5    0  502  0.17344901486E+03  0.15616748940E+03 -0.59476374741E+02  0.24089909642E+03  0.47000000000E+01 0.  1.
         13    1    6    6    0    0  0.92295635501E+01 -0.55840524263E+01 -0.67420761701E+01  0.12720930623E+02  0.00000000000E+00 0. -1.
        -14    1    6    6    0    0  0.10343019499E+03  0.23589048064E+03 -0.17163721289E+03  0.30951810438E+03  0.00000000000E+00 0.  1.
</event>
<event>
12    1  0.1032880E+000  0.3221302E+03  0.7818608E-02  0.1074706E+00
         21   -1    0    0  501  502  0.00000000000E+00  0.00000000000E+00  0.13234058066E+04  0.13234058066E+04  0.00000000000E+00 0. -1.
         21   -1    0    0  502  503 -0.00000000000E+00 -0.00000000000E+00 -0.78403517035E+02  0.78403517035E+02  0.00000000000E+00 0. -1.
         -6    2    1    2    0  503 -0.18615131946E+02  0.27064204118E+03  0.60288438257E+03  0.68354768461E+03  0.17370728483E+03 0.  0.
        -24    2    3    3    0    0 -0.40844224806E+02  0.19082812149E+03  0.28230330467E+03  0.35240011652E+03  0.80044135621E+02 0.  0.
          6    2    1    2  501    0  0.18615131946E+02 -0.27064204118E+03  0.64211790696E+03  0.71826163898E+03  0.17317834161E+03 0.  0.
         24    2    5    5    0    0  0.45368647436E+02 -0.25381785039E+03  0.46134747229E+03  0.53468918997E+03  0.81050751592E+02 0.  0.
          5    1    5    5  501    0 -0.26753515489E+02 -0.16824190793E+02  0.18077043466E+03  0.18357244901E+03  0.47000000000E+01 0. -1.
        -13    1    6    6    0    0 -0.14954808764E+02 -0.13802826779E+03  0.21613543474E+03  0.25688514002E+03  0.00000000000E+00 0.  1.
         14    1    6    6    0    0  0.60323456199E+02 -0.11578958260E+03  0.24521203756E+03  0.27780404995E+03  0.00000000000E+00 0. -1.
         -5    1    3    3    0  503  0.22229092860E+02  0.79813919695E+02  0.32058107790E+03  0.33114756809E+03  0.47000000000E+01 0.  1.
         11    1    4    4    0    0  0.10158037083E+02  0.27376246558E+02  0.10245590961E+02  0.30945382969E+02  0.00000000000E+00 0. -1.
        -12    1    4    4    0    0 -0.51002261889E+02  0.16345187493E+03  0.27205771371E+03  0.32145473355E+03  0.00000000000E+00 0.  1.
</event>
<event>
12    1  0.1032880E+000  0.2270038E+03  0.7818608E-02  0.1129022E+00
         21   -1    0    0  501  502  0.00000000000E+00  0.00000000000E+00  0.10529019234E+03  0.10529019234E+03  0.00000000000E+00 0.  1.
         21   -1    0    0  502  503 -0.00000000000E+00 -0.00000000000E+00 -0.76609403480E+03  0.76609403480E+03  0.00000000000E+00 0. -1.
         -6    2    1    2    0  503 -0.57508149179E+02 -0.13385828345E+03 -0.66465104557E+02  0.23516943266E+03  0.17222608590E+03 0.  0.
        -24    2    3    3    0    0  0.16466277368E+02 -0.30139990824E+02 -0.49462228229E+01  0.93619572834E+02  0.86951722008E+02 0.  0.
          6    2    1    2  501    0  0.57508149179E+02  0.13385828345E+03 -0.59433873790E+03  0.63621479447E+03  0.17408475541E+03 0.  0.
         24    2    5    5    0    0  0.91572031859E+02  0.11212068009E+03 -0.33255399669E+03  0.37128798904E+03  0.79411121210E+02 0.  0.
          5    1    5    5  501    0 -0.34063882680E+02  0.21737603359E+02 -0.26178474122E+03  0.26492680543E+03  0.47000000000E+01 0. -1.
        -11    1    6    6    0    0  0.49498816457E+02  0.79194131643E+02 -0.11964775299E+03  0.15178085556E+03  0.00000000000E+00 0.  1.
         12    1    6    6    0    0  0.42073215402E+02  0.32926548446E+02 -0.21290624369E+03  0.21950713349E+03  0.00000000000E+00 0. -1.
         -5    1    3    3    0  503 -0.73974426547E+02 -0.10371829262E+03 -0.61518881734E+02  0.14154985983E+03  0.47000000000E+01 0.  1.
         13    1    4    4    0    0 -0.17547960347E+02 -0.23409497176E+02 -0.36472243522E+02  0.46756390129E+02  0.00000000000E+00 0. -1.
        -14    1    4    4    0    0  0.34014237715E+02 -0.67304936483E+01  0.31526020699E+02  0.46863182705E+02  0.00000000000E+00 0.  1.
</event>
<event>
12    1  0.1169920E+000  0.4966837E+03  0.7818608E-02  0.1014684E+00
         21   -1    0    0  503  502  0.00000000000E+00  0.00000000000E+00  0.64348340814E+03  0.64348340814E+03  0.00000000000E+00 0.  1.
         21   -1    0    0  501  503 -0.00000000000E+00 -0.00000000000E+00 -0.84183285568E+03  0.84183285568E+03  0.00000000000E+00 0.  1.
          6    2    1    2  501    0 -0.38257420183E+03  0.26565621218E+03  0.44915852971E+03  0.66925175110E+03  0.17093355014E+03 0.  0.
         24    2    3    3    0    0 -0.34880975850E+03  0.28025800064E+03  0.43612210984E+03  0.62994159843E+03  0.80069521050E+02 0.  0.
         -6    2    1    2    0  502  0.38257420183E+03 -0.26565621218E+03 -0.64750797726E+03  0.81606451272E+03  0.17250642111E+03 0.  0.
        -24    2    5    5    0    0  0.30681194938E+03 -0.14288011568E+03 -0.40508579646E+03  0.53392183159E+03  0.80185534950E+02 0.  0.
          5    1    3    3  501    0 -0.33764443331E+02 -0.14601788458E+02  0.13036419875E+02  0.39310152668E+02  0.47000000000E+01 0. -1.
        -13    1    4    4    0    0 -0.22389526485E+02  0.21826515647E+02  0.69980182143E+01  0.32041534614E+02  0.00000000000E+00 0.  1.
         14    1    4    4    0    0 -0.32642023201E+03  0.25843148500E+03  0.42912409162E+03  0.59790006382E+03  0.00000000000E+00 0. -1.
         -5    1    5    5    0  502  0.75762252443E+02 -0.12277609650E+03 -0.24242218080E+03  0.28214268112E+03  0.47000000000E+01 0.  1.
         13    1    6    6    0    0  0.20740448531E+03 -0.10868265795E+03 -0.33043019530E+03  0.40498475852E+03  0.00000000000E+00 0. -1.
        -14    1    6    6    0    0  0.99407464069E+02 -0.34197457725E+02 -0.74655601163E+02  0.12893707307E+03  0.00000000000E+00 0.  1.
</event>
<event>
12    1  0.1032880E+000  0.1878415E+03  0.7818608E-02  0.1160461E+00
         21   -1    0    0  501  502  0.00000000000E+00  0.00000000000E+00  0.75271017407E+03  0.75271017407E+03  0.00000000000E+00 0.  1.
         21   -1    0    0  502  503 -0.00000000000E+00 -0.00000000000E+00 -0.96459430113E+02  0.96459430113E+02  0.00000000000E+00 0.  1.
         -6    2    1    2    0  503 -0.70756065230E+02  0.20759747689E+02  0.63259219214E+03  0.65984405804E+03  0.17258015959E+03 0.  0.
        -24    2    3    3    0    0 -0.77058719248E+02  0.10338453975E+02  0.21582534315E+03  0.24287280816E+03  0.79760217874E+02 0.  0.
          6    2    1    2  501    0  0.70756065230E+02 -0.20759747689E+02  0.23658551821E+02  0.18932554614E+03  0.17276298058E+03 0.  0.
         24    2    5    5    0    0  0.73096560401E+02  0.23937736060E+02  0.66300752011E+02  0.12732723804E+03  0.76813498025E+02 0.  0.
          5    1    5    5  501    0 -0.23404951703E+01 -0.44697483749E+02 -0.42642200190E+02  0.61998308107E+02  0.47000000000E+01 0. -1.
        -11    1    6    6    0    0  0.16892882612E+02  0.91469475158E+01  0.66490122363E+02  0.69209627247E+02  0.00000000000E+00 0.  1.
         12    1    6    6    0    0  0.56203677789E+02  0.14790788544E+02 -0.18937035283E+00  0.58117610790E+02  0.00000000000E+00 0. -1.
         -5    1    3    3    0  503  0.63026540178E+01  0.10421293714E+02  0.41676684899E+03  0.41697124988E+03  0.47000000000E+01 0.  1.
         11    1    4    4    0    0 -0.80019083063E+02  0.87114808136E+01  0.22183067633E+03  0.23598261062E+03  0.00000000000E+00 0. -1.
        -12    1    4    4    0    0  0.29603638147E+01  0.16269731613E+01 -0.60053331807E+01  0.68901975439E+01  0.00000000000E+00 0.  1.
</event>
<event>
12    1  0.1032880E+000  0.2143503E+03  0.7818608E-02  0.1138630E+00
         21   -1    0    0  503  502  0.00000000000E+00  0.00000000000E+00  0.46766550336E+02  0.46766550336E+02  0.00000000000E+00 0. -1.
         21   -1    0    0  501  503 -0.00000000000E+00 -0.00000000000E+00 -0.97193571268E+03  0.97193571268E+03  0.00000000000E+00 0. -1.
          6    2    1    2  501    0  0.78042666984E+00  0.12783335019E+03 -0.44949123950E+03  0.49695946693E+03  0.16906910688E+03 0.  0.
         24    2    3    3    0    0  0.53889739388E+02  0.79869979835E+02 -0.36701013044E+03  0.38766030251E+03  0.79377305343E+02 0.  0.
         -6    2    1    2    0  502 -0.78042666984E+00 -0.12783335019E+03 -0.47567792285E+03  0.52174279609E+03  0.17205837526E+03 0.  0.
        -24    2    5    5    0    0 -0.12614519856E+02 -0.14341958885E+03 -0.27915172938E+03  0.32418872421E+03  0.80276623674E+02 0.  0.
          5    1    3    3  501    0 -0.53109312718E+02  0.47963370350E+02 -0.82481109058E+02  0.10929916443E+03  0.47000000000E+01 0. -1.
        -13    1    4    4    0    0 -0.35758941786E+01  0.46799417753E+02 -0.77080518589E+02  0.90246212481E+02  0.00000000000E+00 0.  1.
         14    1    4    4    0    0  0.57465633567E+02  0.33070562082E+02 -0.28992961185E+03  0.29741409002E+03  0.00000000000E+00 0. -1.
         -5    1    5    5    0  502  0.11834093186E+02  0.15586238670E+02 -0.19652619347E+03  0.19755407188E+03  0.47000000000E+01 0.  1.
         13    1    6    6    0    0 -0.40272166495E+01 -0.51657530962E+02 -0.33204846566E+02  0.61540887339E+02  0.00000000000E+00 0. -1.
        -14    1    6    6    0    0 -0.85873032063E+01 -0.91762057893E+02 -0.24594688282E+03  0.26264783687E+03  0.00000000000E+00 0.  1.
</event>
<event>
12    1  0.1032880E+000  0.1790780E+03  0.7818608E-02  0.1169772E+00
         21   -1    0    0  503  502  0.00000000000E+00  0.00000000000E+00  0.54933043940E+02  0.54933043940E+02  0.00000000000E+00 0. -1.
         21   -1    0    0  501  503 -0.00000000000E+00 -0.00000000000E+00 -0.98776087690E+03  0.98776087690E+03  0.00000000000E+00 0. -1.
          6    2    1    2  501    0  0.32526153098E+02 -0.37415760682E+01 -0.13055951020E+03  0.22161839444E+03  0.17605958373E+03 0.  0.
         24    2    3    3    0    0 -0.11239258856E+02  0.62846036174E+02 -0.80235098133E+02  0.12725760895E+03  0.75371631676E+02 0.  0.
         -6    2    1    2    0  502 -0.32526153098E+02  0.37415760682E+01 -0.80226832276E+03  0.82107552640E+03  0.17163510225E+03 0.  0.
        -24    2    5    5    0    0  0.20046884764E+02  0.14380335162E+02 -0.23569954170E+03  0.25195393906E+03  0.85544385103E+02 0.  0.
          5    1    3    3  501    0  0.43765411953E+02 -0.66587612242E+02 -0.50324412065E+02  0.94360785484E+02  0.47000000000E+01 0. -1.
        -11    1    4    4    0    0 -0.40256606311E+01  0.25275479292E+01  0.14197914075E+02  0.14972481629E+02  0.00000000000E+00 0.  1.
         12    1    4    4    0    0 -0.72135982244E+01  0.60318488245E+02 -0.94433012208E+02  0.11228512732E+03  0.00000000000E+00 0. -1.
         -5    1    5    5    0  502 -0.52573037862E+02 -0.10638759094E+02 -0.56656878106E+03  0.56912158734E+03  0.47000000000E+01 0.  1.
         11    1    6    6    0    0  0.13644589542E+02  0.28310991760E+02 -0.23602489881E+02  0.39303493570E+02  0.00000000000E+00 0. -1.
        -12    1    6    6    0    0  0.64022952214E+01 -0.13930656598E+02 -0.21209705182E+03  0.21265044549E+03  0.00000000000E+00 0.  1.
</event>
<event>
12    1  0.1032880E+000  0.2055843E+03  0.7818608E-02  0.1145515E+00
         21   -1    0    0  501  502  0.00000000000E+00  0.00000000000E+00  0.11343029641E+04  0.11343029641E+04  0.00000000000E+00 0. -1.
         21   -1    0    0  502  503 -0.00000000000E+00 -0.00000000000E+00 -0.92594886066E+02  0.92594886066E+02  0.00000000000E+00 0. -1.
         -6    2    1    2    0  503 -0.43739326468E+02 -0.97457676538E+02  0.99559874912E+03  0.10162061555E+04  0.17334057149E+03 0.  0.
        -24    2    3    3    0    0  0.43548614435E+01  0.55130081577E+01  0.21199515814E+03  0.22439008425E+03  0.73209321508E+02 0.  0.
          6    2    1    2  501    0  0.43739326468E+02  0.97457676538E+02  0.46109328915E+02  0.21069169472E+03  0.17565247683E+03 0.  0.
         24    2    5    5    0    0  0.97394291612E+02  0.57836854249E+02  0.35376545174E+02  0.14297207060E+03  0.79741853980E+02 0.  0.
          5    1    5    5  501    0 -0.53654965145E+02  0.39620822289E+02  0.10732783742E+02  0.67719624116E+02  0.47000000000E+01 0. -1.
        -13    1    6    6    0    0  0.60972522664E+02  0.70611678574E+02  0.42540943264E+01  0.93390336704E+02  0.00000000000E+00 0.  1.
         14    1    6    6    0    0  0.36421768948E+02 -0.12774824325E+02  0.31122450847E+02  0.49581733900E+02  0.00000000000E+00 0. -1.
         -5    1    3    3    0  503 -0.48094187911E+02 -0.10297068470E+03  0.78360359098E+03  0.79181607121E+03  0.47000000000E+01 0.  1.
         11    1    4    4    0    0  0.74563992570E+01 -0.29452656313E+02  0.48974850769E+02  0.57633261764E+02  0.00000000000E+00 0. -1.
        -12    1    4    4    0    0 -0.31015378135E+01  0.34965664470E+02  0.16302030737E+03  0.16675682248E+03  0.00000000000E+00 0.  1.
</event>
<event>
12    1  0.1076462E+000  0.1987466E+03  0.7818608E-02  0.1151235E+00
         21   -1    0    0  503  502  0.00000000000E+00  0.00000000000E+00  0.56365525727E+03  0.56365525727E+03  0.00000000000E+00 0.  1.
         21   -1    0    0  501  503 -0.00000000000E+00 -0.00000000000E+00 -0.31300856685E+03  0.31300856685E+03  0.00000000000E+00 0.  1.
          6    2    1    2  501    0 -0.54547056587E+02  0.82408170783E+02  0.51190487315E+03  0.54840166334E+03  0.17009202571E+03 0.  0.
         24    2    3    3    0    0 -0.39875781456E+02  0.20788384952E+02  0.11453657599E+03  0.14598906673E+03  0.78561730326E+02 0.  0.
         -6    2    1    2    0  502  0.54547056587E+02 -0.82408170783E+02 -0.26125818274E+03  0.32826216078E+03  0.17243468374E+03 0.  0.
        -24    2    5    5    0    0 -0.11770704844E+02 -0.97752687932E+02 -0.19675859844E+03  0.23436974328E+03  0.80753284864E+02 0.  0.
          5    1    3    3  501    0 -0.14671275132E+02  0.61619785831E+02  0.39736829716E+03  0.40241259661E+03  0.47000000000E+01 0. -1.
        -11    1    4    4    0    0 -0.19721638003E+02 -0.18558818316E+02  0.92906126341E+02  0.96772522208E+02  0.00000000000E+00 0.  1.
         12    1    4    4    0    0 -0.20154143453E+02  0.39347203268E+02  0.21630449645E+02  0.49216544527E+02  0.00000000000E+00 0. -1.
         -5    1    5    5    0  502  0.66317761432E+02  0.15344517149E+02 -0.64499584299E+02  0.93892417492E+02  0.47000000000E+01 0.  1.
         11    1    6    6    0    0  0.62169172850E+01 -0.67080554611E+02 -0.18505443772E+03  0.19693551175E+03  0.00000000000E+00 0. -1.
        -12    1    6    6    0    0 -0.17987622129E+02 -0.30672133321E+02 -0.11704160715E+02  0.37434231532E+02  0.00000000000E+00 0.  1.
</event>
<event>
12    1  0.1032880E+000  0.1789901E+03  0.7818608E-02  0.1169400E+00
         21   -1    0    0  501  502  0.00000000000E+00  0.00000000000E+00  0.18481834517E+03  0.18481834517E+03  0.00000000000E+00 0.  1.
         21   -1    0    0  502  503 -0.00000000000E+00 -0.00000000000E+00 -0.21504353089E+03  0.21504353089E+03  0.00000000000E+00 0.  1.
         -6    2    1    2    0  503  0.41841008170E+02 -0.30749488286E+01  0.75527060637E+02  0.19196531718E+03  0.17142409643E+03 0.  0.
        -24    2    3    3    0    0 -0.16794076435E+02  0.44386873405E+02  0.12771634149E+02  0.93725654770E+02  0.79806943240E+02 0.  0.
          6    2    1    2  501    0 -0.41841008170E+02  0.30749488286E+01 -0.10575224635E+03  0.20789655888E+03  0.17400378245E+03 0.  0.
         24    2    5    5    0    0  0.39650895771E+01 -0.54543593982E+02 -0.89623026805E+02  0.13239598411E+03  0.80657821043E+02 0.  0.
          5    1    5    5  501    0 -0.45806097747E+02  0.57618542811E+02 -0.16129219548E+02  0.75500574764E+02  0.47000000000E+01 0. -1.
        -13    1    6    6    0    0 -0.28883707898E+02 -0.57402334790E+02 -0.63347619543E+02  0.90234236978E+02  0.00000000000E+00 0.  1.
         14    1    6    6    0    0  0.32848797475E+02  0.28587408078E+01 -0.26275407263E+02  0.42161747134E+02  0.00000000000E+00 0. -1.
         -5    1    3    3    0  503  0.58635084604E+02 -0.47461822234E+02  0.62755426488E+02  0.98239662408E+02  0.47000000000E+01 0.  1.
         11    1    4    4    0    0 -0.91604257273E+01  0.52754052948E+02  0.38277256298E+02  0.65818324589E+02  0.00000000000E+00 0. -1.
        -12    1    4    4    0    0 -0.76336507075E+01 -0.83671795432E+01 -0.25505622149E+02  0.27907330182E+02  0.00000000000E+00 0.  1.
</event>
<event>
12    1  0.1032880E+000  0.3447017E+03  0.7818608E-02  0.1064835E+00
         21   -1    0    0  501  502  0.00000000000E+00  0.00000000000E+00  0.31516409934E+03  0.31516409934E+03  0.00000000000E+00 0. -1.
         21   -1    0    0  502  503 -0.00000000000E+00 -0.00000000000E+00 -0.47657385045E+03  0.47657385045E+03  0.00000000000E+00 0. -1.
         -6    2    1    2    0  503  0.12643321098E+03 -0.27049880891E+03  0.10044143385E+03  0.35903727891E+03  0.17223334042E+03 0.  0.
        -24    2    3    3    0    0  0.35651917139E+02 -0.22359483564E+03  0.47467442291E+02  0.24384370356E+03  0.77077129981E+02 0.  0.
          6    2    1    2  501    0 -0.12643321098E+03  0.27049880891E+03 -0.26185118497E+03  0.43270067088E+03  0.17178144560E+03 0.  0.
         24    2    5    5    0    0 -0.14895186482E+03  0.19204872747E+03 -0.23296085263E+03  0.34599284914E+03  0.79818049616E+02 0.  0.
          5    1    5    5  501    0  0.22518653835E+02  0.78450081438E+02 -0.28890332340E+02  0.86707821740E+02  0.47000000000E+01 0. -1.
        -13    1    6    6    0    0 -0.58450202057E+02  0.44326427503E+02 -0.11499979467E+03  0.13640458596E+03  0.00000000000E+00 0.  1.
         14    1    6    6    0    0 -0.90501662759E+02  0.14772229997E+03 -0.11796105795E+03  0.20958826318E+03  0.00000000000E+00 0. -1.
         -5    1    3    3    0  503  0.90781293842E+02 -0.46903973269E+02  0.52973991559E+02  0.11519357535E+03  0.47000000000E+01 0.  1.
         11    1    4    4    0    0  0.38412592984E+02 -0.56469720211E+02 -0.54657185290E+01  0.68514455989E+02  0.00000000000E+00 0. -1.
        -12    1    4    4    0    0 -0.27606758452E+01 -0.16712511543E+03  0.52933160820E+02  0.17532924757E+03  0.00000000000E+00 0.  1.
</event>
<event>
12    1  0.1032880E+000  0.3301143E+03  0.7818608E-02  0.1071391E+00
         21   -1    0    0  503  502  0.00000000000E+00  0.00000000000E+00  0.11753462232E+04  0.11753462232E+04  0.00000000000E+00 0. -1.
         21   -1    0    0  501  503 -0.00000000000E+00 -0.00000000000E+00 -0.39942678139E+03  0.39942678139E+03  0.00000000000E+00 0. -1.
          6    2    1    2  501    0 -0.27647827173E+03  0.47362380456E+02 -0.30250461117E+03  0.44775498072E+03  0.17404612366E+03 0.  0.
         24    2    3    3    0    0 -0.98272189923E+02  0.48245838942E+02 -0.20277149432E+03  0.24348316992E+03  0.78630088632E+02 0.  0.
         -6    2    1    2    0  502  0.27647827173E+03 -0.47362380456E+02  0.10784240530E+04  0.11270180239E+04  0.16878316942E+03 0.  0.
        -24    2    5    5    0    0  0.61489417520E+02  0.12642347741E+02  0.27138486330E+03  0.28966796655E+03  0.79479616187E+02 0.  0.
          5    1    3    3  501    0 -0.17820608181E+03 -0.88345848544E+00 -0.99733116851E+02  0.20427181080E+03  0.47000000000E+01 0. -1.
        -11    1    4    4    0    0 -0.10677179612E+03  0.31059299125E+02 -0.19092186588E+03  0.22094355700E+03  0.00000000000E+00 0.  1.
         12    1    4    4    0    0  0.84996061983E+01  0.17186539817E+02 -0.11849628440E+02  0.22539612920E+02  0.00000000000E+00 0. -1.
         -5    1    5    5    0  502  0.21498885421E+03 -0.60004728197E+02  0.80703918966E+03  0.83735005732E+03  0.47000000000E+01 0.  1.
         13    1    6    6    0    0  0.52066860418E+02  0.44215271432E+02  0.18009769823E+03  0.19261653379E+03  0.00000000000E+00 0. -1.
        -14    1    6    6    0    0  0.94225571022E+01 -0.31572923691E+02  0.91287165072E+02  0.97051432755E+02  0.00000000000E+00 0.  1.
</event>
<event>
12    1  0.1032880E+000  0.1808698E+03  0.7818608E-02  0.1167350E+00
         21   -1    0    0  503  502  0.00000000000E+00  0.00000000000E+00  0.12313244257E+04  0.12313244257E+04  0.00000000000E+00 0.  1.
         21   -1    0    0  501  503 -0.00000000000E+00 -0.00000000000E+00 -0.26410897098E+02  0.26410897098E+02  0.00000000000E+00 0.  1.
          6    2    1    2  501    0  0.36055126801E+02  0.39019893880E+02  0.63380865704E+03  0.65867385402E+03  0.17121713683E+03 0.  0.
         24    2    3    3    0    0  0.92727255634E+01 -0.38101164685E+02  0.42501511749E+03  0.43443784699E+03  0.80998213643E+02 0.  0.
         -6    2    1    2    0  502 -0.36055126801E+02 -0.39019893880E+02  0.57110487156E+03  0.59906146878E+03  0.17289113559E+03 0.  0.
        -24    2    5    5    0    0 -0.40421657085E+00 -0.82887971273E+02  0.29145128029E+03  0.31371323114E+03  0.81250005751E+02 0.  0.
          5    1    3    3  501    0  0.26782401237E+02  0.77121058565E+02  0.20879353955E+03  0.22423600703E+03  0.47000000000E+01 0. -1.
        -13    1    4    4    0    0  0.36071600050E+02 -0.42033784424E+02  0.19126991430E+03  0.19912855013E+03  0.00000000000E+00 0.  1.
         14    1    4    4    0    0 -0.26798874487E+02  0.39326197386E+01  0.23374520319E+03  0.23530929686E+03  0.00000000000E+00 0. -1.
         -5    1    5    5    0  502 -0.35650910230E+02  0.43868077393E+02  0.27965359127E+03  0.28534823764E+03  0.47000000000E+01 0.  1.
         11    1    6    6    0    0  0.27401272395E+02 -0.61464385433E+02  0.25234467017E+03  0.26116380486E+03  0.00000000000E+00 0. -1.
        -12    1    6    6    0    0 -0.27805488966E+02 -0.21423585840E+02  0.39106610118E+02  0.52549426275E+02  0.00000000000E+00 0.  1.
</event>
<event>
12    1  0.1032880E+000  0.1772826E+03  0.7818608E-02  0.1170847E+00
         21   -1    0    0  501  502  0.00000000000E+00  0.00000000000E+00  0.16588296054E+03  0.16588296054E+03  0.00000000000E+00 0.  1.
         21   -1    0    0  502  503 -0.00000000000E+00 -0.00000000000E+00 -0.26726130032E+03  0.26726130032E+03  0.00000000000E+00 0.  1.
         -6    2    1    2    0  503  0.26804709586E+02 -0.12905124003E+02  0.67242523481E+02  0.18960663474E+03  0.17476865936E+03 0.  0.
        -24    2    3    3    0    0  0.33466548679E+02 -0.73770732507E+02  0.30952780983E+02  0.11827615172E+03  0.80430358442E+02 0.  0.
          6    2    1    2  501    0 -0.26804709586E+02  0.12905124003E+02 -0.16862086326E+03  0.24353762611E+03  0.17318355905E+03 0.  0.
         24    2    5    5    0    0 -0.30380344539E+02  0.12003248811E+02 -0.13295466153E+02  0.88097388300E+02  0.80730025942E+02 0.  0.
          5    1    5    5  501    0  0.35756349530E+01  0.90187519166E+00 -0.15532539711E+03  0.15544023781E+03  0.47000000000E+01 0. -1.
        -13    1    6    6    0    0 -0.51730129269E+02  0.29090031728E+02 -0.12974504591E+02  0.60750094563E+02  0.00000000000E+00 0.  1.
         14    1    6    6    0    0  0.21349784729E+02 -0.17086782916E+02 -0.32096156261E+00  0.27347293737E+02  0.00000000000E+00 0. -1.
         -5    1    3    3    0  503 -0.66618390929E+01  0.60865608504E+02  0.36289742498E+02  0.71330483029E+02  0.47000000000E+01 0.  1.
         11    1    4    4    0    0  0.40067585580E+02 -0.50396955642E+02  0.54569978021E+02  0.84398738458E+02  0.00000000000E+00 0. -1.
        -12    1    4    4    0    0 -0.66010369007E+01 -0.23373776865E+02 -0.23617197038E+02  0.33877413258E+02  0.00000000000E+00 0.  1.
</event>
<event>
12    1  0.1032880E+000  0.1732531E+03  0.7818608E-02  0.1175037E+00
         21   -1    0    0  503  502  0.00000000000E+00  0.00000000000E+00  0.89927498447E+03  0.89927498447E+03  0.00000000000E+00 0.  1.
         21   -1    0    0  501  503 -0.00000000000E+00 -0.00000000000E+00 -0.42850422101E+02  0.42850422101E+02  0.00000000000E+00 0.  1.
          6    2    1    2  501    0 -0.80190993490E+01 -0.99894528218E+01  0.65234891991E+03  0.67442499668E+03  0.17066302387E+03 0.  0.
         24    2    3    3    0    0  0.43038784448E+02  0.34832057485E+02  0.47206083762E+03  0.48170302621E+03  0.78299181699E+02 0.  0.
         -6    2    1    2    0  502  0.80190993490E+01  0.99894528218E+01  0.20407564246E+03  0.26770040989E+03  0.17277889480E+03 0.  0.
        -24    2    5    5    0    0 -0.39729391625E+02  0.56277653291E+02  0.14264760185E+03  0.17704716910E+03  0.79068090620E+02 0.  0.
          5    1    3    3  501    0 -0.51057883797E+02 -0.44821510307E+02  0.18028808230E+03  0.19272197047E+03  0.47000000000E+01 0. -1.
        -11    1    4    4    0    0  0.28901370653E+02 -0.22638468932E+02  0.18207963350E+03  0.18574386244E+03  0.00000000000E+00 0.  1.
         12    1    4    4    0    0  0.14137413795E+02  0.57470526417E+02  0.28998120412E+03  0.29595916377E+03  0.00000000000E+00 0. -1.
         -5    1    5    5    0  502  0.47748490974E+02 -0.46288200469E+02  0.61428040608E+02  0.90653240791E+02  0.47000000000E+01 0.  1.
         11    1    6    6    0    0 -0.34583706140E+02 -0.11564704620E+02  0.56963198516E+02  0.67635649686E+02  0.00000000000E+00 0. -1.
        -12    1    6    6    0    0 -0.51456854858E+01  0.67842357910E+02  0.85684403336E+02  0.10941151942E+03  0.00000000000E+00 0.  1.
</event>
<event>
12    1  0.1032880E+000  0.1839788E+03  0.7818608E-02  0.1164113E+00
         21   -1    0    0  503  502  0.00000000000E+00  0.00000000000E+00  0.17051006432E+04  0.17051006432E+04  0.00000000000E+00 0.  1.
         21   -1    0    0  501  503 -0.00000000000E+00 -0.00000000000E+00 -0.23914212689E+02  0.23914212689E+02  0.00000000000E+00 0.  1.
          6    2    1    2  501    0  0.20708267150E+02  0.61317041417E+02  0.11999131164E+04  0.12139356197E+04  0.17221959784E+03 0.  0.
         24    2    3    3    0    0 -0.96641213041E+01 -0.30924209957E+02  0.60870328952E+03  0.61478448694E+03  0.79941032736E+02 0.  0.
         -6    2    1    2    0  502 -0.20708267150E+02 -0.61317041417E+02  0.48127331415E+03  0.51507923627E+03  0.17173818685E+03 0.  0.
        -24    2    5    5    0    0 -0.84234082888E+01  0.33223945029E+02  0.26508496083E+03  0.27875655435E+03  0.79122663040E+02 0.  0.
          5    1    3    3  501    0  0.30372388454E+02  0.92241251374E+02  0.59120982688E+03  0.59915113271E+03  0.47000000000E+01 0. -1.
        -13    1    4    4    0    0 -0.31433939477E+02  0.14187090304E+02  0.30975556291E+03  0.31166949616E+03  0.00000000000E+00 0.  1.
         14    1    4    4    0    0  0.21769818173E+02 -0.45111300261E+02  0.29894772660E+03  0.30311499078E+03  0.00000000000E+00 0. -1.
         -5    1    5    5    0  502 -0.12284858861E+02 -0.94540986445E+02  0.21618835333E+03  0.23632268192E+03  0.47000000000E+01 0.  1.
         13    1    6    6    0    0 -0.14891414736E+02 -0.78497830054E+01  0.85627679920E+01  0.18886352791E+02  0.00000000000E+00 0. -1.
        -14    1    6    6    0    0  0.64680064469E+01  0.41073728034E+02  0.25652219283E+03  0.25987020156E+03  0.00000000000E+00 0.  1.
</event>
<event>
12    1  0.1032880E+000  0.1950553E+03  0.7818608E-02  0.1155076E+00
         21   -1    0    0  503  502  0.00000000000E+00  0.00000000000E+00  0.15472613456E+03  0.15472613456E+03  0.00000000000E+00 0. -1.
         21   -1    0    0  501  503 -0.00000000000E+00 -0.00000000000E+00 -0.51939950504E+03  0.51939950504E+03  0.00000000000E+00 0.  1.
          6    2    1    2  501    0  0.47494495536E+02  0.79419194970E+02  0.63925017280E+02  0.20526320440E+03  0.17170742445E+03 0.  0.
         24    2    3    3    0    0  0.20660488113E+02  0.71487627870E+02 -0.24620265278E+02  0.11228293351E+03  0.80398774795E+02 0.  0.
         -6    2    1    2    0  502 -0.47494495536E+02 -0.79419194970E+02 -0.42859838776E+03  0.46886243519E+03  0.16604899730E+03 0.  0.
        -24    2    5    5    0    0 -0.97324260036E+01 -0.32268874872E+02 -0.38391743352E+03  0.39357894263E+03  0.79848531085E+02 0.  0.
          5    1    3    3  501    0  0.26834007423E+02  0.79315671004E+01  0.88545282558E+02  0.92980270888E+02  0.47000000000E+01 0. -1.
        -13    1    4    4    0    0 -0.13729656652E+02  0.68059734375E+02 -0.32768174821E+02  0.76774893006E+02  0.00000000000E+00 0.  1.
         14    1    4    4    0    0  0.34390144765E+02  0.34278934942E+01  0.81479095423E+01  0.35508040508E+02  0.00000000000E+00 0. -1.
         -5    1    5    5    0  502 -0.37762069532E+02 -0.47150320098E+02 -0.44680954239E+02  0.75283492563E+02  0.47000000000E+01 0.  1.
         13    1    6    6    0    0 -0.34999905569E+02 -0.14089437130E+02 -0.84411067179E+02  0.92459363456E+02  0.00000000000E+00 0. -1.
        -14    1    6    6    0    0  0.25267479566E+02 -0.18179437742E+02 -0.29950636634E+03  0.30111957917E+03  0.00000000000E+00 0.  1.
</event>
<event>
12    1  0.1032880E+000  0.2351586E+03  0.7818608E-02  0.1123100E+00
         21   -1    0    0  501  502  0.00000000000E+00  0.00000000000E+00  0.12299342528E+04  0.12299342528E+04  0.00000000000E+00 0. -1.
         21   -1    0    0  502  503 -0.00000000000E+00 -0.00000000000E+00 -0.59352044926E+02  0.59352044926E+02  0.00000000000E+00 0. -1.
         -6    2    1    2    0  503  0.13719047430E+03  0.82252287592E+02  0.90341041811E+03  0.93351483700E+03  0.17237430872E+03 0.  0.
        -24    2    3    3    0    0  0.15920179243E+03  0.10247522556E+03  0.82747409086E+03  0.85177206275E+03  0.70398105646E+02 0.  0.
          6    2    1    2  501    0 -0.13719047430E+03 -0.82252287592E+02  0.26717178979E+03  0.35577146075E+03  0.17206365674E+03 0.  0.
         24    2    5    5    0    0 -0.12243695489E+03 -0.12043930325E+03  0.24366073033E+03  0.30832913348E+03  0.78739249159E+02 0.  0.
          5    1    5    5  501    0 -0.14753519415E+02  0.38187015655E+02  0.23511059461E+02  0.47442327269E+02  0.47000000000E+01 0. -1.
        -13    1    6    6    0    0 -0.26532119788E+02 -0.40421768339E+02  0.13278485455E+03  0.14131415476E+03  0.00000000000E+00 0.  1.
         14    1    6    6    0    0 -0.95904835099E+02 -0.80017534908E+02  0.11087587578E+03  0.16701497872E+03  0.00000000000E+00 0. -1.
         -5    1    3    3    0  503 -0.22011318129E+02 -0.20222937968E+02  0.75936327252E+02  0.81742774252E+02  0.47000000000E+01 0.  1.
         13    1    4    4    0    0  0.98853858275E+02  0.36558363648E+02  0.55795042577E+03  0.56781799625E+03  0.00000000000E+00 0. -1.
        -14    1    4    4    0    0  0.60347934156E+02  0.65916861912E+02  0.26952366509E+03  0.28395406650E+03  0.00000000000E+00 0.  1.
</event>
<event>
12    1  0.1032880E+000  0.5603605E+03  0.7818608E-02  0.9991273E-01
         21   -1    0    0  503  502  0.00000000000E+00  0.00000000000E+00  0.26140862847E+03  0.26140862847E+03  0.00000000000E+00 0.  1.
         21   -1    0    0  501  503 -0.00000000000E+00 -0.00000000000E+00 -0.12066417127E+04  0.12066417127E+04  0.00000000000E+00 0.  1.
          6    2    1    2  501    0 -0.23625766374E+03 -0.47785059731E+03 -0.42271176622E+03  0.70186991607E+03  0.17256090159E+03 0.  0.
         24    2    3    3    0    0 -0.38660794324E+02 -0.21350346430E+03 -0.18169206132E+03  0.29316890349E+03  0.76535054325E+02 0.  0.
         -6    2    1    2    0  502  0.23625766374E+03  0.47785059731E+03 -0.52252131803E+03  0.76618042513E+03  0.17275716782E+03 0.  0.
        -24    2    5    5    0    0  0.28337115917E+02  0.20632579411E+03 -0.19487990256E+03  0.29254801483E+03  0.65060272850E+02 0.  0.
          5    1    3    3  501    0 -0.19759686942E+03 -0.26434713301E+03 -0.24101970490E+03  0.40870101258E+03  0.47000000000E+01 0. -1.
        -13    1    4    4    0    0 -0.51627192756E+01 -0.29812064327E+02  0.31643828833E+01  0.30420818016E+02  0.00000000000E+00 0.  1.
         14    1    4    4    0    0 -0.33498075048E+02 -0.18369139997E+03 -0.18485644421E+03  0.26274808547E+03  0.00000000000E+00 0. -1.
         -5    1    5    5    0  502  0.20792054782E+03  0.27152480319E+03 -0.32764141546E+03  0.47363241030E+03  0.47000000000E+01 0.  1.
         13    1    6    6    0    0  0.35153518043E+02  0.95803932145E+02 -0.61323128171E+02  0.11905750415E+03  0.00000000000E+00 0. -1.
        -14    1    6    6    0    0 -0.68164021263E+01  0.11052186197E+03 -0.13355677439E+03  0.17349051068E+03  0.00000000000E+00 0.  1.
</event>
<event>
12    1  0.1032880E+000  0.2604895E+03  0.7818608E-02  0.1107475E+00
         21   -1    0    0  503  502  0.00000000000E+00  0.00000000000E+00  0.99214352239E+02  0.99214352239E+02  0.00000000000E+00 0.  1.
         21   -1    0    0  501  503 -0.00000000000E+00 -0.00000000000E+00 -0.85524846073E+03  0.85524846073E+03  0.00000000000E+00 0.  1.
          6    2    1    2  501    0 -0.10883864568E+03 -0.15804745137E+03 -0.16016360836E+03  0.30578944503E+03  0.17615321617E+03 0.  0.
         24    2    3    3    0    0 -0.49813383294E+02 -0.32127066401E+01 -0.60329891342E+02  0.11227809955E+03  0.80467267937E+02 0.  0.
         -6    2    1    2    0  502  0.10883864568E+03  0.15804745137E+03 -0.59587050012E+03  0.64867336794E+03  0.16997246150E+03 0.  0.
        -24    2    5    5    0    0  0.69681240435E+02  0.18104365053E+03 -0.46894993094E+03  0.51379175895E+03  0.80222535273E+02 0.  0.
          5    1    3    3  501    0 -0.59025262389E+02 -0.15483474473E+03 -0.99833717020E+02  0.19351134548E+03  0.47000000000E+01 0. -1.
        -13    1    4    4    0    0 -0.57039832090E+02 -0.20664894180E+02 -0.14023786071E+02  0.62267542686E+02  0.00000000000E+00 0.  1.
         14    1    4    4    0    0  0.72264487961E+01  0.17452187540E+02 -0.46306105271E+02  0.50010556860E+02  0.00000000000E+00 0. -1.
         -5    1    5    5    0  502  0.39157405247E+02 -0.22996199158E+02 -0.12692056918E+03  0.13488160899E+03  0.47000000000E+01 0.  1.
         13    1    6    6    0    0  0.25555036470E+01  0.55169153004E+02 -0.64461975487E+02  0.84885289219E+02  0.00000000000E+00 0. -1.
        -14    1    6    6    0    0  0.67125736788E+02  0.12587449753E+03 -0.40448795546E+03  0.42890646973E+03  0.00000000000E+00 0.  1.
</event>
<event>
12    1  0.1032880E+000  0.4189173E+03  0.7818608E-02  0.1037451E+00
         21   -1    0    0  501  502  0.00000000000E+00  0.00000000000E+00  0.22296264703E+04  0.22296264703E+04  0.00000000000E+00 0.  1.
         21   -1    0    0  502  503 -0.00000000000E+00 -0.00000000000E+00 -0.87522756274E+02  0.87522756274E+02  0.00000000000E+00 0.  1.
         -6    2    1    2    0  503  0.56411522207E+02  0.37790740208E+03  0.14406665119E+04  0.15003371945E+04  0.17174234871E+03 0.  0.
        -24    2    3    3    0    0  0.10732990789E+03  0.29537624175E+03  0.10983839622E+04  0.11445514328E+04  0.69165168455E+02 0.  0.
          6    2    1    2  501    0 -0.56411522207E+02 -0.37790740208E+03  0.70143720207E+03  0.81681203201E+03  0.17079661239E+03 0.  0.
         24    2    5    5    0    0 -0.72505232759E+02 -0.12445469212E+03  0.28718291044E+03  0.33088406221E+03  0.79147074511E+02 0.  0.
          5    1    5    5  501    0  0.16093710552E+02 -0.25345270996E+03  0.41425429163E+03  0.48592796980E+03  0.47000000000E+01 0. -1.
        -11    1    6    6    0    0 -0.57895102793E+02 -0.40907669198E+02  0.79307394076E+02  0.10637172125E+03  0.00000000000E+00 0.  1.
         12    1    6    6    0    0 -0.14610129966E+02 -0.83547022919E+02  0.20787551637E+03  0.22451234096E+03  0.00000000000E+00 0. -1.
         -5    1    3    3    0  503 -0.50918385686E+02  0.82531160329E+02  0.34228254970E+03  0.35578576174E+03  0.47000000000E+01 0.  1.
         13    1    4    4    0    0  0.48873023984E+02  0.22269842095E+03  0.80842233782E+03  0.83995823436E+03  0.00000000000E+00 0. -1.
        -14    1    4    4    0    0  0.58456883909E+02  0.72677820795E+02  0.28996162441E+03  0.30459319845E+03  0.00000000000E+00 0.  1.
</event>
<event>
12    1  0.1032880E+000  0.4098083E+03  0.7818608E-02  0.1040461E+00
         21   -1    0    0  501  502  0.00000000000E+00  0.00000000000E+00  0.82884064845E+03  0.82884064845E+03  0.00000000000E+00 0. -1.
         21   -1    0    0  502  503 -0.00000000000E+00 -0.00000000000E+00 -0.31330081120E+03  0.31330081120E+03  0.00000000000E+00 0. -1.
         -6    2    1    2    0  503  0.10188154106E+03 -0.35754789075E+03  0.59735888889E+03  0.72424531479E+03  0.17167787066E+03 0.  0.
        -24    2    3    3    0    0  0.11727224006E+02 -0.17921565484E+02  0.71996107967E+02  0.92183622173E+02  0.53438472491E+02 0.  0.
          6    2    1    2  501    0 -0.10188154106E+03  0.35754789075E+03 -0.81819051633E+02  0.41789614486E+03  0.17240211161E+03 0.  0.
         24    2    5    5    0    0 -0.10261742917E+03  0.35161875678E+03 -0.10832811720E+03  0.39031867728E+03  0.80296961135E+02 0.  0.
          5    1    5    5  501    0  0.73588810219E+00  0.59291339686E+01  0.26509065566E+02  0.27577467580E+02  0.47000000000E+01 0. -1.
        -13    1    6    6    0    0 -0.19085547433E+02  0.63502363101E+02  0.11485052976E+02  0.67295725586E+02  0.00000000000E+00 0.  1.
         14    1    6    6    0    0 -0.83531881734E+02  0.28811639368E+03 -0.11981317017E+03  0.32302295169E+03  0.00000000000E+00 0. -1.
         -5    1    3    3    0  503  0.90154317058E+02 -0.33962632526E+03  0.52536278092E+03  0.63206169261E+03  0.47000000000E+01 0.  1.
         11    1    4    4    0    0  0.19880904360E+02  0.12234268740E+02  0.45835932650E+02  0.51437927755E+02  0.00000000000E+00 0. -1.
        -12    1    4    4    0    0 -0.81536803532E+01 -0.30155834224E+02  0.26160175317E+02  0.40745694418E+02  0.00000000000E+00 0.  1.
</event>
<event>
12    1  0.1032880E+000  0.2183782E+03  0.7818608E-02  0.1135581E+00
         21   -1    0    0  503  502  0.00000000000E+00  0.00000000000E+00  0.12075447904E+03  0.12075447904E+03  0.00000000000E+00 0. -1.
         21   -1    0    0  501  503 -0.00000000000E+00 -0.00000000000E+00 -0.41344455799E+03  0.41344455799E+03  0.00000000000E+00 0. -1.
          6    2    1    2  501    0 -0.13036296348E+03  0.33216435240E+02 -0.21031967995E+03  0.30318874557E+03  0.17202096922E+03 0.  0.
         24    2    3    3    0    0 -0.12813009674E+03  0.52151404932E+01 -0.84579147598E+02  0.17426307056E+03  0.82276765676E+02 0.  0.
         -6    2    1    2    0  502  0.13036296348E+03 -0.33216435240E+02 -0.82370398993E+02  0.23101029146E+03  0.16876918650E+03 0.  0.
        -24    2    5    5    0    0  0.80002383816E+01 -0.30437692908E+02 -0.46108871611E+01  0.85927592346E+02  0.79823767653E+02 0.  0.
          5    1    3    3  501    0 -0.22328667348E+01  0.28001294747E+02 -0.12574053235E+03  0.12892567501E+03  0.47000000000E+01 0. -1.
        -13    1    4    4    0    0  0.26332515421E+00 -0.19415305547E+01  0.12806645935E+02  0.12955657495E+02  0.00000000000E+00 0.  1.
         14    1    4    4    0    0 -0.12839342190E+03  0.71566710479E+01 -0.97385793533E+02  0.16130741306E+03  0.00000000000E+00 0. -1.
         -5    1    5    5    0  502  0.12236272510E+03 -0.27787423320E+01 -0.77759511832E+02  0.14508269911E+03  0.47000000000E+01 0.  1.
         11    1    6    6    0    0  0.41124639283E+01  0.19089229199E+02 -0.25429963088E+02  0.32062346352E+02  0.00000000000E+00 0. -1.
        -12    1    6    6    0    0  0.38877744533E+01 -0.49526922107E+02  0.20819075927E+02  0.53865245994E+02  0.00000000000E+00 0.  1.
</event>
<event>
12    1  0.1032880E+000  0.1774393E+03  0.7818608E-02  0.1170323E+00
         21   -1    0    0  501  502  0.00000000000E+00  0.00000000000E+00  0.79355147030E+03  0.79355147030E+03  0.00000000000E+00 0.  1.
         21   -1    0    0  502  503 -0.00000000000E+00 -0.00000000000E+00 -0.84667858694E+02  0.84667858694E+02  0.00000000000E+00 0.  1.
         -6    2    1    2    0  503  0.21351789142E+02 -0.40098862160E+02  0.67463340959E+03  0.69757792107E+03  0.17152521967E+03 0.  0.
        -24    2    3    3    0    0  0.62749239198E+02 -0.70480779977E+02  0.41356278472E+03  0.43146371444E+03  0.78878086970E+02 0.  0.
          6    2    1    2  501    0 -0.21351789142E+02  0.40098862160E+02  0.34250202010E+02  0.18064140792E+03  0.17144802207E+03 0.  0.
         24    2    5    5    0    0 -0.17659955475E+02 -0.13970797573E+02 -0.29116122510E+02  0.97127703520E+02  0.89883174115E+02 0.  0.
          5    1    5    5  501    0 -0.36918336670E+01  0.54069659733E+02  0.63366324520E+02  0.83513704400E+02  0.47000000000E+01 0. -1.
        -11    1    6    6    0    0  0.31299581095E+02 -0.27708531322E+02 -0.13782901764E+02  0.44015847894E+02  0.00000000000E+00 0.  1.
         12    1    6    6    0    0 -0.48959536570E+02  0.13737733749E+02 -0.15333220746E+02  0.53111855627E+02  0.00000000000E+00 0. -1.
         -5    1    3    3    0  503 -0.41397450057E+02  0.30381917817E+02  0.26107062488E+03  0.26611420664E+03  0.47000000000E+01 0.  1.
         11    1    4    4    0    0  0.60873946978E+02 -0.26457624195E+02  0.33383847443E+03  0.34037298704E+03  0.00000000000E+00 0. -1.
        -12    1    4    4    0    0  0.18752922209E+01 -0.44023155782E+02  0.79724310289E+02  0.91090727393E+02  0.00000000000E+00 0.  1.
</event>
<event>
12    1  0.1032880E+000  0.2103041E+03  0.7818608E-02  0.1143378E+00
         21   -1    0    0  501  502  0.00000000000E+00  0.00000000000E+00  0.79342122725E+03  0.79342122725E+03  0.00000000000E+00 0.  1.
         21   -1    0    0  502  503 -0.00000000000E+00 -0.00000000000E+00 -0.53504625036E+02  0.53504625036E+02  0.00000000000E+00 0.  1.
         -6    2    1    2    0  503  0.97443789244E+02 -0.33044491193E+02  0.39802630000E+03  0.44553226831E+03  0.17171731466E+03 0.  0.
        -24    2    3    3    0    0  0.11092040963E+03  0.17316236364E+02  0.21770519009E+03  0.25776748232E+03  0.80282848959E+02 0.  0.
          6    2    1    2  501    0 -0.97443789244E+02  0.33044491193E+02  0.34189030221E+03  0.40139358397E+03  0.18341374007E+03 0.  0.
         24    2    5    5    0    0 -0.79404634299E+02 -0.44136722783E+02  0.26404444100E+03  0.29019817485E+03  0.79008655337E+02 0.  0.
          5    1    5    5  501    0 -0.18039154944E+02  0.77181213976E+02  0.77845861210E+02  0.11119540912E+03  0.47000000000E+01 0. -1.
        -11    1    6    6    0    0 -0.62016745001E+02  0.88736777289E+01  0.16545178002E+03  0.17691554576E+03  0.00000000000E+00 0.  1.
         12    1    6    6    0    0 -0.17387889299E+02 -0.53010400512E+02  0.98592660979E+02  0.11328262910E+03  0.00000000000E+00 0. -1.
         -5    1    3    3    0  503 -0.13476620385E+02 -0.50360727557E+02  0.18032110991E+03  0.18776478599E+03  0.47000000000E+01 0.  1.
         13    1    4    4    0    0  0.32431938110E+02  0.44372680007E+02  0.89523408936E+02  0.10504858918E+03  0.00000000000E+00 0. -1.
        -14    1    4    4    0    0  0.78488471519E+02 -0.27056443642E+02  0.12818178115E+03  0.15271889314E+03  0.00000000000E+00 0.  1.
</event>
<event>
12    1  0.1032880E+000  0.2263862E+03  0.7818608E-02  0.1129226E+00
         21   -1    0    0  501  502  0.00000000000E+00  0.00000000000E+00  0.12670749637E+03  0.12670749637E+03  0.00000000000E+00 0. -1.
         21   -1    0    0  502  503 -0.00000000000E+00 -0.00000000000E+00 -0.49855572995E+03  0.49855572995E+03  0.00000000000E+00 0. -1.
         -6    2    1    2    0  503  0.14639320510E+03  0.20008894142E+02 -0.49968734183E+02  0.23174432693E+03  0.17139787725E+03 0.  0.
        -24    2    3    3    0    0  0.22898617671E+02  0.27281841079E+02 -0.62609860057E+02  0.10730278667E+03  0.79531427163E+02 0.  0.
          6    2    1    2  501    0 -0.14639320510E+03 -0.20008894142E+02 -0.32187949939E+03  0.39351889939E+03  0.17152080253E+03 0.  0.
         24    2    5    5    0    0 -0.76499397716E+02  0.52854556097E+01 -0.29346428172E+03  0.31380401348E+03  0.80446133149E+02 0.  0.
          5    1    5    5  501    0 -0.69893807380E+02 -0.25294349752E+02 -0.28415217670E+02  0.79714885904E+02  0.47000000000E+01 0. -1.
        -11    1    6    6    0    0 -0.86720274902E+02 -0.13739846293E+02 -0.21056519983E+03  0.22813788120E+03  0.00000000000E+00 0.  1.
         12    1    6    6    0    0  0.10220877186E+02  0.19025301903E+02 -0.82899081890E+02  0.85666132288E+02  0.00000000000E+00 0. -1.
         -5    1    3    3    0  503  0.12349458742E+03 -0.72729469372E+01  0.12641125874E+02  0.12444154027E+03  0.47000000000E+01 0.  1.
         13    1    4    4    0    0  0.42905206846E+02  0.64338159974E+01 -0.65174925272E+02  0.78294454766E+02  0.00000000000E+00 0. -1.
        -14    1    4    4    0    0 -0.20006589175E+02  0.20848025082E+02  0.25650652152E+01  0.29008331903E+02  0.00000000000E+00 0.  1.
</event>
<event>
12    1  0.1032880E+000  0.2571838E+03  0.7818608E-02  0.1109461E+00
         21   -1    0    0  503  502  0.00000000000E+00  0.00000000000E+00  0.55060918767E+03  0.55060918767E+03  0.00000000000E+00 0.  1.
         21   -1    0    0  501  503 -0.00000000000E+00 -0.00000000000E+00 -0.43926121387E+03  0.43926121387E+03  0.00000000000E+00 0.  1.
          6    2    1    2  501    0  0.56653950088E+02  0.18060300977E+03  0.47864457806E+03  0.54148408895E+03  0.16815846480E+03 0.  0.
         24    2    3    3    0    0 -0.15440675192E+02  0.13894037814E+03  0.37787159724E+03  0.41067623930E+03  0.79531040435E+02 0.  0.
         -6    2    1    2    0  502 -0.56653950088E+02 -0.18060300977E+03 -0.36729660425E+03  0.44838631260E+03  0.17411597466E+03 0.  0.
        -24    2    5    5    0    0  0.41286259144E+01 -0.69884049578E+02 -0.26555064300E+03  0.28612867696E+03  0.80322162851E+02 0.  0.
          5    1    3    3  501    0  0.72094625280E+02  0.41662631628E+02  0.10077298081E+03  0.13080784965E+03  0.47000000000E+01 0. -1.
        -13    1    4    4    0    0  0.22256333531E+02  0.28555140354E+02  0.43797710625E+02  0.56824113534E+02  0.00000000000E+00 0.  1.
         14    1    4    4    0    0 -0.37697008723E+02  0.11038523778E+03  0.33407388662E+03  0.35385212576E+03  0.00000000000E+00 0. -1.
         -5    1    5    5    0  502 -0.60782576002E+02 -0.11071896019E+03 -0.10174596125E+03  0.16225763563E+03  0.47000000000E+01 0.  1.
         13    1    6    6    0    0  0.18922244600E+02 -0.79845984114E+02 -0.16809429769E+03  0.18705380359E+03  0.00000000000E+00 0. -1.
        -14    1    6    6    0    0 -0.14793618686E+02  0.99619345360E+01 -0.97456345306E+02  0.99074873373E+02  0.00000000000E+00 0.  1.
</event>
<event>
12    1  0.1032880E+000  0.2132046E+03  0.7818608E-02  0.1139105E+00
         21   -1    0    0  503  502  0.00000000000E+00  0.00000000000E+00  0.17969996751E+04  0.17969996751E+04  0.00000000000E+00 0. -1.
         21   -1    0    0  501  503 -0.00000000000E+00 -0.00000000000E+00 -0.29815746886E+02  0.29815746886E+02  0.00000000000E+00 0.  1.
          6    2    1    2  501    0  0.10284396593E+03  0.72176690743E+02  0.12400190864E+04  0.12581687964E+04  0.17191576290E+03 0.  0.
         24    2    3    3    0    0  0.85902163002E+02  0.51183024988E+02  0.12120927691E+04  0.12190570605E+04  0.83260747698E+02 0.  0.
         -6    2    1    2    0  502 -0.10284396593E+03 -0.72176690743E+02  0.52716484181E+03  0.56864662560E+03  0.17224940741E+03 0.  0.
        -24    2    5    5    0    0 -0.34646821536E+02 -0.66508500326E+02  0.13202817200E+03  0.16760042288E+03  0.70955483869E+02 0.  0.
          5    1    3    3  501    0  0.16941802926E+02  0.20993665755E+02  0.27926317293E+02  0.39111735909E+02  0.47000000000E+01 0. -1.
        -13    1    4    4    0    0 -0.10439573882E+02 -0.10713552090E+02  0.18385683122E+03  0.18446435777E+03  0.00000000000E+00 0.  1.
         14    1    4    4    0    0  0.96341736884E+02  0.61896577078E+02  0.10282359379E+04  0.10345927027E+04  0.00000000000E+00 0. -1.
         -5    1    5    5    0  502 -0.68197144392E+02 -0.56681904175E+01  0.39513666981E+03  0.40104620272E+03  0.47000000000E+01 0.  1.
         13    1    6    6    0    0 -0.11427846489E+02 -0.56760074032E+02  0.13003107571E+03  0.14233896982E+03  0.00000000000E+00 0. -1.
        -14    1    6    6    0    0 -0.23218975047E+02 -0.97484262941E+01  0.19970962948E+01  0.25261453067E+02  0.00000000000E+00 0.  1.
</event>
<event>
12    1  0.1032880E+000  0.1787538E+03  0.7818608E-02  0.1169045E+00
         21   -1    0    0  503  502  0.00000000000E+00  0.00000000000E+00  0.16673017473E+03  0.16673017473E+03  0.00000000000E+00 0.  1.
         21   -1    0    0  501  503 -0.00000000000E+00 -0.00000000000E+00 -0.23415569990E+03  0.23415569990E+03  0.00000000000E+00 0.  1.
          6    2    1    2  501    0  0.47224933267E+02  0.10931373772E+02 -0.11926217378E+03  0.21488692277E+03  0.17205590437E+03 0.  0.
         24    2    3    3    0    0 -0.17473593349E+02  0.16951958857E+02 -0.12376111285E+03  0.14958395773E+03  0.80410521581E+02 0.  0.
         -6    2    1    2    0  502 -0.47224933267E+02 -0.10931373772E+02  0.51836648617E+02  0.18599895186E+03  0.17192696908E+03 0.  0.
        -24    2    5    5    0    0  0.14223055413E+02  0.55347180967E+01  0.81934822150E+02  0.11546543115E+03  0.79912591620E+02 0.  0.
          5    1    3    3  501    0  0.64698526617E+02 -0.60205850853E+01  0.44989390695E+01  0.65302965047E+02  0.47000000000E+01 0. -1.
        -11    1    4    4    0    0 -0.21946273285E+02  0.48246908033E+01  0.25487596095E+01  0.22614436274E+02  0.00000000000E+00 0.  1.
         12    1    4    4    0    0  0.44726799363E+01  0.12127268054E+02 -0.12630987246E+03  0.12696952145E+03  0.00000000000E+00 0. -1.
         -5    1    5    5    0  502 -0.61447988680E+02 -0.16466091868E+02 -0.30098173533E+02  0.70533520714E+02  0.47000000000E+01 0.  1.
         11    1    6    6    0    0 -0.15261246910E+02 -0.18034534068E+02  0.72927315267E+02  0.76658615878E+02  0.00000000000E+00 0. -1.
        -12    1    6    6    0    0  0.29484302323E+02  0.23569252165E+02  0.90075068829E+01  0.38806815269E+02  0.00000000000E+00 0.  1.
</event>
<event>
12    1  0.1032880E+000  0.2136075E+03  0.7818608E-02  0.1138785E+00
         21   -1    0    0  503  502  0.00000000000E+00  0.00000000000E+00  0.16618799292E+03  0.16618799292E+03  0.00000000000E+00 0. -1.
         21   -1    0    0  501  503 -0.00000000000E+00 -0.00000000000E+00 -0.39643027922E+03  0.39643027922E+03  0.00000000000E+00 0. -1.
          6    2    1    2  501    0 -0.10599349143E+02  0.12700637076E+03  0.41081976820E+02  0.21729952642E+03  0.17113851391E+03 0.  0.
         24    2    3    3    0    0 -0.55400262588E+02  0.10533014445E+03  0.73897334195E+02  0.15750054388E+03  0.71985949302E+02 0.  0.
         -6    2    1    2    0  502  0.10599349143E+02 -0.12700637076E+03 -0.27132426312E+03  0.34531874572E+03  0.17142116549E+03 0.  0.
        -24    2    5    5    0    0 -0.18061867040E+02  0.27263604796E+00 -0.90848411129E+02  0.12257442136E+03  0.80279197772E+02 0.  0.
          5    1    3    3  501    0  0.44800913444E+02  0.21676226308E+02 -0.32815357375E+02  0.59798982533E+02  0.47000000000E+01 0. -1.
        -11    1    4    4    0    0 -0.64902580462E+02  0.50273073644E+02  0.34057406480E+02  0.88879884228E+02  0.00000000000E+00 0.  1.
         12    1    4    4    0    0  0.95023178746E+01  0.55057070810E+02  0.39839927715E+02  0.68620659655E+02  0.00000000000E+00 0. -1.
         -5    1    5    5    0  502  0.28661216184E+02 -0.12727900681E+03 -0.18047585199E+03  0.22274432437E+03  0.47000000000E+01 0.  1.
         13    1    6    6    0    0 -0.12557621032E+02 -0.34927149524E+02 -0.74793534797E+02  0.83496541649E+02  0.00000000000E+00 0. -1.
        -14    1    6    6    0    0 -0.55042460085E+01  0.35199785572E+02 -0.16054876332E+02  0.39077879708E+02  0.00000000000E+00 0.  1.
</event>
<event>
12    1  0.1032880E+000  0.1725303E+03  0.7818608E-02  0.1175249E+00
         21   -1    0    0  503  502  0.00000000000E+00  0.00000000000E+00  0.12434576183E+03  0.12434576183E+03  0.00000000000E+00 0. -1.
         21   -1    0    0  501  503 -0.00000000000E+00 -0.00000000000E+00 -0.24852965365E+03  0.24852965365E+03  0.00000000000E+00 0. -1.
          6    2    1    2  501    0  0.15635215252E+02  0.28745045836E+01 -0.26165168422E+02  0.17444563593E+03  0.17173800140E+03 0.  0.
         24    2    3    3    0    0 -0.33576836646E+02  0.11634382614E+02 -0.66216794842E+02  0.11022115233E+03  0.80630488552E+02 0.  0.
         -6    2    1    2    0  502 -0.15635215252E+02 -0.28745045836E+01 -0.98018723396E+02  0.19842977954E+03  0.17179634612E+03 0.  0.
        -24    2    5    5    0    0 -0.61873029222E+02  0.15672846649E+01 -0.11377531821E+03  0.14915478373E+03  0.73970253134E+02 0.  0.
          5    1    3    3  501    0  0.49212051898E+02 -0.87598780308E+01  0.40051626420E+02  0.64224483602E+02  0.47000000000E+01 0. -1.
        -11    1    4    4    0    0  0.22669577193E+02 -0.13116701446E+02 -0.25148583724E+02  0.36309900168E+02  0.00000000000E+00 0.  1.
         12    1    4    4    0    0 -0.56246413838E+02  0.24751084060E+02 -0.41068211118E+02  0.73911252163E+02  0.00000000000E+00 0. -1.
         -5    1    5    5    0  502  0.46237813969E+02 -0.44417892485E+01  0.15756594811E+02  0.49274995814E+02  0.47000000000E+01 0.  1.
         11    1    6    6    0    0 -0.59648596612E+02  0.80241916767E-01 -0.32677989014E+02  0.68013325772E+02  0.00000000000E+00 0. -1.
        -12    1    6    6    0    0 -0.22244326099E+01  0.14870427481E+01 -0.81097329193E+02  0.81141457954E+02  0.00000000000E+00 0.  1.
</event>
<event>
12    1  0.1032880E+000  0.1997094E+03  0.7818608E-02  0.1150178E+00
         21   -1    0    0  503  502  0.00000000000E+00  0.00000000000E+00  0.17212486022E+02  0.17212486022E+02  0.00000000000E+00 0. -1.
         21   -1    0    0  501  503 -0.00000000000E+00 -0.00000000000E+00 -0.26841580000E+04  0.26841580000E+04  0.00000000000E+00 0. -1.
          6    2    1    2  501    0 -0.10114968590E+03  0.24444848477E+02 -0.18427160161E+04  0.18535064534E+04  0.17045541129E+03 0.  0.
         24    2    3    3    0    0 -0.10611040785E+03  0.56073317806E+02 -0.10193085959E+04  0.10294634700E+04  0.80008666950E+02 0.  0.
         -6    2    1    2    0  502  0.10114968590E+03 -0.24444848477E+02 -0.82422949788E+03  0.84786403262E+03  0.16938223952E+03 0.  0.
        -24    2    5    5    0    0  0.26289437108E+02 -0.14064350353E+02 -0.18608321942E+03  0.20524083486E+03  0.81288961673E+02 0.  0.
          5    1    3    3  501    0  0.49607219585E+01 -0.31628469329E+02 -0.82340742022E+03  0.82404298341E+03  0.47000000000E+01 0. -1.
        -13    1    4    4    0    0 -0.58454196587E+02  0.91404540915E+01 -0.73566401864E+03  0.73803928711E+03  0.00000000000E+00 0.  1.
         14    1    4    4    0    0 -0.47656211268E+02  0.46932863715E+02 -0.28364457721E+03  0.29142418285E+03  0.00000000000E+00 0. -1.
         -5    1    5    5    0  502  0.74860248788E+02 -0.10380498124E+02 -0.63814627846E+03  0.64262319777E+03  0.47000000000E+01 0.  1.
         11    1    6    6    0    0  0.23351160544E+02  0.32366972075E+02 -0.91946720644E+02  0.10023520847E+03  0.00000000000E+00 0. -1.
        -12    1    6    6    0    0  0.29382765643E+01 -0.46431322427E+02 -0.94136498772E+02  0.10500562638E+03  0.00000000000E+00 0.  1.
</event>
<event>
12    1  0.1032880E+000  0.1913583E+03  0.7818608E-02  0.1157247E+00
         21   -1    0    0  501  502  0.00000000000E+00  0.00000000000E+00  0.66766333052E+03  0.66766333052E+03  0.00000000000E+00 0. -1.
         21   -1    0    0  502  503 -0.00000000000E+00 -0.00000000000E+00 -0.55031128489E+02  0.55031128489E+02  0.00000000000E+00 0. -1.
         -6    2    1    2    0  503 -0.13521010360E+02 -0.83706011519E+02  0.28495202149E+03  0.34323127738E+03  0.17152417072E+03 0.  0.
        -24    2    3    3    0    0 -0.35225838292E+02  0.80435742080E+00  0.77527301663E+02  0.11815305452E+03  0.81903327864E+02 0.  0.
          6    2    1    2  501    0  0.13521010360E+02  0.83706011519E+02  0.32768018055E+03  0.37946318163E+03  0.17154734449E+03 0.  0.
         24    2    5    5    0    0 -0.67681301965E+01  0.12155940669E+03  0.27829167344E+03  0.31384425612E+03  0.78926957697E+02 0.  0.
          5    1    5    5  501    0  0.20289140556E+02 -0.37853395171E+02  0.49388507107E+02  0.65618925508E+02  0.47000000000E+01 0. -1.
        -11    1    6    6    0    0 -0.25596784802E+02  0.12311287219E+02  0.27012600861E+02  0.39197497247E+02  0.00000000000E+00 0.  1.
         12    1    6    6    0    0  0.18828654605E+02  0.10924811947E+03  0.25127907258E+03  0.27464675887E+03  0.00000000000E+00 0. -1.
         -5    1    3    3    0  503  0.21704827932E+02 -0.84510368939E+02  0.20742471982E+03  0.22507822286E+03  0.47000000000E+01 0.  1.
         11    1    4    4    0    0  0.13163525681E+02  0.41727936046E+01 -0.10700869628E+02  0.17469952078E+02  0.00000000000E+00 0. -1.
        -12    1    4    4    0    0 -0.48389363973E+02 -0.33684361838E+01  0.88228171291E+02  0.10068310244E+03  0.00000000000E+00 0.  1.
</event>
<event>
12    1  0.1248614E+000  0.1810170E+03  0.7818608E-02  0.1167372E+00
         21   -1    0    0  501  502  0.00000000000E+00  0.00000000000E+00  0.13609396298E+03  0.13609396298E+03  0.00000000000E+00 0. -1.
         21   -1    0    0  502  503 -0.00000000000E+00 -0.00000000000E+00 -0.92361700597E+03  0.92361700597E+03  0.00000000000E+00 0. -1.
         -6    2    1    2    0  503  0.45184412401E+02 -0.21515651381E+02  0.62189195932E+02  0.19140177249E+03  0.17396145563E+03 0.  0.
        -24    2    3    3    0    0  0.38406393864E+01 -0.62367295223E+02  0.81391575954E+02  0.13000970647E+03  0.79834235243E+02 0.  0.
          6    2    1    2  501    0 -0.45184412401E+02  0.21515651381E+02 -0.84971223892E+03  0.86830919646E+03  0.17159667042E+03 0.  0.
         24    2    5    5    0    0 -0.22695265408E+02 -0.26035401285E+02 -0.76070620321E+03  0.76481509645E+03  0.71241048367E+02 0.  0.
          5    1    5    5  501    0 -0.22489146993E+02  0.47551052666E+02 -0.89006035716E+02  0.10349410001E+03  0.47000000000E+01 0. -1.
        -11    1    6    6    0    0 -0.34640147047E+02 -0.16610071484E+02 -0.18690784388E+03  0.19081503181E+03  0.00000000000E+00 0.  1.
         12    1    6    6    0    0  0.11944881640E+02 -0.94253298009E+01 -0.57379835933E+03  0.57400006464E+03  0.00000000000E+00 0. -1.
         -5    1    3    3    0  503  0.41343773014E+02  0.40851643841E+02 -0.19202380021E+02  0.61392066019E+02  0.47000000000E+01 0.  1.
         11    1    4    4    0    0 -0.89246207918E+01 -0.62936890465E+02  0.19032069895E+02  0.66354507926E+02  0.00000000000E+00 0. -1.
        -12    1    4    4    0    0  0.12765260178E+02  0.56959524200E+00  0.62359506059E+02  0.63655198547E+02  0.00000000000E+00 0.  1.
</event>
<event>
12    1  0.1032880E+000  0.2733265E+03  0.7818608E-02  0.1099884E+00
         21   -1    0    0  501  502  0.00000000000E+00  0.00000000000E+00  0.89262855647E+03  0.89262855647E+03  0.00000000000E+00 0.  1.
         21   -1    0    0  502  503 -0.00000000000E+00 -0.00000000000E+00 -0.93031628709E+02  0.93031628709E+02  0.00000000000E+00 0.  1.
         -6    2    1    2    0  503  0.20877052482E+03  0.14850375142E+02  0.23274626538E+03  0.35635338959E+03  0.17032688732E+03 0.  0.
        -24    2    3    3    0    0  0.17892409931E+03  0.32487688707E+02  0.10653851798E+03  0.22538633476E+03  0.79870275146E+02 0.  0.
          6    2    1    2  501    0 -0.20877052482E+03 -0.14850375142E+02  0.56685066238E+03  0.62930679560E+03  0.17578880472E+03 0.  0.
         24    2    5    5    0    0 -0.57299906682E+02 -0.25930837065E+02  0.11681220332E+03  0.15430908041E+03  0.78806813386E+02 0.  0.
          5    1    5    5  501    0 -0.15147061814E+03  0.11080461923E+02  0.45003845906E+03  0.47499771518E+03  0.47000000000E+01 0. -1.
        -11    1    6    6    0    0 -0.36427838366E+02  0.16035954099E+02  0.15560136365E+02  0.42734729150E+02  0.00000000000E+00 0.  1.
         12    1    6    6    0    0 -0.20872068316E+02 -0.41966791164E+02  0.10125206696E+03  0.11157435126E+03  0.00000000000E+00 0. -1.
         -5    1    3    3    0  503  0.29846425507E+02 -0.17637313565E+02  0.12620774740E+03  0.13096705482E+03  0.47000000000E+01 0.  1.
         13    1    4    4    0    0  0.51330102713E+02  0.42194558773E+02  0.15182348648E+02  0.68159107573E+02  0.00000000000E+00 0. -1.
        -14    1    4    4    0    0  0.12759399660E+03 -0.97068700664E+01  0.91356169334E+02  0.15722722719E+03  0.00000000000E+00 0.  1.
</event>
<event>
12    1  0.1032880E+000  0.2901499E+03  0.7818608E-02  0.1090474E+00
         21   -1    0    0  501  502  0.00000000000E+00  0.00000000000E+00  0.22802913876E+03  0.22802913876E+03  0.00000000000E+00 0. -1.
         21   -1    0    0  502  503 -0.00000000000E+00 -0.00000000000E+00 -0.39299830594E+03  0.39299830594E+03  0.00000000000E+00 0. -1.
         -6    2    1    2    0  503 -0.84692351876E+02  0.21804721214E+03 -0.27520149881E+01  0.28860995262E+03  0.16902884361E+03 0.  0.
        -24    2    3    3    0    0 -0.74540229559E+02  0.87503940108E+02  0.48960953798E+02  0.14775210725E+03  0.78869036019E+02 0.  0.
          6    2    1    2  501    0  0.84692351876E+02 -0.21804721214E+03 -0.16221715219E+03  0.33241749208E+03  0.17166712960E+03 0.  0.
         24    2    5    5    0    0  0.37775826748E+02 -0.27380750989E+02 -0.63890024901E+02  0.11276965189E+03  0.80363800896E+02 0.  0.
          5    1    5    5  501    0  0.46916525128E+02 -0.19066646115E+03 -0.98327127293E+02  0.21964784019E+03  0.47000000000E+01 0. -1.
        -13    1    6    6    0    0 -0.19617294680E+02 -0.23536419432E+02 -0.61184566866E+01  0.31244788405E+02  0.00000000000E+00 0.  1.
         14    1    6    6    0    0  0.57393121428E+02 -0.38443315570E+01 -0.57771568215E+02  0.81524863486E+02  0.00000000000E+00 0. -1.
         -5    1    3    3    0  503 -0.10152122317E+02  0.13054327203E+03 -0.51712968786E+02  0.14085784537E+03  0.47000000000E+01 0.  1.
         11    1    4    4    0    0 -0.82683170367E+02  0.93857532641E+02  0.54022199598E+02  0.13625028860E+03  0.00000000000E+00 0. -1.
        -12    1    4    4    0    0  0.81429408078E+01 -0.63535925332E+01 -0.50612458003E+01  0.11501818644E+02  0.00000000000E+00 0.  1.
</event>
<event>
12    1  0.1032880E+000  0.2056840E+03  0.7818608E-02  0.1145042E+00
         21   -1    0    0  503  502  0.00000000000E+00  0.00000000000E+00  0.52037971668E+03  0.52037971668E+03  0.00000000000E+00 0.  1.
         21   -1    0    0  501  503 -0.00000000000E+00 -0.00000000000E+00 -0.13555102319E+03  0.13555102319E+03  0.00000000000E+00 0.  1.
          6    2    1    2  501    0  0.51441809865E+02 -0.10135478928E+03  0.39992794108E+03  0.44969326552E+03  0.17135525052E+03 0.  0.
         24    2    3    3    0    0  0.30478058391E+02  0.93378606825E+01  0.12017978901E+03  0.14807519540E+03  0.80417498851E+02 0.  0.
         -6    2    1    2    0  502 -0.51441809865E+02  0.10135478928E+03 -0.15099247594E+02  0.20623747436E+03  0.17142594739E+03 0.  0.
        -24    2    5    5    0    0 -0.43698033476E+02  0.11048465663E+03  0.40748043204E+02  0.14892839619E+03  0.80018039756E+02 0.  0.
          5    1    3    3  501    0  0.20963751474E+02 -0.11069264997E+03  0.27974815208E+03  0.30161807012E+03  0.47000000000E+01 0. -1.
        -11    1    4    4    0    0  0.42224251005E+00  0.15540895937E+02  0.11607634370E+03  0.11711283150E+03  0.00000000000E+00 0.  1.
         12    1    4    4    0    0  0.30055815881E+02 -0.62030352546E+01  0.41034453028E+01  0.30962363895E+02  0.00000000000E+00 0. -1.
         -5    1    5    5    0  502 -0.77437763886E+01 -0.91298673495E+01 -0.55847290798E+02  0.57309078165E+02  0.47000000000E+01 0.  1.
         11    1    6    6    0    0 -0.61130592910E+02  0.59523512751E+02  0.41899913426E+02  0.95055776809E+02  0.00000000000E+00 0. -1.
        -12    1    6    6    0    0  0.17432559433E+02  0.50961143883E+02 -0.11518702217E+01  0.53872619384E+02  0.00000000000E+00 0.  1.
</event>
<event>
12    1  0.1032880E+000  0.2379533E+03  0.7818608E-02  0.1121264E+00
         21   -1    0    0  503  502  0.00000000000E+00  0.00000000000E+00  0.45363475270E+03  0.45363475270E+03  0.00000000000E+00 0. -1.
         21   -1    0    0  501  503 -0.00000000000E+00 -0.00000000000E+00 -0.16563232827E+03  0.16563232827E+03  0.00000000000E+00 0. -1.
          6    2    1    2  501    0  0.14192412745E+03 -0.83432327147E+02  0.29815344840E+03  0.38109738484E+03  0.17098633504E+03 0.  0.
         24    2    3    3    0    0  0.12852662001E+02 -0.56074930505E+01  0.14310424658E+03  0.16481402214E+03  0.80549373706E+02 0.  0.
         -6    2    1    2    0  502 -0.14192412745E+03  0.83432327147E+02 -0.10151023977E+02  0.23816969614E+03  0.17180905012E+03 0.  0.
        -24    2    5    5    0    0 -0.16765432154E+03  0.60000924506E+02  0.13942371640E+02  0.19558266490E+03  0.79687556174E+02 0.  0.
          5    1    3    3  501    0  0.12907146545E+03 -0.77824834097E+02  0.15504920182E+03  0.21628336270E+03  0.47000000000E+01 0. -1.
        -11    1    4    4    0    0  0.44886669529E+02  0.81436803475E+01  0.95221993591E+02  0.10558579779E+03  0.00000000000E+00 0.  1.
         12    1    4    4    0    0 -0.32034007528E+02 -0.13751173398E+02  0.47882252993E+02  0.59228224352E+02  0.00000000000E+00 0. -1.
         -5    1    5    5    0  502  0.25730194084E+02  0.23431402642E+02 -0.24093395617E+02  0.42587031239E+02  0.47000000000E+01 0.  1.
         13    1    6    6    0    0 -0.64163000191E+02 -0.10272013224E+02 -0.16070464478E+02  0.66937767201E+02  0.00000000000E+00 0. -1.
        -14    1    6    6    0    0 -0.10349132135E+03  0.70272937730E+02  0.30012836118E+02  0.12864489770E+03  0.00000000000E+00 0.  1.
</event>
<event>
12    1  0.1032880E+000  0.2186877E+03  0.7818608E-02  0.1134970E+00
         21   -1    0    0  501  502  0.00000000000E+00  0.00000000000E+00  0.20887256315E+03  0.20887256315E+03  0.00000000000E+00 0. -1.
         21   -1    0    0  502  503 -0.00000000000E+00 -0.00000000000E+00 -0.22840465554E+03  0.22840465554E+03  0.00000000000E+00 0. -1.
         -6    2    1    2    0  503  0.13151641706E+03  0.29087747996E+02 -0.76135798653E+01  0.21882020128E+03  0.17228362908E+03 0.  0.
        -24    2    3    3    0    0  0.96671865139E+02 -0.45980622728E+02 -0.20074184808E+02  0.13499443103E+03  0.79754976888E+02 0.  0.
          6    2    1    2  501    0 -0.13151641706E+03 -0.29087747996E+02 -0.11918512525E+02  0.21845701740E+03  0.17157724928E+03 0.  0.
         24    2    5    5    0    0 -0.48442331176E+02  0.41694806770E+02  0.20993632158E+02  0.10436594382E+03  0.79789731645E+02 0.  0.
          5    1    5    5  501    0 -0.83074085884E+02 -0.70782554766E+02 -0.32912144684E+02  0.11409107359E+03  0.47000000000E+01 0. -1.
        -13    1    6    6    0    0 -0.55906269802E+01  0.16556295939E+02 -0.29017164692E+02  0.33872730802E+02  0.00000000000E+00 0.  1.
         14    1    6    6    0    0 -0.42851704195E+02  0.25138510831E+02  0.50010796851E+02  0.70493213013E+02  0.00000000000E+00 0. -1.
         -5    1    3    3    0  503  0.34844551920E+02  0.75068370724E+02  0.12460604942E+02  0.83825770245E+02  0.47000000000E+01 0.  1.
         11    1    4    4    0    0  0.33358562883E+02  0.71632171117E+01 -0.37307141729E+02  0.50556188751E+02  0.00000000000E+00 0. -1.
        -12    1    4    4    0    0  0.63313302256E+02 -0.53143839839E+02  0.17232956922E+02  0.84438242282E+02  0.00000000000E+00 0.  1.
</event>
<event>
12    1  0.1032880E+000  0.2847658E+03  0.7818608E-02  0.1093131E+00
         21   -1    0    0  503  502  0.00000000000E+00  0.00000000000E+00  0.35452936164E+03  0.35452936164E+03  0.00000000000E+00 0. -1.
         21   -1    0    0  501  503 -0.00000000000E+00 -0.00000000000E+00 -0.23075833402E+03  0.23075833402E+03  0.00000000000E+00 0. -1.
          6    2    1    2  501    0  0.13183384901E+03 -0.18560190933E+03  0.33799054133E+02  0.28676464302E+03  0.17106534405E+03 0.  0.
         24    2    3    3    0    0  0.60179808532E+02 -0.18170128217E+03  0.63209249964E+02  0.20906930193E+03  0.55476106845E+02 0.  0.
         -6    2    1    2    0  502 -0.13183384901E+03  0.18560190933E+03  0.89971973484E+02  0.29852305265E+03  0.17085907778E+03 0.  0.
        -24    2    5    5    0    0 -0.13645070535E+03  0.76588777542E+02  0.50455439687E+02  0.18238165302E+03  0.78947325028E+02 0.  0.
          5    1    3    3  501    0  0.71654040475E+02 -0.39006271598E+01 -0.29410195830E+02  0.77695341092E+02  0.47000000000E+01 0. -1.
        -13    1    4    4    0    0  0.60200504100E+02 -0.10734724094E+03  0.25458558638E+02  0.12568082208E+03  0.00000000000E+00 0.  1.
         14    1    4    4    0    0 -0.20695567379E-01 -0.74354041224E+02  0.37750691326E+02  0.83388479841E+02  0.00000000000E+00 0. -1.
         -5    1    5    5    0  502  0.46168563415E+01  0.10901313178E+03  0.39516533797E+02  0.11614139963E+03  0.47000000000E+01 0.  1.
         11    1    6    6    0    0 -0.28225993971E+02  0.53434422618E+02  0.37084995216E+02  0.70903040318E+02  0.00000000000E+00 0. -1.
        -12    1    6    6    0    0 -0.10822471138E+03  0.23154354924E+02  0.13370444471E+02  0.11147861270E+03  0.00000000000E+00 0.  1.
</event>
<event>
12    1  0.1032880E+000  0.1980076E+03  0.7818608E-02  0.1151620E+00
         21   -1    0    0  503  502  0.00000000000E+00  0.00000000000E+00  0.13308706814E+03  0.13308706814E+03  0.00000000000E+00 0. -1.
         21   -1    0    0  501  503 -0.00000000000E+00 -0.00000000000E+00 -0.75512669934E+03  0.75512669934E+03  0.00000000000E+00 0. -1.
          6    2    1    2  501    0  0.83187092829E+02 -0.49856589305E+02  0.36025204134E+02  0.20125807980E+03  0.17263032017E+03 0.  0.
         24    2    3    3    0    0 -0.11998084194E+02 -0.63005074159E+02  0.61712144321E+01  0.10052848494E+03  0.77164104369E+02 0.  0.
         -6    2    1    2    0  502 -0.83187092829E+02  0.49856589305E+02 -0.65806483533E+03  0.68695568767E+03  0.17161881430E+03 0.  0.
        -24    2    5    5    0    0  0.22193100666E+01 -0.20225023153E+02 -0.21145227805E+03  0.22685727170E+03  0.79612680729E+02 0.  0.
          5    1    3    3  501    0  0.95185177024E+02  0.13148484854E+02  0.29853989702E+02  0.10072959486E+03  0.47000000000E+01 0. -1.
        -11    1    4    4    0    0  0.10873962471E+02 -0.28819884880E+02  0.37714246838E+02  0.48694899516E+02  0.00000000000E+00 0.  1.
         12    1    4    4    0    0 -0.22872046666E+02 -0.34185189279E+02 -0.31543032406E+02  0.51833585426E+02  0.00000000000E+00 0. -1.
         -5    1    5    5    0  502 -0.85406402896E+02  0.70081612458E+02 -0.44661255728E+03  0.46009841598E+03  0.47000000000E+01 0.  1.
         13    1    6    6    0    0  0.34029527297E+02  0.65682605305E+01 -0.13958359993E+03  0.14382187645E+03  0.00000000000E+00 0. -1.
        -14    1    6    6    0    0 -0.31810217231E+02 -0.26793283683E+02 -0.71868678112E+02  0.83035395250E+02  0.00000000000E+00 0.  1.
</event>
<event>
12    1  0.1032880E+000  0.2211468E+03  0.7818608E-02  0.1133254E+00
         21   -1    0    0  503  502  0.00000000000E+00  0.00000000000E+00  0.16483184937E+03  0.16483184937E+03  0.00000000000E+00 0.  1.
         21   -1    0    0  501  503 -0.00000000000E+00 -0.00000000000E+00 -0.31894677305E+03  0.31894677305E+03  0.00000000000E+00 0.  1.
          6    2    1    2  501    0  0.54207186565E+02  0.12767998380E+03 -0.11101794811E+02  0.22142533195E+03  0.17223626343E+03 0.  0.
         24    2    3    3    0    0 -0.31104370531E+02  0.97580505890E+02  0.23299842056E+01  0.12984726125E+03  0.79783741655E+02 0.  0.
         -6    2    1    2    0  502 -0.54207186565E+02 -0.12767998380E+03 -0.14301312886E+03  0.26235329048E+03  0.17069240363E+03 0.  0.
        -24    2    5    5    0    0 -0.66944181072E+02 -0.14488779624E+03 -0.80178900790E+02  0.19580578823E+03  0.80232497735E+02 0.  0.
          5    1    3    3  501    0  0.85311557095E+02  0.30099477912E+02 -0.13431779016E+02  0.91578070695E+02  0.47000000000E+01 0. -1.
        -11    1    4    4    0    0  0.14710224644E+02  0.61024137969E+01 -0.19558769563E+02  0.25222522278E+02  0.00000000000E+00 0.  1.
         12    1    4    4    0    0 -0.45814595175E+02  0.91478092093E+02  0.21888753768E+02  0.10462473897E+03  0.00000000000E+00 0. -1.
         -5    1    5    5    0  502  0.12736994507E+02  0.17207812439E+02 -0.62834228073E+02  0.66547502249E+02  0.47000000000E+01 0.  1.
         11    1    6    6    0    0 -0.33433822991E+02 -0.11309462019E+03 -0.90280047808E+02  0.14852171783E+03  0.00000000000E+00 0. -1.
        -12    1    6    6    0    0 -0.33510358081E+02 -0.31793176052E+02  0.10101147018E+02  0.47284070397E+02  0.00000000000E+00 0.  1.
</event>
<event>
12    1  0.1032880E+000  0.1807080E+03  0.7818608E-02  0.1167472E+00
         21   -1    0    0  503  502  0.00000000000E+00  0.00000000000E+00  0.30991290245E+03  0.30991290245E+03  0.00000000000E+00 0.  1.
         21   -1    0    0  501  503 -0.00000000000E+00 -0.00000000000E+00 -0.10453294993E+03  0.10453294993E+03  0.00000000000E+00 0.  1.
          6    2    1    2  501    0  0.23788528694E+02 -0.51358341289E+02  0.10095770845E+03  0.20699723473E+03  0.17161533432E+03 0.  0.
         24    2    3    3    0    0 -0.10032145862E+02 -0.58325110365E+02  0.29979008830E+01  0.10302325819E+03  0.84275393025E+02 0.  0.
         -6    2    1    2    0  502 -0.23788528694E+02  0.51358341289E+02  0.10442224406E+03  0.20744861765E+03  0.17008042389E+03 0.  0.
        -24    2    5    5    0    0  0.25684903696E+01  0.86292118290E+02  0.11339526151E+03  0.16253017743E+03  0.78132236763E+02 0.  0.
          5    1    3    3  501    0  0.33820674556E+02  0.69667690752E+01  0.97959807567E+02  0.10397397654E+03  0.47000000000E+01 0. -1.
        -11    1    4    4    0    0 -0.16588381136E+02  0.83386784498E+01 -0.24392203240E+02  0.30654323119E+02  0.00000000000E+00 0.  1.
         12    1    4    4    0    0  0.65562352739E+01 -0.66663788814E+02  0.27390104123E+02  0.72368935075E+02  0.00000000000E+00 0. -1.
         -5    1    5    5    0  502 -0.26357019063E+02 -0.34933777001E+02 -0.89730174441E+01  0.44918440217E+02  0.47000000000E+01 0.  1.
         13    1    6    6    0    0 -0.16948628566E+02  0.39784105311E+02  0.57111380045E+01  0.43619355142E+02  0.00000000000E+00 0. -1.
        -14    1    6    6    0    0  0.19517118936E+02  0.46508012979E+02  0.10768412350E+03  0.11891082229E+03  0.00000000000E+00 0.  1.
</event>
<event>
12    1  0.1032880E+000  0.1842433E+03  0.7818608E-02  0.1164760E+00
         21   -1    0    0  501  502  0.00000000000E+00  0.00000000000E+00  0.67537051102E+02  0.67537051102E+02  0.00000000000E+00 0.  1.
         21   -1    0    0  502  503 -0.00000000000E+00 -0.00000000000E+00 -0.49295296366E+03  0.49295296366E+03  0.00000000000E+00 0.  1.
         -6    2    1    2    0  503  0.21925875015E+02  0.62958827022E+02 -0.19841595652E+03  0.27076646972E+03  0.17175864295E+03 0.  0.
        -24    2    3    3    0    0  0.44870151755E+01 -0.15932766160E+02 -0.14689225293E+03  0.17482492846E+03  0.93340426920E+02 0.  0.
          6    2    1    2  501    0 -0.21925875015E+02 -0.62958827022E+02 -0.22699995604E+03  0.28972354505E+03  0.16723096189E+03 0.  0.
         24    2    5    5    0    0  0.10667532316E+02 -0.34373499574E+01 -0.20189306208E+03  0.21721435558E+03  0.79345170811E+02 0.  0.
          5    1    5    5  501    0 -0.32593407331E+02 -0.59521477064E+02 -0.25106893960E+02  0.72509189470E+02  0.47000000000E+01 0. -1.
        -13    1    6    6    0    0  0.36169202449E+00 -0.32548592165E+02 -0.36260338695E+02  0.48727341763E+02  0.00000000000E+00 0.  1.
         14    1    6    6    0    0  0.10305840291E+02  0.29111242207E+02 -0.16563272339E+03  0.16848701381E+03  0.00000000000E+00 0. -1.
         -5    1    3    3    0  503  0.17438859840E+02  0.78891593182E+02 -0.51523703587E+02  0.95941541256E+02  0.47000000000E+01 0.  1.
         11    1    4    4    0    0  0.44121451477E+02  0.16118495652E+01 -0.10766376995E+03  0.11636489118E+03  0.00000000000E+00 0. -1.
        -12    1    4    4    0    0 -0.39634436301E+02 -0.17544615726E+02 -0.39228482980E+02  0.58460037280E+02  0.00000000000E+00 0.  1.
</event>
<event>
12    1  0.1032880E+000  0.2589542E+03  0.7818608E-02  0.1107893E+00
         21   -1    0    0  503  502  0.00000000000E+00  0.00000000000E+00  0.59556312310E+03  0.59556312310E+03  0.00000000000E+00 0. -1.
         21   -1    0    0  501  503 -0.00000000000E+00 -0.00000000000E+00 -0.15250992860E+03  0.15250992860E+03  0.00000000000E+00 0. -1.
          6    2    1    2  501    0 -0.90425405845E+02 -0.17088211884E+03  0.41395287283E+03  0.48827684750E+03  0.17227839770E+03 0.  0.
         24    2    3    3    0    0 -0.41651776785E+02 -0.16083587293E+03  0.21091070778E+03  0.27916442620E+03  0.76461766077E+02 0.  0.
         -6    2    1    2    0  502  0.90425405845E+02  0.17088211884E+03  0.29100321664E+02  0.25979620420E+03  0.17108415016E+03 0.  0.
        -24    2    5    5    0    0  0.11622455694E+03  0.66261720001E+02  0.24148787803E+02  0.15182569092E+03  0.67595216535E+02 0.  0.
          5    1    3    3  501    0 -0.48773629061E+02 -0.10046245908E+02  0.20304216506E+03  0.20911242130E+03  0.47000000000E+01 0. -1.
        -13    1    4    4    0    0 -0.31335741230E+02 -0.29386368360E+02  0.20607473706E+02  0.47646146710E+02  0.00000000000E+00 0.  1.
         14    1    4    4    0    0 -0.10316035555E+02 -0.13144950457E+03  0.19030323407E+03  0.23151827949E+03  0.00000000000E+00 0. -1.
         -5    1    5    5    0  502 -0.25799151093E+02  0.10462039884E+03  0.49515338614E+01  0.10797051328E+03  0.47000000000E+01 0.  1.
         13    1    6    6    0    0  0.11534817662E+03  0.59985089459E+02  0.33215212486E+01  0.13005554702E+03  0.00000000000E+00 0. -1.
        -14    1    6    6    0    0  0.87638031849E+00  0.62766305416E+01  0.20827266554E+02  0.21770143903E+02  0.00000000000E+00 0.  1.
</event>
<event>
12    1  0.1032880E+000  0.1937820E+03  0.7818608E-02  0.1155394E+00
         21   -1    0    0  503  502  0.00000000000E+00  0.00000000000E+00  0.78245357903E+03  0.78245357903E+03  0.00000000000E+00 0.  1.
         21   -1    0    0  501  503 -0.00000000000E+00 -0.00000000000E+00 -0.54262767454E+02  0.54262767454E+02  0.00000000000E+00 0.  1.
          6    2    1    2  501    0  0.35388077681E+02 -0.80816986766E+02  0.50895257469E+03  0.54411277128E+03  0.17100375199E+03 0.  0.
         24    2    3    3    0    0 -0.36760978056E+02 -0.45809538312E+02  0.37534773308E+03  0.38821744937E+03  0.79856020191E+02 0.  0.
         -6    2    1    2    0  502 -0.35388077681E+02  0.80816986766E+02  0.21923823689E+03  0.29260357521E+03  0.17253331944E+03 0.  0.
        -24    2    5    5    0    0 -0.49374268487E+02  0.11116358976E+03  0.12625956879E+03  0.19369122730E+03  0.82338634594E+02 0.  0.
          5    1    3    3  501    0  0.72149055737E+02 -0.35007448454E+02  0.13360484161E+03  0.15589532191E+03  0.47000000000E+01 0. -1.
        -13    1    4    4    0    0 -0.33088297893E+02 -0.84428600860E+01  0.49048775346E+02  0.59765372138E+02  0.00000000000E+00 0.  1.
         14    1    4    4    0    0 -0.36726801639E+01 -0.37366678226E+02  0.32629895773E+03  0.32845207723E+03  0.00000000000E+00 0. -1.
         -5    1    5    5    0  502  0.13986190806E+02 -0.30346602991E+02  0.92978668102E+02  0.98912347906E+02  0.47000000000E+01 0.  1.
         13    1    6    6    0    0 -0.11610065508E+02  0.30371995505E+02 -0.70793236113E+01  0.33277147636E+02  0.00000000000E+00 0. -1.
        -14    1    6    6    0    0 -0.37764202979E+02  0.80791594252E+02  0.13333889240E+03  0.16041407967E+03  0.00000000000E+00 0.  1.
</event>
<event>
12    1  0.1032880E+000  0.2484839E+03  0.7818608E-02  0.1114953E+00
         21   -1    0    0  503  502  0.00000000000E+00  0.00000000000E+00  0.37943684607E+03  0.37943684607E+03  0.00000000000E+00 0. -1.
         21   -1    0    0  501  503 -0.00000000000E+00 -0.00000000000E+00 -0.16570331800E+03  0.16570331800E+03  0.00000000000E+00 0. -1.
          6    2    1    2  501    0  0.55961139571E+02  0.16411707318E+03  0.15858487276E+03  0.29477689875E+03  0.17798369397E+03 0.  0.
         24    2    3    3    0    0  0.66712249384E+02  0.13284173668E+03  0.18614259465E+03  0.25147272954E+03  0.80573053434E+02 0.  0.
         -6    2    1    2    0  502 -0.55961139571E+02 -0.16411707318E+03  0.55148655315E+02  0.25036326531E+03  0.17197188021E+03 0.  0.
        -24    2    5    5    0    0  0.28086045662E+02 -0.12148147964E+03  0.49297176178E+02  0.15582198867E+03  0.79395873421E+02 0.  0.
          5    1    3    3  501    0 -0.10751109813E+02  0.31275336498E+02 -0.27557721887E+02  0.43304169209E+02  0.47000000000E+01 0. -1.
        -11    1    4    4    0    0  0.75897212669E+02  0.64324559948E+02  0.10056638901E+03  0.14146248443E+03  0.00000000000E+00 0.  1.
         12    1    4    4    0    0 -0.91849632846E+01  0.68517176734E+02  0.85576205639E+02  0.11001024511E+03  0.00000000000E+00 0. -1.
         -5    1    5    5    0  502 -0.84047185233E+02 -0.42635593538E+02  0.58514791368E+01  0.94541276647E+02  0.47000000000E+01 0.  1.
         13    1    6    6    0    0  0.15816245105E+02 -0.27000907262E+02 -0.20769483386E+02  0.37557609646E+02  0.00000000000E+00 0. -1.
        -14    1    6    6    0    0  0.12269800557E+02 -0.94480572381E+02  0.70066659564E+02  0.11826437902E+03  0.00000000000E+00 0.  1.
</event>
<event>
12    1  0.1032880E+000  0.1898424E+03  0.7818608E-02  0.1158760E+00
         21   -1    0    0  503  502  0.00000000000E+00  0.00000000000E+00  0.75996256301E+03  0.75996256301E+03  0.00000000000E+00 0.  1.
         21   -1    0    0  501  503 -0.00000000000E+00 -0.00000000000E+00 -0.63371487032E+02  0.63371487032E+02  0.00000000000E+00 0.  1.
          6    2    1    2  501    0 -0.13361172857E+02  0.75651731954E+02  0.55545092523E+03  0.58677392939E+03  0.17284735571E+03 0.  0.
         24    2    3    3    0    0  0.19448184114E+02  0.10962226505E+03  0.34945171491E+03  0.37537805507E+03  0.79980687139E+02 0.  0.
         -6    2    1    2    0  502  0.13361172857E+02 -0.75651731954E+02  0.14114015074E+03  0.23656012065E+03  0.17360427139E+03 0.  0.
        -24    2    5    5    0    0 -0.20803250035E+02  0.11376079584E+01  0.12595932454E+02  0.82906235018E+02  0.79250974294E+02 0.  0.
          5    1    3    3  501    0 -0.32809356971E+02 -0.33970533094E+02  0.20599921032E+03  0.21139587431E+03  0.47000000000E+01 0. -1.
        -11    1    4    4    0    0 -0.10377315917E+02  0.49633741211E+02  0.25243853523E+03  0.25748089448E+03  0.00000000000E+00 0.  1.
         12    1    4    4    0    0  0.29825500030E+02  0.59988523836E+02  0.97013179685E+02  0.11789716060E+03  0.00000000000E+00 0. -1.
         -5    1    5    5    0  502  0.34164422893E+02 -0.76789339912E+02  0.12854421829E+03  0.15365388564E+03  0.47000000000E+01 0.  1.
         13    1    6    6    0    0  0.11184758079E+02 -0.14240632609E+02  0.36065260427E+02  0.40355884825E+02  0.00000000000E+00 0. -1.
        -14    1    6    6    0    0 -0.31988008114E+02  0.15378240567E+02 -0.23469327973E+02  0.42550350193E+02  0.00000000000E+00 0.  1.
</event>
<event>
12    1  0.1032880E+000  0.2510739E+03  0.7818608E-02  0.1113232E+00
         21   -1    0    0  503  502  0.00000000000E+00  0.00000000000E+00  0.86280951391E+02  0.86280951391E+02  0.00000000000E+00 0.  1.
         21   -1    0    0  501  503 -0.00000000000E+00 -0.00000000000E+00 -0.71985277562E+03  0.71985277562E+03  0.00000000000E+00 0.  1.
          6    2    1    2  501    0  0.15352803264E+03 -0.87037344878E+02 -0.32251275110E+03  0.40638896912E+03  0.17317956978E+03 0.  0.
         24    2    3    3    0    0  0.40510897157E+02 -0.82068532150E+02 -0.10856642958E+03  0.16432971913E+03  0.82711608617E+02 0.  0.
         -6    2    1    2    0  502 -0.15352803264E+03  0.87037344878E+02 -0.31105907313E+03  0.39974475789E+03  0.17858266511E+03 0.  0.
        -24    2    5    5    0    0 -0.52749042025E+02  0.11180529549E+03 -0.17731242038E+03  0.23039271790E+03  0.79738475708E+02 0.  0.
          5    1    3    3  501    0  0.11301713548E+03 -0.49688127285E+01 -0.21394632153E+03  0.24205924999E+03  0.47000000000E+01 0. -1.
        -13    1    4    4    0    0  0.59558388030E+02 -0.57756789401E+02 -0.46754740342E+02  0.95231581164E+02  0.00000000000E+00 0.  1.
         14    1    4    4    0    0 -0.19047490873E+02 -0.24311742749E+02 -0.61811689234E+02  0.69098137963E+02  0.00000000000E+00 0. -1.
         -5    1    5    5    0  502 -0.10077899061E+03 -0.24767950613E+02 -0.13374665275E+03  0.16935203999E+03  0.47000000000E+01 0.  1.
         13    1    6    6    0    0 -0.72749888350E+02  0.88340369223E+02 -0.12348368430E+03  0.16835910245E+03  0.00000000000E+00 0. -1.
        -14    1    6    6    0    0  0.20000846325E+02  0.23464926269E+02 -0.53828736078E+02  0.62033615454E+02  0.00000000000E+00 0.  1.
</event>
<event>
12    1  0.1032880E+000  0.1982566E+03  0.7818608E-02  0.1151281E+00
         21   -1    0    0  503  502  0.00000000000E+00  0.00000000000E+00  0.12353621707E+04  0.12353621707E+04  0.00000000000E+00 0. -1.
         21   -1    0    0  501  503 -0.00000000000E+00 -0.00000000000E+00 -0.33215745532E+02  0.33215745532E+02  0.00000000000E+00 0. -1.
          6    2    1    2  501    0  0.99847953202E+02 -0.72504073006E+01  0.73382900905E+03  0.76013859943E+03  0.17112420535E+03 0.  0.
         24    2    3    3    0    0  0.77265188504E+02  0.10116315989E+02  0.22771372269E+03  0.25320038088E+03  0.78642508687E+02 0.  0.
         -6    2    1    2    0  502 -0.99847953202E+02  0.72504073006E+01  0.46831741609E+03  0.50843931678E+03  0.17078394088E+03 0.  0.
        -24    2    5    5    0    0  0.93647327770E+01 -0.17263334453E+02  0.25742436802E+03  0.26963751184E+03  0.77790498177E+02 0.  0.
          5    1    3    3  501    0  0.22582764698E+02 -0.17366723290E+02  0.50611528636E+03  0.50693821855E+03  0.47000000000E+01 0. -1.
        -11    1    4    4    0    0  0.19497831584E+02 -0.53589037992E+01  0.27305635261E+01  0.20404393242E+02  0.00000000000E+00 0.  1.
         12    1    4    4    0    0  0.57767356920E+02  0.15475219789E+02  0.22498315916E+03  0.23279598764E+03  0.00000000000E+00 0. -1.
         -5    1    5    5    0  502 -0.10921268598E+03  0.24513741754E+02  0.21089304808E+03  0.23880180494E+03  0.47000000000E+01 0.  1.
         11    1    6    6    0    0  0.19835285085E+02  0.82711679393E+01  0.16387689159E+02  0.27026045021E+02  0.00000000000E+00 0. -1.
        -12    1    6    6    0    0 -0.10470552308E+02 -0.25534502392E+02  0.24103667886E+03  0.24261146682E+03  0.00000000000E+00 0.  1.
</event>
<event>
12    1  0.1032880E+000  0.2150654E+03  0.7818608E-02  0.1137855E+00
         21   -1    0    0  501  502  0.00000000000E+00  0.00000000000E+00  0.10593653369E+03  0.10593653369E+03  0.00000000000E+00 0. -1.
         21   -1    0    0  502  503 -0.00000000000E+00 -0.00000000000E+00 -0.28195947209E+04  0.28195947209E+04  0.00000000000E+00 0. -1.
         -6    2    1    2    0  503 -0.11228600697E+02  0.12545682265E+03 -0.10768021521E+02  0.21409835649E+03  0.17279079878E+03 0.  0.
        -24    2    3    3    0    0  0.32406103330E+02  0.14179098541E+03  0.44819364300E+01  0.16484956477E+03  0.77462585655E+02 0.  0.
          6    2    1    2  501    0  0.11228600697E+02 -0.12545682265E+03 -0.27028901656E+04  0.27114328981E+04  0.17432044435E+03 0.  0.
         24    2    5    5    0    0 -0.40699985557E+02 -0.11274258809E+03 -0.17598556326E+04  0.17668724446E+04  0.10187741507E+03 0.  0.
          5    1    5    5  501    0  0.51928586253E+02 -0.12714234564E+02 -0.94303453299E+03  0.94456045346E+03  0.47000000000E+01 0. -1.
        -13    1    6    6    0    0 -0.19297818897E+02 -0.12820073911E+03 -0.15371179041E+04  0.15425755367E+04  0.00000000000E+00 0.  1.
         14    1    6    6    0    0 -0.21402166660E+02  0.15458151021E+02 -0.22273772851E+03  0.22429690785E+03  0.00000000000E+00 0. -1.
         -5    1    3    3    0  503 -0.43634704027E+02 -0.16334162754E+02 -0.15249957951E+02  0.49248791720E+02  0.47000000000E+01 0.  1.
         11    1    4    4    0    0  0.36390502778E+02  0.11617670338E+03 -0.26356818060E+02  0.12456314447E+03  0.00000000000E+00 0. -1.
        -12    1    4    4    0    0 -0.39843994479E+01  0.25614282022E+02  0.30838754490E+02  0.40286420305E+02  0.00000000000E+00 0.  1.
</event>
<event>
12    1  0.1032880E+000  0.1850571E+03  0.7818608E-02  0.1164322E+00
         21   -1    0    0  501  502  0.00000000000E+00  0.00000000000E+00  0.13194466468E+03  0.13194466468E+03  0.00000000000E+00 0. -1.
         21   -1    0    0  502  503 -0.00000000000E+00 -0.00000000000E+00 -0.29935039606E+03  0.29935039606E+03  0.00000000000E+00 0. -1.
         -6    2    1    2    0  503  0.27814408204E+02  0.60360664407E+02 -0.16858666449E+03  0.24623415970E+03  0.16671156784E+03 0.  0.
        -24    2    3    3    0    0  0.59516774356E+02 -0.76427406780E+01 -0.12399968781E+03  0.15882940232E+03  0.79058197248E+02 0.  0.
          6    2    1    2  501    0 -0.27814408204E+02 -0.60360664407E+02  0.11809331057E+01  0.18506090103E+03  0.17271100537E+03 0.  0.
         24    2    5    5    0    0  0.13092468150E+02  0.22737379120E+02 -0.24657092161E+02  0.88788626096E+02  0.81160623449E+02 0.  0.
          5    1    5    5  501    0 -0.40906876355E+02 -0.83098043528E+02  0.25838025267E+02  0.96272274934E+02  0.47000000000E+01 0. -1.
        -13    1    6    6    0    0  0.22534757912E+02  0.64002525006E+01  0.25841804710E+02  0.34879469848E+02  0.00000000000E+00 0.  1.
         14    1    6    6    0    0 -0.94422897615E+01  0.16337126620E+02 -0.50498896871E+02  0.53909156248E+02  0.00000000000E+00 0. -1.
         -5    1    3    3    0  503 -0.31702366152E+02  0.68003405085E+02 -0.44586976681E+02  0.87404757378E+02  0.47000000000E+01 0.  1.
         11    1    4    4    0    0  0.13469043213E+02  0.30728368349E+02 -0.20768708455E+02  0.39458674552E+02  0.00000000000E+00 0. -1.
        -12    1    4    4    0    0  0.46047731143E+02 -0.38371109027E+02 -0.10323097935E+03  0.11937072777E+03  0.00000000000E+00 0.  1.
</event>
<event>
12    1  0.1032880E+000  0.3521081E+03  0.7818608E-02  0.1061771E+00
         21   -1    0    0  501  502  0.00000000000E+00  0.00000000000E+00  0.13885975736E+04  0.13885975736E+04  0.00000000000E+00 0.  1.
         21   -1    0    0  502  503 -0.00000000000E+00 -0.00000000000E+00 -0.96098900401E+02  0.96098900401E+02  0.00000000000E+00 0.  1.
         -6    2    1    2    0  503 -0.30218021061E+03  0.51749435792E+02  0.84441644654E+03  0.91482123868E+03  0.17282326164E+03 0.  0.
        -24    2    3    3    0    0 -0.26594590432E+03 -0.11631051416E+02  0.63590777829E+03  0.69385072968E+03  0.78661472224E+02 0.  0.
          6    2    1    2  501    0  0.30218021061E+03 -0.51749435792E+02  0.44808222664E+03  0.56987523530E+03  0.17317395355E+03 0.  0.
         24    2    5    5    0    0  0.79639584139E+02 -0.47503017124E+02  0.21794924452E+03  0.24967897991E+03  0.78985567207E+02 0.  0.
          5    1    5    5  501    0  0.22254062648E+03 -0.42464186680E+01  0.23013298212E+03  0.32019625539E+03  0.47000000000E+01 0. -1.
        -13    1    6    6    0    0  0.85681482406E+02 -0.46729616699E+02  0.13541209305E+03  0.16691737012E+03  0.00000000000E+00 0.  1.
         14    1    6    6    0    0 -0.60418982667E+01 -0.77340042554E+00  0.82537151470E+02  0.82761609794E+02  0.00000000000E+00 0. -1.
         -5    1    3    3    0  503 -0.36234306298E+02  0.63380487209E+02  0.20850866825E+03  0.22097050900E+03  0.47000000000E+01 0.  1.
         11    1    4    4    0    0 -0.11623653152E+03 -0.29894841745E+02  0.20801106521E+03  0.24015252668E+03  0.00000000000E+00 0. -1.
        -12    1    4    4    0    0 -0.14970937280E+03  0.18263790328E+02  0.42789671308E+03  0.45369820300E+03  0.00000000000E+00 0.  1.
</event>
<event>
12    1  0.1032880E+000  0.2805179E+03  0.7818608E-02  0.1095457E+00
         21   -1    0    0  501  502  0.00000000000E+00  0.00000000000E+00  0.76633169958E+03  0.76633169958E+03  0.00000000000E+00 0.  1.
         21   -1    0    0  502  503 -0.00000000000E+00 -0.00000000000E+00 -0.13362988948E+03  0.13362988948E+03  0.00000000000E+00 0.  1.
         -6    2    1    2    0  503 -0.21949260804E+03 -0.17739864686E+02  0.53352572412E+03  0.60277688068E+03  0.17377733400E+03 0.  0.
        -24    2    3    3    0    0 -0.17776783384E+03  0.39529536312E+02  0.45704705327E+03  0.49841300682E+03  0.79746658111E+02 0.  0.
          6    2    1    2  501    0  0.21949260804E+03  0.17739864686E+02  0.99176085984E+02  0.29718470838E+03  0.17317952270E+03 0.  0.
         24    2    5    5    0    0  0.21296723092E+03 -0.25972452148E+02  0.57917202947E+02  0.23654039604E+03  0.81039168580E+02 0.  0.
          5    1    5    5  501    0  0.65253771136E+01  0.43712316834E+02  0.41258883037E+02  0.60644312337E+02  0.47000000000E+01 0. -1.
        -13    1    6    6    0    0  0.70280884773E+02 -0.41107726597E+02 -0.10054691129E+01  0.81426401853E+02  0.00000000000E+00 0.  1.
         14    1    6    6    0    0  0.14268634615E+03  0.15135274449E+02  0.58922672060E+02  0.15511399419E+03  0.00000000000E+00 0. -1.
         -5    1    3    3    0  503 -0.41724774201E+02 -0.57269400998E+02  0.76478670849E+02  0.10436387386E+03  0.47000000000E+01 0.  1.
         13    1    4    4    0    0 -0.49968303207E+02  0.39185085218E+02  0.22158225427E+03  0.23050162176E+03  0.00000000000E+00 0. -1.
        -14    1    4    4    0    0 -0.12779953063E+03  0.34445109383E+00  0.23546479900E+03  0.26791138506E+03  0.00000000000E+00 0.  1.
</event>
<event>
12    1  0.1032880E+000  0.1788600E+03  0.7818608E-02  0.1169337E+00
         21   -1    0    0  501  502  0.00000000000E+00  0.00000000000E+00  0.28943166779E+03  0.28943166779E+03  0.00000000000E+00 0.  1.
         21   -1    0    0  502  503 -0.00000000000E+00 -0.00000000000E+00 -0.11192100572E+03  0.11192100572E+03  0.00000000000E+00 0.  1.
         -6    2    1    2    0  503  0.29671390591E+02  0.36743558665E+02  0.58569438532E+02  0.18655531065E+03  0.17071035200E+03 0.  0.
        -24    2    3    3    0    0  0.72851031566E+02 -0.97795255161E+01  0.58043026355E+02  0.12290591265E+03  0.79586170504E+02 0.  0.
          6    2    1    2  501    0 -0.29671390591E+02 -0.36743558665E+02  0.11894122354E+03  0.21479736286E+03  0.17251206309E+03 0.  0.
         24    2    5    5    0    0  0.31132661725E+02 -0.67354365296E+02  0.92205095670E+02  0.14150981416E+03  0.77571867874E+02 0.  0.
          5    1    5    5  501    0 -0.60804052316E+02  0.30610806631E+02  0.26736127871E+02  0.73287548698E+02  0.47000000000E+01 0. -1.
        -11    1    6    6    0    0  0.42265299390E+02 -0.53959525218E+01  0.50136611299E+02  0.65796288867E+02  0.00000000000E+00 0.  1.
         12    1    6    6    0    0 -0.11132637665E+02 -0.61958412774E+02  0.42068484370E+02  0.75713525291E+02  0.00000000000E+00 0. -1.
         -5    1    3    3    0  503 -0.43179640974E+02  0.46523084181E+02  0.52641217736E+00  0.63649398003E+02  0.47000000000E+01 0.  1.
         11    1    4    4    0    0 -0.11579082947E+02  0.11223934032E+02  0.25183308074E+02  0.29904027531E+02  0.00000000000E+00 0. -1.
        -12    1    4    4    0    0  0.84430114512E+02 -0.21003459548E+02  0.32859718281E+02  0.93001885115E+02  0.00000000000E+00 0.  1.
</event>
<event>
12    1  0.1032880E+000  0.2204474E+03  0.7818608E-02  0.1133944E+00
         21   -1    0    0  501  502  0.00000000000E+00  0.00000000000E+00  0.10099477966E+03  0.10099477966E+03  0.00000000000E+00 0.  1.
         21   -1    0    0  502  503 -0.00000000000E+00 -0.00000000000E+00 -0.59953781347E+03  0.59953781347E+03  0.00000000000E+00 0.  1.
         -6    2    1    2    0  503 -0.90047771724E+02  0.10350432839E+03 -0.89707809743E+02  0.23605083128E+03  0.16985510481E+03 0.  0.
        -24    2    3    3    0    0 -0.12823341882E+03  0.96375608504E+02 -0.68603039824E+02  0.19159339540E+03  0.79180707715E+02 0.  0.
          6    2    1    2  501    0  0.90047771724E+02 -0.10350432839E+03 -0.40883522406E+03  0.46448176185E+03  0.17255526497E+03 0.  0.
         24    2    5    5    0    0  0.11432949685E+03 -0.65465941749E+02 -0.21242996100E+03  0.26290389007E+03  0.81455163755E+02 0.  0.
          5    1    5    5  501    0 -0.24281725130E+02 -0.38038386644E+02 -0.19640526306E+03  0.20157787178E+03  0.47000000000E+01 0. -1.
        -13    1    6    6    0    0 -0.97120007281E+01 -0.97908519124E+01 -0.45749713636E+01  0.14529766078E+02  0.00000000000E+00 0.  1.
         14    1    6    6    0    0  0.12404149758E+03 -0.55675089836E+02 -0.20785498964E+03  0.24837412399E+03  0.00000000000E+00 0. -1.
         -5    1    3    3    0  503  0.38185647091E+02  0.71287198890E+01 -0.21104769920E+02  0.44457435873E+02  0.47000000000E+01 0.  1.
         13    1    4    4    0    0 -0.66998773753E+02  0.58721005236E+02  0.43213999324E+01  0.89194543767E+02  0.00000000000E+00 0. -1.
        -14    1    4    4    0    0 -0.61234645062E+02  0.37654603268E+02 -0.72924439756E+02  0.10239885164E+03  0.00000000000E+00 0.  1.
</event>
<event>
12    1  0.1032880E+000  0.2216723E+03  0.7818608E-02  0.1132826E+00
         21   -1    0    0  501  502  0.00000000000E+00  0.00000000000E+00  0.14374835260E+03  0.14374835260E+03  0.00000000000E+00 0. -1.
         21   -1    0    0  502  503 -0.00000000000E+00 -0.00000000000E+00 -0.34772260902E+03  0.34772260902E+03  0.00000000000E+00 0. -1.
         -6    2    1    2    0  503 -0.59231762560E+02  0.12650166353E+03 -0.13765339047E+03  0.26009016688E+03  0.17084310472E+03 0.  0.
        -24    2    3    3    0    0 -0.90380431266E+02  0.11193291022E+03 -0.59734025088E+02  0.17479066140E+03  0.79284442429E+02 0.  0.
          6    2    1    2  501    0  0.59231762560E+02 -0.12650166353E+03 -0.66320865958E+02  0.23138079474E+03  0.17212653003E+03 0.  0.
         24    2    5    5    0    0  0.93670122484E+02 -0.51805904882E+02 -0.16762754135E+02  0.13523739433E+03  0.80933424945E+02 0.  0.
          5    1    5    5  501    0 -0.34438359924E+02 -0.74695758650E+02 -0.49558111823E+02  0.96143400408E+02  0.47000000000E+01 0. -1.
        -11    1    6    6    0    0  0.67771554333E+02 -0.67222167327E+02  0.86051942041E+01  0.95842854319E+02  0.00000000000E+00 0.  1.
         12    1    6    6    0    0  0.25898568151E+02  0.15416262445E+02 -0.25367948339E+02  0.39394540015E+02  0.00000000000E+00 0. -1.
         -5    1    3    3    0  503  0.31148668706E+02  0.14568753311E+02 -0.77919365378E+02  0.85299505486E+02  0.47000000000E+01 0.  1.
         11    1    4    4    0    0  0.40090457301E+01  0.51060432564E+02 -0.11149446431E+02  0.52417080967E+02  0.00000000000E+00 0. -1.
        -12    1    4    4    0    0 -0.94389476996E+02  0.60872477657E+02 -0.48584578656E+02  0.12237358043E+03  0.00000000000E+00 0.  1.
</event>
<event>
12    1  0.1032880E+000  0.5473596E+03  0.7818608E-02  0.1002113E+00
         21   -1    0    0  501  502  0.00000000000E+00  0.00000000000E+00  0.20997777230E+03  0.20997777230E+03  0.00000000000E+00 0.  1.
         21   -1    0    0  502  503 -0.00000000000E+00 -0.00000000000E+00 -0.14292112117E+04  0.14292112117E+04  0.00000000000E+00 0.  1.
         -6    2    1    2    0  503 -0.27255131507E+03 -0.44212443985E+03 -0.64501664465E+03  0.84596039172E+03  0.17275495022E+03 0.  0.
        -24    2    3    3    0    0 -0.93489985104E+02 -0.92272342960E+02 -0.20602089423E+03  0.25672460829E+03  0.78793102823E+02 0.  0.
          6    2    1    2  501    0  0.27255131507E+03  0.44212443985E+03 -0.57421679474E+03  0.79322859228E+03  0.17241935098E+03 0.  0.
         24    2    5    5    0    0  0.86943565726E+02  0.19224969675E+03 -0.31690605716E+03  0.38934924207E+03  0.81512291787E+02 0.  0.
          5    1    5    5  501    0  0.18560774934E+03  0.24987474310E+03 -0.25731073758E+03  0.40387935021E+03  0.47000000000E+01 0. -1.
        -13    1    6    6    0    0  0.17172924934E+02  0.94915714212E+01 -0.78711274217E+02  0.81120058972E+02  0.00000000000E+00 0.  1.
         14    1    6    6    0    0  0.69770640792E+02  0.18275812533E+03 -0.23819478294E+03  0.30822918310E+03  0.00000000000E+00 0. -1.
         -5    1    3    3    0  503 -0.17906132997E+03 -0.34985209689E+03 -0.43899575043E+03  0.58923578343E+03  0.47000000000E+01 0.  1.
         13    1    4    4    0    0 -0.10241423036E+03 -0.57877881133E+02 -0.15913786414E+03  0.19789740652E+03  0.00000000000E+00 0. -1.
        -14    1    4    4    0    0  0.89242452544E+01 -0.34394461827E+02 -0.46883030084E+02  0.58827201766E+02  0.00000000000E+00 0.  1.
</event>
<event>
12    1  0.1032880E+000  0.2334926E+03  0.7818608E-02  0.1124631E+00
         21   -1    0    0  501  502  0.00000000000E+00  0.00000000000E+00  0.12309618332E+03  0.12309618332E+03  0.00000000000E+00 0.  1.
         21   -1    0    0  502  503 -0.00000000000E+00 -0.00000000000E+00 -0.46145804896E+03  0.46145804896E+03  0.00000000000E+00 0.  1.
         -6    2    1    2    0  503 -0.23589843466E+01 -0.15434417297E+03 -0.23556522946E+03  0.33167722243E+03  0.17518879533E+03 0.  0.
        -24    2    3    3    0    0  0.54941436008E+02 -0.13792796168E+03 -0.15024654170E+03  0.22749373694E+03  0.84478950352E+02 0.  0.
          6    2    1    2  501    0  0.23589843466E+01  0.15434417297E+03 -0.10279663618E+03  0.25287700985E+03  0.17190679209E+03 0.  0.
         24    2    5    5    0    0  0.44129912170E+02  0.36982251934E+02 -0.78996817259E+02  0.12596305356E+03  0.79442165248E+02 0.  0.
          5    1    5    5  501    0 -0.41770927823E+02  0.11736192104E+03 -0.23799818921E+02  0.12691395629E+03  0.47000000000E+01 0. -1.
        -11    1    6    6    0    0  0.14849950562E+02  0.57997457883E+02 -0.35999054029E+02  0.69858127970E+02  0.00000000000E+00 0.  1.
         12    1    6    6    0    0  0.29279961608E+02 -0.21015205949E+02 -0.42997763230E+02  0.56104925591E+02  0.00000000000E+00 0. -1.
         -5    1    3    3    0  503 -0.57300420354E+02 -0.16416211290E+02 -0.85318687766E+02  0.10418348549E+03  0.47000000000E+01 0.  1.
         13    1    4    4    0    0 -0.24307598217E+01 -0.56022511605E+02 -0.10214777334E+03  0.11652724144E+03  0.00000000000E+00 0. -1.
        -14    1    4    4    0    0  0.57372195829E+02 -0.81905450078E+02 -0.48098768358E+02  0.11096649550E+03  0.00000000000E+00 0.  1.
</event>
<event>
12    1  0.1032880E+000  0.2798657E+03  0.7818608E-02  0.1095947E+00
         21   -1    0    0  501  502  0.00000000000E+00  0.00000000000E+00  0.40897823858E+03  0.40897823858E+03  0.00000000000E+00 0.  1.
         21   -1    0    0  502  503 -0.00000000000E+00 -0.00000000000E+00 -0.23575185571E+03  0.23575185571E+03  0.00000000000E+00 0.  1.
         -6    2    1    2    0  503  0.11745110643E+03  0.18704352396E+03 -0.54306236703E+02  0.28508588097E+03  0.17188586308E+03 0.  0.
        -24    2    3    3    0    0  0.86628952460E+02  0.72167160377E+02 -0.84110111966E+02  0.16237913679E+03  0.81115958293E+02 0.  0.
          6    2    1    2  501    0 -0.11745110643E+03 -0.18704352396E+03  0.22753261957E+03  0.35964421333E+03  0.16968448649E+03 0.  0.
         24    2    5    5    0    0 -0.13498143195E+03 -0.14765551221E+03  0.23095028537E+03  0.31614136029E+03  0.81149172033E+02 0.  0.
          5    1    5    5  501    0  0.17530325522E+02 -0.39388011751E+02 -0.34176657968E+01  0.43502853034E+02  0.47000000000E+01 0. -1.
        -13    1    6    6    0    0 -0.74230000587E+02 -0.44553770116E+02  0.52399676628E+02  0.10119712214E+03  0.00000000000E+00 0.  1.
         14    1    6    6    0    0 -0.60751431362E+02 -0.10310174209E+03  0.17855060874E+03  0.21494423815E+03  0.00000000000E+00 0. -1.
         -5    1    3    3    0  503  0.30822153967E+02  0.11487636358E+03  0.29803875263E+02  0.12270674417E+03  0.47000000000E+01 0.  1.
         11    1    4    4    0    0  0.11103231736E+01  0.48716204260E+02 -0.41459673024E+02  0.63979730089E+02  0.00000000000E+00 0. -1.
        -12    1    4    4    0    0  0.85518629287E+02  0.23450956117E+02 -0.42650438943E+02  0.98399406705E+02  0.00000000000E+00 0.  1.
</event>
<event>
12    1  0.1032880E+000  0.3239172E+03  0.7818608E-02  0.1074048E+00
         21   -1    0    0  503  502  0.00000000000E+00  0.00000000000E+00  0.24428499442E+03  0.24428499442E+03  0.00000000000E+00 0. -1.
         21   -1    0    0  501  503 -0.00000000000E+00 -0.00000000000E+00 -0.49781193307E+03  0.49781193307E+03  0.00000000000E+00 0. -1.
          6    2    1    2  501    0  0.27231812732E+03  0.25436164044E+01  0.13142064707E+02  0.32253199988E+03  0.17230944440E+03 0.  0.
         24    2    3    3    0    0  0.26114223847E+03 -0.41083293548E+02  0.18459037404E+02  0.27694068533E+03  0.80450614713E+02 0.  0.
         -6    2    1    2    0  502 -0.27231812732E+03 -0.25436164044E+01 -0.26666900336E+03  0.41956492761E+03  0.17538169425E+03 0.  0.
        -24    2    5    5    0    0 -0.53939718562E+02  0.21216019246E+02 -0.50915844379E+02  0.11162797740E+03  0.80676944771E+02 0.  0.
          5    1    3    3  501    0  0.11175888848E+02  0.43626909952E+02 -0.53169726972E+01  0.45591314548E+02  0.47000000000E+01 0. -1.
        -11    1    4    4    0    0  0.18007177499E+03  0.90818781497E+01  0.21353306747E+02  0.18156070160E+03  0.00000000000E+00 0.  1.
         12    1    4    4    0    0  0.81070463481E+02 -0.50165171697E+02 -0.28942693423E+01  0.95379983726E+02  0.00000000000E+00 0. -1.
         -5    1    5    5    0  502 -0.21837840876E+03 -0.23759635651E+02 -0.21575315898E+03  0.30793695021E+03  0.47000000000E+01 0.  1.
         13    1    6    6    0    0 -0.63241394759E+02  0.38145090481E+02 -0.22383669461E+02  0.77172213894E+02  0.00000000000E+00 0. -1.
        -14    1    6    6    0    0  0.93016761967E+01 -0.16929071235E+02 -0.28532174918E+02  0.34455763502E+02  0.00000000000E+00 0.  1.
</event>
<event>
12    1  0.1032880E+000  0.2967307E+03  0.7818608E-02  0.1086891E+00
         21   -1    0    0  503  502  0.00000000000E+00  0.00000000000E+00  0.26493984365E+03  0.26493984365E+03  0.00000000000E+00 0.  1.
         21   -1    0    0  501  503 -0.00000000000E+00 -0.00000000000E+00 -0.36254918320E+03  0.36254918320E+03  0.00000000000E+00 0.  1.
          6    2    1    2  501    0  0.18504142945E+03  0.15494176702E+03  0.41835260157E+02  0.29962637956E+03  0.17256447071E+03 0.  0.
         24    2    3    3    0    0  0.84897919659E+02  0.27937656919E+02  0.64485063582E+02  0.13624379134E+03  0.80099174884E+02 0.  0.
         -6    2    1    2    0  502 -0.18504142945E+03 -0.15494176702E+03 -0.13944459971E+03  0.32786264729E+03  0.17263208658E+03 0.  0.
        -24    2    5    5    0    0 -0.20474199942E+03 -0.15544769295E+03 -0.10714156167E+03  0.28973202069E+03  0.79887783830E+02 0.  0.
          5    1    3    3  501    0  0.10014350979E+03  0.12700411010E+03 -0.22649803425E+02  0.16338258822E+03  0.47000000000E+01 0. -1.
        -13    1    4    4    0    0  0.14804281784E+02  0.34527412662E+02  0.52918228663E+02  0.64897210334E+02  0.00000000000E+00 0.  1.
         14    1    4    4    0    0  0.70093637875E+02 -0.65897557433E+01  0.11566834919E+02  0.71346581007E+02  0.00000000000E+00 0. -1.
         -5    1    5    5    0  502  0.19700569970E+02  0.50592592570E+00 -0.32303038045E+02  0.38130626603E+02  0.47000000000E+01 0.  1.
         13    1    6    6    0    0 -0.48660674525E+02 -0.82135595284E+02 -0.24780693701E+02  0.98631638120E+02  0.00000000000E+00 0. -1.
        -14    1    6    6    0    0 -0.15608132490E+03 -0.73312097664E+02 -0.82360867968E+02  0.19110038257E+03  0.00000000000E+00 0.  1.
</event>
<event>
12    1  0.1032880E+000  0.2294037E+03  0.7818608E-02  0.1127236E+00
         21   -1    0    0  501  502  0.00000000000E+00  0.00000000000E+00  0.11687144638E+03  0.11687144638E+03  0.00000000000E+00 0.  1.
         21   -1    0    0  502  503 -0.00000000000E+00 -0.00000000000E+00 -0.51180559410E+03  0.51180559410E+03  0.00000000000E+00 0.  1.
         -6    2    1    2    0  503 -0.76773071574E+02  0.13140947967E+03 -0.30852874831E+03  0.38446852984E+03  0.17164936945E+03 0.  0.
        -24    2    3    3    0    0 -0.85597336992E+02  0.20248408888E+02 -0.14589779536E+03  0.18722358522E+03  0.77650511975E+02 0.  0.
          6    2    1    2  501    0  0.76773071574E+02 -0.13140947967E+03 -0.86405399412E+02  0.24420851065E+03  0.17032130741E+03 0.  0.
         24    2    5    5    0    0 -0.46947722281E+01 -0.53576980563E+02  0.10375269652E+02  0.95603344533E+02  0.78357000536E+02 0.  0.
          5    1    5    5  501    0  0.81467843802E+02 -0.77832499111E+02 -0.96780669064E+02  0.14860516612E+03  0.47000000000E+01 0. -1.
        -11    1    6    6    0    0  0.30851627378E+02 -0.95398615078E+01 -0.12409881992E+02  0.34595332640E+02  0.00000000000E+00 0.  1.
         12    1    6    6    0    0 -0.35546399606E+02 -0.44037119056E+02  0.22785151645E+02  0.61008011893E+02  0.00000000000E+00 0. -1.
         -5    1    3    3    0  503  0.88242654179E+01  0.11116107079E+03 -0.16263095295E+03  0.19724494461E+03  0.47000000000E+01 0.  1.
         13    1    4    4    0    0 -0.50612171113E+02  0.35985680811E+02 -0.13294477790E+03  0.14673402829E+03  0.00000000000E+00 0. -1.
        -14    1    4    4    0    0 -0.34985165879E+02 -0.15737271923E+02 -0.12953017463E+02  0.40489556932E+02  0.00000000000E+00 0.  1.
</event>
<event>
12    1  0.1032880E+000  0.2049843E+03  0.7818608E-02  0.1146759E+00
         21   -1    0    0  503  502  0.00000000000E+00  0.00000000000E+00  0.60270193152E+03  0.60270193152E+03  0.00000000000E+00 0.  1.
         21   -1    0    0  501  503 -0.00000000000E+00 -0.00000000000E+00 -0.10023595037E+03  0.10023595037E+03  0.00000000000E+00 0.  1.
          6    2    1    2  501    0 -0.91643624604E+02 -0.49445903398E+02  0.53752608270E+02  0.21191482177E+03  0.17656471192E+03 0.  0.
         24    2    3    3    0    0 -0.61142143091E+02 -0.83126861525E+02  0.85903583037E+02  0.15605318472E+03  0.79528196980E+02 0.  0.
         -6    2    1    2    0  502  0.91643624604E+02  0.49445903398E+02  0.44871337288E+03  0.49102306012E+03  0.17004853214E+03 0.  0.
        -24    2    5    5    0    0  0.93981131758E+02  0.90578984523E+02  0.30334354335E+03  0.33985470484E+03  0.80292649396E+02 0.  0.
          5    1    3    3  501    0 -0.30501481513E+02  0.33680958127E+02 -0.32150974767E+02  0.55861637045E+02  0.47000000000E+01 0. -1.
        -11    1    4    4    0    0 -0.18436976537E+02 -0.12699373323E+02 -0.14131125655E+02  0.26474230846E+02  0.00000000000E+00 0.  1.
         12    1    4    4    0    0 -0.42705166554E+02 -0.70427488202E+02  0.10003470869E+03  0.12957895388E+03  0.00000000000E+00 0. -1.
         -5    1    5    5    0  502 -0.23375071534E+01 -0.41133081125E+02  0.14536982953E+03  0.15116835528E+03  0.47000000000E+01 0.  1.
         11    1    6    6    0    0  0.42201649166E+02  0.90835242198E+02  0.22014112424E+03  0.24185560775E+03  0.00000000000E+00 0. -1.
        -12    1    6    6    0    0  0.51779482591E+02 -0.25625767432E+00  0.83202419111E+02  0.97999097095E+02  0.00000000000E+00 0.  1.
</event>
<event>
12    1  0.1032880E+000  0.2201295E+03  0.7818608E-02  0.1134180E+00
         21   -1    0    0  503  502  0.00000000000E+00  0.00000000000E+00  0.17041068918E+03  0.17041068918E+03  0.00000000000E+00 0. -1.
         21   -1    0    0  501  503 -0.00000000000E+00 -0.00000000000E+00 -0.29687684923E+03  0.29687684923E+03  0.00000000000E+00 0. -1.
          6    2    1    2  501    0  0.73142160873E+02 -0.11617901000E+03 -0.10018414255E+02  0.21825529652E+03  0.16937434214E+03 0.  0.
         24    2    3    3    0    0  0.34179169604E+02 -0.46583871066E+00  0.22819449975E+02  0.91732302463E+02  0.82010093144E+02 0.  0.
         -6    2    1    2    0  502 -0.73142160873E+02  0.11617901000E+03 -0.11644774580E+03  0.24903224189E+03  0.17207452437E+03 0.  0.
        -24    2    5    5    0    0  0.17483444285E+02  0.70588205095E+02 -0.19278089623E+02  0.10847779022E+03  0.78149988541E+02 0.  0.
          5    1    3    3  501    0  0.38962991269E+02 -0.11571317129E+03 -0.32837864230E+02  0.12652299406E+03  0.47000000000E+01 0. -1.
        -11    1    4    4    0    0  0.49315894783E+02 -0.18430078065E+02  0.36949034447E+02  0.64319176007E+02  0.00000000000E+00 0.  1.
         12    1    4    4    0    0 -0.15136725179E+02  0.17964239354E+02 -0.14129584472E+02  0.27413126456E+02  0.00000000000E+00 0. -1.
         -5    1    5    5    0  502 -0.90625605158E+02  0.45590804903E+02 -0.97169656177E+02  0.14055445167E+03  0.47000000000E+01 0.  1.
         11    1    6    6    0    0  0.12823708677E+02 -0.54829962544E+01  0.18698078792E+02  0.23326570744E+02  0.00000000000E+00 0. -1.
        -12    1    6    6    0    0  0.46597356076E+01  0.76071201349E+02 -0.37976168416E+02  0.85151219476E+02  0.00000000000E+00 0.  1.
</event>
<event>
12    1  0.1032880E+000  0.2092987E+03  0.7818608E-02  0.1142124E+00
         21   -1    0    0  503  502  0.00000000000E+00  0.00000000000E+00  0.42593084797E+03  0.42593084797E+03  0.00000000000E+00 0.  1.
         21   -1    0    0  501  503 -0.00000000000E+00 -0.00000000000E+00 -0.10543024898E+03  0.10543024898E+03  0.00000000000E+00 0.  1.
          6    2    1    2  501    0  0.61362077075E+02 -0.10270901972E+03  0.11862720092E+03  0.24057110377E+03  0.17171952696E+03 0.  0.
         24    2    3    3    0    0  0.76640952983E+02 -0.25301290548E+02  0.11516669539E+03  0.16145431869E+03  0.79310392245E+02 0.  0.
         -6    2    1    2    0  502 -0.61362077075E+02  0.10270901972E+03  0.20187339807E+03  0.29078999318E+03  0.17173090592E+03 0.  0.
        -24    2    5    5    0    0 -0.88964321736E+02  0.36853031439E+02  0.15386347531E+03  0.20461611207E+03  0.94450981015E+02 0.  0.
          5    1    3    3  501    0 -0.15278875908E+02 -0.77407729167E+02  0.34605055269E+01  0.79116785085E+02  0.47000000000E+01 0. -1.
        -11    1    4    4    0    0  0.42538263460E+02 -0.48444901692E+02  0.40406118926E+02  0.76085917257E+02  0.00000000000E+00 0.  1.
         12    1    4    4    0    0  0.34102689522E+02  0.23143611144E+02  0.74760576464E+02  0.85368401430E+02  0.00000000000E+00 0. -1.
         -5    1    5    5    0  502  0.27602244661E+02  0.65855988276E+02  0.48009922763E+02  0.86173881112E+02  0.47000000000E+01 0.  1.
         13    1    6    6    0    0 -0.23657590472E+02  0.40028653227E+02  0.12457974633E+03  0.13297401198E+03  0.00000000000E+00 0. -1.
        -14    1    6    6    0    0 -0.65306731264E+02 -0.31756217879E+01  0.29283728981E+02  0.71642100089E+02  0.00000000000E+00 0.  1.
</event>
<event>
12    1  0.1032880E+000  0.2833816E+03  0.7818608E-02  0.1093870E+00
         21   -1    0    0  503  502  0.00000000000E+00  0.00000000000E+00  0.56764547713E+03  0.56764547713E+03  0.00000000000E+00 0.  1.
         21   -1    0    0  501  503 -0.00000000000E+00 -0.00000000000E+00 -0.14977046771E+03  0.14977046771E+03  0.00000000000E+00 0.  1.
          6    2    1    2  501    0  0.99790393489E+02  0.20167502261E+03  0.12420351000E+03  0.30931289589E+03  0.17209595664E+03 0.  0.
         24    2    3    3    0    0  0.22907593554E+02  0.12200770315E+03  0.13230422062E+03  0.19820232831E+03  0.79806758378E+02 0.  0.
         -6    2    1    2    0  502 -0.99790393489E+02 -0.20167502261E+03  0.29367149943E+03  0.40810304895E+03  0.17226204344E+03 0.  0.
        -24    2    5    5    0    0 -0.91613846808E+02 -0.52544512029E+02  0.13482517288E+03  0.19001817887E+03  0.82310742846E+02 0.  0.
          5    1    3    3  501    0  0.76882799935E+02  0.79667319453E+02 -0.81007106210E+01  0.11111056758E+03  0.47000000000E+01 0. -1.
        -11    1    4    4    0    0 -0.36429270955E+01 -0.22768856414E+01  0.42187410030E+02  0.42405573821E+02  0.00000000000E+00 0.  1.
         12    1    4    4    0    0  0.26550520649E+02  0.12428458879E+03  0.90116810589E+02  0.15579675449E+03  0.00000000000E+00 0. -1.
         -5    1    5    5    0  502 -0.81765466811E+01 -0.14913051058E+03  0.15884632655E+03  0.21808487008E+03  0.47000000000E+01 0.  1.
         13    1    6    6    0    0 -0.14372654829E+02  0.15655868785E+02  0.12114279277E+01  0.21287249514E+02  0.00000000000E+00 0. -1.
        -14    1    6    6    0    0 -0.77241191979E+02 -0.68200380814E+02  0.13361374495E+03  0.16873092935E+03  0.00000000000E+00 0.  1.
</event>
<event>
12    1  0.1032880E+000  0.1942749E+03  0.7818608E-02  0.1154672E+00
         21   -1    0    0  501  502  0.00000000000E+00  0.00000000000E+00  0.10124628155E+03  0.10124628155E+03  0.00000000000E+00 0.  1.
         21   -1    0    0  502  503 -0.00000000000E+00 -0.00000000000E+00 -0.38237775415E+03  0.38237775415E+03  0.00000000000E+00 0.  1.
         -6    2    1    2    0  503 -0.84239579568E+02 -0.37367412311E+02 -0.10205561828E+03  0.21940652977E+03  0.17097147661E+03 0.  0.
        -24    2    3    3    0    0 -0.73136767589E+02 -0.72041964684E+02 -0.12066169242E+03  0.17824984124E+03  0.81699023464E+02 0.  0.
          6    2    1    2  501    0  0.84239579568E+02  0.37367412311E+02 -0.17907585432E+03  0.26421750593E+03  0.17102660194E+03 0.  0.
         24    2    5    5    0    0  0.90748933399E+02  0.83234556168E+02 -0.12422727106E+03  0.19226874876E+03  0.79821655081E+02 0.  0.
          5    1    5    5  501    0 -0.65093538313E+01 -0.45867143857E+02 -0.54848583261E+02  0.71948757173E+02  0.47000000000E+01 0. -1.
        -13    1    6    6    0    0  0.46077177531E+02  0.81411159490E+02 -0.51196519379E+02  0.10663942411E+03  0.00000000000E+00 0.  1.
         14    1    6    6    0    0  0.44671755869E+02  0.18233966780E+01 -0.73030751680E+02  0.85629324643E+02  0.00000000000E+00 0. -1.
         -5    1    3    3    0  503 -0.11102811979E+02  0.34674552373E+02  0.18606074137E+02  0.41156688532E+02  0.47000000000E+01 0.  1.
         13    1    4    4    0    0 -0.39399869675E+02 -0.75861319016E+02 -0.47976304812E+02  0.98025584806E+02  0.00000000000E+00 0. -1.
        -14    1    4    4    0    0 -0.33736897914E+02  0.38193543313E+01 -0.72685387608E+02  0.80224256432E+02  0.00000000000E+00 0.  1.
</event>
<event>
12    1  0.1032880E+000  0.2508583E+03  0.7818608E-02  0.1113042E+00
         21   -1    0    0  501  502  0.00000000000E+00  0.00000000000E+00  0.16448085600E+03  0.16448085600E+03  0.00000000000E+00 0.  1.
         21   -1    0    0  502  503 -0.00000000000E+00 -0.00000000000E+00 -0.63147352368E+03  0.63147352368E+03  0.00000000000E+00 0. -1.
         -6    2    1    2    0  503  0.27979049901E+02  0.18080617349E+03 -0.48518289059E+03  0.54619805805E+03  0.17162803294E+03 0.  0.
        -24    2    3    3    0    0 -0.21976749670E+02  0.18253976514E+03 -0.37924309449E+03  0.42896360215E+03  0.79879308164E+02 0.  0.
          6    2    1    2  501    0 -0.27979049901E+02 -0.18080617349E+03  0.18190222906E+02  0.24975632163E+03  0.16903738160E+03 0.  0.
         24    2    5    5    0    0 -0.16267977744E+02 -0.80531954632E+02 -0.52583163066E+02  0.12637467656E+03  0.80346294379E+02 0.  0.
          5    1    5    5  501    0 -0.11711072157E+02 -0.10027421886E+03  0.70773385972E+02  0.12338164507E+03  0.47000000000E+01 0. -1.
        -11    1    6    6    0    0 -0.28029479320E+02 -0.78880990993E+02 -0.12588990057E+02  0.84654268183E+02  0.00000000000E+00 0.  1.
         12    1    6    6    0    0  0.11761501576E+02 -0.16509636387E+01 -0.39994173009E+02  0.41720408375E+02  0.00000000000E+00 0. -1.
         -5    1    3    3    0  503  0.49955799571E+02 -0.17335916511E+01 -0.10593979610E+03  0.11723445590E+03  0.47000000000E+01 0.  1.
         11    1    4    4    0    0  0.28066049555E+02  0.88570691333E+02 -0.19911626642E+03  0.21972655291E+03  0.00000000000E+00 0. -1.
        -12    1    4    4    0    0 -0.50042799224E+02  0.93969073810E+02 -0.18012682807E+03  0.20923704924E+03  0.00000000000E+00 0.  1.
</event>
<event>
12    1  0.1032880E+000  0.3999148E+03  0.7818608E-02  0.1044170E+00
         21   -1    0    0  501  502  0.00000000000E+00  0.00000000000E+00  0.72905924343E+02  0.72905924343E+02  0.00000000000E+00 0. -1.
         21   -1    0    0  502  503 -0.00000000000E+00 -0.00000000000E+00 -0.22735097155E+04  0.22735097155E+04  0.00000000000E+00 0. -1.
         -6    2    1    2    0  503 -0.57372588097E+02 -0.35194108054E+03 -0.13548779063E+04  0.14126662636E+04  0.18104610820E+03 0.  0.
        -24    2    3    3    0    0  0.93071571417E+01 -0.15223749257E+03 -0.39416919828E+03  0.42914655198E+03  0.74394414360E+02 0.  0.
          6    2    1    2  501    0  0.57372588097E+02  0.35194108054E+03 -0.84572588491E+03  0.93374937629E+03  0.17170173931E+03 0.  0.
         24    2    5    5    0    0  0.95776205322E+02  0.32690627982E+03 -0.74470277895E+03  0.82271182859E+03  0.78941285945E+02 0.  0.
          5    1    5    5  501    0 -0.38403617225E+02  0.25034800720E+02 -0.10102310596E+03  0.11103754771E+03  0.47000000000E+01 0. -1.
        -13    1    6    6    0    0  0.57847374617E+02  0.23258489025E+03 -0.43373691551E+03  0.49554995894E+03  0.00000000000E+00 0.  1.
         14    1    6    6    0    0  0.37928830705E+02  0.94321389569E+02 -0.31096586344E+03  0.32716186965E+03  0.00000000000E+00 0. -1.
         -5    1    3    3    0  503 -0.66679745238E+02 -0.19970358797E+03 -0.96070870801E+03  0.98351971160E+03  0.47000000000E+01 0.  1.
         11    1    4    4    0    0  0.36629654520E+00 -0.63621803449E+02 -0.77921979364E+02  0.10059673412E+03  0.00000000000E+00 0. -1.
        -12    1    4    4    0    0  0.89408605965E+01 -0.88615689120E+02 -0.31624721891E+03  0.32854981786E+03  0.00000000000E+00 0.  1.
</event>
<event>
12    1  0.1032880E+000  0.1763424E+03  0.7818608E-02  0.1171577E+00
         21   -1    0    0  503  502  0.00000000000E+00  0.00000000000E+00  0.47568743297E+03  0.47568743297E+03  0.00000000000E+00 0.  1.
         21   -1    0    0  501  503 -0.00000000000E+00 -0.00000000000E+00 -0.11532234340E+03  0.11532234340E+03  0.00000000000E+00 0.  1.
          6    2    1    2  501    0 -0.34663642200E+02 -0.12301265140E+02 -0.14620451260E+02  0.17694744486E+03  0.17246376846E+03 0.  0.
         24    2    3    3    0    0 -0.16221251483E+02  0.57014448470E+02 -0.26796883932E+02  0.10404240085E+03  0.81197117269E+02 0.  0.
         -6    2    1    2    0  502  0.34663642200E+02  0.12301265140E+02  0.37498554083E+03  0.41406233152E+03  0.17169906620E+03 0.  0.
        -24    2    5    5    0    0  0.87678403267E+02 -0.15271782955E+02  0.21348202596E+03  0.24179418825E+03  0.70492015895E+02 0.  0.
          5    1    3    3  501    0 -0.18442390717E+02 -0.69315713610E+02  0.12176432672E+02  0.72905044004E+02  0.47000000000E+01 0. -1.
        -13    1    4    4    0    0 -0.78784595607E+01  0.72065678063E+02 -0.39588583772E+02  0.82600169763E+02  0.00000000000E+00 0.  1.
         14    1    4    4    0    0 -0.83427919222E+01 -0.15051229593E+02  0.12791699840E+02  0.21442231090E+02  0.00000000000E+00 0. -1.
         -5    1    5    5    0  502 -0.53014761066E+02  0.27573048095E+02  0.16150351487E+03  0.17226814327E+03  0.47000000000E+01 0.  1.
         11    1    6    6    0    0 -0.83180006740E+00 -0.14309883689E+02  0.48012302214E+01  0.15116761366E+02  0.00000000000E+00 0. -1.
        -12    1    6    6    0    0  0.88510203334E+02 -0.96189926560E+00  0.20868079574E+03  0.22667742688E+03  0.00000000000E+00 0.  1.
</event>
<event>
12    1  0.1032880E+000  0.1753183E+03  0.7818608E-02  0.1172715E+00
         21   -1    0    0  503  502  0.00000000000E+00  0.00000000000E+00  0.20744439948E+03  0.20744439948E+03  0.00000000000E+00 0.  1.
         21   -1    0    0  501  503 -0.00000000000E+00 -0.00000000000E+00 -0.31515375053E+03  0.31515375053E+03  0.00000000000E+00 0.  1.
          6    2    1    2  501    0 -0.22037509150E+02  0.79487208570E+01 -0.24472088197E+03  0.30103956506E+03  0.17374600911E+03 0.  0.
         24    2    3    3    0    0 -0.55680018151E+02 -0.43859100677E+02 -0.18368487551E+03  0.21407202589E+03  0.84040547611E+02 0.  0.
         -6    2    1    2    0  502  0.22037509150E+02 -0.79487208570E+01  0.13701153093E+03  0.22155858496E+03  0.17253177386E+03 0.  0.
        -24    2    5    5    0    0  0.70154567596E+02  0.21429071949E+02  0.54127731496E+02  0.12120859626E+03  0.79880185352E+02 0.  0.
          5    1    3    3  501    0  0.33642509001E+02  0.51807821534E+02 -0.61036006465E+02  0.86967539170E+02  0.47000000000E+01 0. -1.
        -13    1    4    4    0    0 -0.22976755193E+02  0.18802662884E+01 -0.11600316486E+01  0.23082728477E+02  0.00000000000E+00 0.  1.
         14    1    4    4    0    0 -0.32703262958E+02 -0.45739366966E+02 -0.18252484386E+03  0.19098929741E+03  0.00000000000E+00 0. -1.
         -5    1    5    5    0  502 -0.48117058446E+02 -0.29377792806E+02  0.82883799430E+02  0.10034998870E+03  0.47000000000E+01 0.  1.
         13    1    6    6    0    0  0.29893154059E+02 -0.28750602138E+02  0.34493214491E+02  0.53944227020E+02  0.00000000000E+00 0. -1.
        -14    1    6    6    0    0  0.40261413537E+02  0.50179674087E+02  0.19634517005E+02  0.67264369242E+02  0.00000000000E+00 0.  1.
</event>
<event>
12    1  0.1032880E+000  0.2541576E+03  0.7818608E-02  0.1110799E+00
         21   -1    0    0  503  502  0.00000000000E+00  0.00000000000E+00  0.32864763023E+03  0.32864763023E+03  0.00000000000E+00 0.  1.
         21   -1    0    0  501  503 -0.00000000000E+00 -0.00000000000E+00 -0.19611430284E+03  0.19611430284E+03  0.00000000000E+00 0.  1.
          6    2    1    2  501    0  0.16862467237E+03 -0.80671113483E+02  0.62926770301E+02  0.26183178157E+03  0.17220335286E+03 0.  0.
         24    2    3    3    0    0  0.19108567107E+03 -0.56725389397E+02  0.73434449487E+02  0.22704104306E+03  0.80146823844E+02 0.  0.
         -6    2    1    2    0  502 -0.16862467237E+03  0.80671113483E+02  0.69606557089E+02  0.26293015150E+03  0.17130406619E+03 0.  0.
        -24    2    5    5    0    0 -0.17950022746E+03  0.99860181153E+02  0.37419779734E+02  0.22362904906E+03  0.80108203256E+02 0.  0.
          5    1    3    3  501    0 -0.22460998696E+02 -0.23945724086E+02 -0.10507679186E+02  0.34790738513E+02  0.47000000000E+01 0. -1.
        -11    1    4    4    0    0  0.14991491527E+03 -0.88471743103E+01  0.63794263472E+02  0.16316391258E+03  0.00000000000E+00 0.  1.
         12    1    4    4    0    0  0.41170755796E+02 -0.47878215086E+02  0.96401860151E+01  0.63877130485E+02  0.00000000000E+00 0. -1.
         -5    1    5    5    0  502  0.10875555089E+02 -0.19189067670E+02  0.32186777355E+02  0.39301102441E+02  0.47000000000E+01 0.  1.
         11    1    6    6    0    0 -0.43805831226E+02 -0.10130514305E+02  0.15631163840E+02  0.47601590860E+02  0.00000000000E+00 0. -1.
        -12    1    6    6    0    0 -0.13569439624E+03  0.10999069546E+03  0.21788615894E+02  0.17602745820E+03  0.00000000000E+00 0.  1.
</event>
<event>
12    1  0.1032880E+000  0.2078156E+03  0.7818608E-02  0.1143382E+00
         21   -1    0    0  501  502  0.00000000000E+00  0.00000000000E+00  0.14843901289E+04  0.14843901289E+04  0.00000000000E+00 0. -1.
         21   -1    0    0  502  503 -0.00000000000E+00 -0.00000000000E+00 -0.41173846740E+02  0.41173846740E+02  0.00000000000E+00 0. -1.
         -6    2    1    2    0  503  0.95983868494E+02  0.64403082926E+02  0.11361130078E+04  0.11549632449E+04  0.17270399668E+03 0.  0.
        -24    2    3    3    0    0  0.12700852124E+03  0.62643661645E+02  0.10566889921E+04  0.10695472691E+04  0.85348357546E+02 0.  0.
          6    2    1    2  501    0 -0.95983868494E+02 -0.64403082926E+02  0.30710327432E+03  0.37060073070E+03  0.17225510268E+03 0.  0.
         24    2    5    5    0    0 -0.12218680692E+03 -0.84594120596E+02  0.28592586361E+03  0.33104261259E+03  0.75827639071E+02 0.  0.
          5    1    5    5  501    0  0.26202938423E+02  0.20191037670E+02  0.21177410710E+02  0.39558118112E+02  0.47000000000E+01 0. -1.
        -13    1    6    6    0    0 -0.35302211259E+02 -0.67070776269E+02  0.10415941622E+03  0.12881738678E+03  0.00000000000E+00 0.  1.
         14    1    6    6    0    0 -0.86884595658E+02 -0.17523344327E+02  0.18176644739E+03  0.20222522581E+03  0.00000000000E+00 0. -1.
         -5    1    3    3    0  503 -0.31024652748E+02  0.17594212807E+01  0.79424015769E+02  0.85415975802E+02  0.47000000000E+01 0.  1.
         13    1    4    4    0    0  0.30805287974E+02  0.53145087878E+02  0.57367057113E+03  0.57694998944E+03  0.00000000000E+00 0. -1.
        -14    1    4    4    0    0  0.96203233268E+02  0.94985737666E+01  0.48301842093E+03  0.49259727969E+03  0.00000000000E+00 0.  1.
</event>
<event>
12    1  0.1032880E+000  0.1880321E+03  0.7818608E-02  0.1160562E+00
         21   -1    0    0  503  502  0.00000000000E+00  0.00000000000E+00  0.18877087280E+02  0.18877087280E+02  0.00000000000E+00 0. -1.
         21   -1    0    0  501  503 -0.00000000000E+00 -0.00000000000E+00 -0.26727013614E+04  0.26727013614E+04  0.00000000000E+00 0. -1.
          6    2    1    2  501    0 -0.43548765340E+02  0.62635514109E+02 -0.58788773530E+03  0.61722609331E+03  0.17186145105E+03 0.  0.
         24    2    3    3    0    0 -0.30297994480E+02  0.95201103365E+02 -0.28164475295E+03  0.30893571920E+03  0.78334495475E+02 0.  0.
         -6    2    1    2    0  502  0.43548765340E+02 -0.62635514109E+02 -0.20659365388E+04  0.20743523554E+04  0.17036492949E+03 0.  0.
        -24    2    5    5    0    0  0.92534760878E+02 -0.63969767128E+02 -0.13593142603E+04  0.13660173058E+04  0.74921347617E+02 0.  0.
          5    1    3    3  501    0 -0.13250770860E+02 -0.32565589256E+02 -0.30624298235E+03  0.30829037411E+03  0.47000000000E+01 0. -1.
        -13    1    4    4    0    0  0.10589881690E+01  0.83918830538E+02 -0.13833684380E+03  0.16180412209E+03  0.00000000000E+00 0.  1.
         14    1    4    4    0    0 -0.31356982649E+02  0.11282272827E+02 -0.14330790915E+03  0.14713159711E+03  0.00000000000E+00 0. -1.
         -5    1    5    5    0  502 -0.48985995538E+02  0.13342530194E+01 -0.70662227847E+03  0.70833504955E+03  0.47000000000E+01 0.  1.
         13    1    6    6    0    0 -0.13237368869E+02 -0.58907331133E+01 -0.14785294630E+03  0.14856117394E+03  0.00000000000E+00 0. -1.
        -14    1    6    6    0    0  0.10577212975E+03 -0.58079034015E+02 -0.12114613140E+04  0.12174561319E+04  0.00000000000E+00 0.  1.
</event>
<event>
12    1  0.1032880E+000  0.1813426E+03  0.7818608E-02  0.1166690E+00
         21   -1    0    0  503  502  0.00000000000E+00  0.00000000000E+00  0.76764427628E+02  0.76764427628E+02  0.00000000000E+00 0.  1.
         21   -1    0    0  501  503 -0.00000000000E+00 -0.00000000000E+00 -0.56135985735E+03  0.56135985735E+03  0.00000000000E+00 0.  1.
          6    2    1    2  501    0 -0.57411910422E+02  0.54257131844E+00 -0.85602642879E+02  0.19985454083E+03  0.17122383941E+03 0.  0.
         24    2    3    3    0    0 -0.64723015264E+02  0.31441215112E+02  0.17062057353E+02  0.92289169471E+02  0.55213750896E+02 0.  0.
         -6    2    1    2    0  502  0.57411910422E+02 -0.54257131844E+00 -0.39899278684E+03  0.43826974414E+03  0.17201367050E+03 0.  0.
        -24    2    5    5    0    0  0.27321866850E+02 -0.42742462828E+02 -0.36380594799E+03  0.37544900558E+03  0.77677445001E+02 0.  0.
          5    1    3    3  501    0  0.73111048415E+01 -0.30898643793E+02 -0.10266470023E+03  0.10756537136E+03  0.47000000000E+01 0. -1.
        -13    1    4    4    0    0 -0.31391140790E+02 -0.13665699815E+02  0.24135932674E+01  0.34321720586E+02  0.00000000000E+00 0.  1.
         14    1    4    4    0    0 -0.33331874474E+02  0.45106914927E+02  0.14648464085E+02  0.57967448885E+02  0.00000000000E+00 0. -1.
         -5    1    5    5    0  502  0.30090043572E+02  0.42199891510E+02 -0.35186838854E+02  0.62820738567E+02  0.47000000000E+01 0.  1.
         11    1    6    6    0    0  0.76060608050E+01 -0.57765367560E+02 -0.16263153523E+03  0.17275330996E+03  0.00000000000E+00 0. -1.
        -12    1    6    6    0    0  0.19715806045E+02  0.15022904731E+02 -0.20117441276E+03  0.20269569562E+03  0.00000000000E+00 0.  1.
</event>
<event>
12    1  0.1032880E+000  0.3878924E+03  0.7818608E-02  0.1048192E+00
         21   -1    0    0  501  502  0.00000000000E+00  0.00000000000E+00  0.36890857780E+03  0.36890857780E+03  0.00000000000E+00 0.  1.
         21   -1    0    0  502  503 -0.00000000000E+00 -0.00000000000E+00 -0.50310991074E+03  0.50310991074E+03  0.00000000000E+00 0. -1.
         -6    2    1    2    0  503 -0.30984245309E+02 -0.34457139395E+03  0.12410084139E+03  0.40726103325E+03  0.17541682184E+03 0.  0.
        -24    2    3    3    0    0  0.14400861024E+02 -0.21309557561E+03  0.11118637769E+02  0.22800488407E+03  0.79028437341E+02 0.  0.
          6    2    1    2  501    0  0.30984245309E+02  0.34457139395E+03 -0.25830217433E+03  0.46475745529E+03  0.17201747005E+03 0.  0.
         24    2    5    5    0    0 -0.69762601612E+01  0.16298349307E+03 -0.52423680705E+02  0.18758745356E+03  0.76344765490E+02 0.  0.
          5    1    5    5  501    0  0.37960505470E+02  0.18158790088E+03 -0.20587849363E+03  0.27717000173E+03  0.47000000000E+01 0. -1.
        -13    1    6    6    0    0  0.11036950427E+02  0.13877322815E+03 -0.66512025028E+02  0.15428438871E+03  0.00000000000E+00 0.  1.
         14    1    6    6    0    0 -0.18013210588E+02  0.24210264919E+02  0.14088344323E+02  0.33303064857E+02  0.00000000000E+00 0. -1.
         -5    1    3    3    0  503 -0.45385106333E+02 -0.13147581833E+03  0.11298220362E+03  0.17925614918E+03  0.47000000000E+01 0.  1.
         11    1    4    4    0    0  0.68106775029E+00 -0.56996806861E+02  0.38698052677E+02  0.68895857108E+02  0.00000000000E+00 0. -1.
        -12    1    4    4    0    0  0.13719793273E+02 -0.15609876875E+03 -0.27579414908E+02  0.15910902696E+03  0.00000000000E+00 0.  1.
</event>
<event>
12    1  0.1032880E+000  0.1942566E+03  0.7818608E-02  0.1155202E+00
         21   -1    0    0  503  502  0.00000000000E+00  0.00000000000E+00  0.13867586925E+03  0.13867586925E+03  0.00000000000E+00 0.  1.
         21   -1    0    0  501  503 -0.00000000000E+00 -0.00000000000E+00 -0.39345117923E+03  0.39345117923E+03  0.00000000000E+00 0.  1.
          6    2    1    2  501    0 -0.45782035769E+02 -0.77250424292E+02  0.22907331313E+02  0.19324171967E+03  0.16957002548E+03 0.  0.
         24    2    3    3    0    0 -0.63486019678E+02 -0.63217100832E+02 -0.37739822363E+02  0.12835310386E+03  0.83805420744E+02 0.  0.
         -6    2    1    2    0  502  0.45782035769E+02  0.77250424292E+02 -0.27768264130E+03  0.33888532880E+03  0.17225560643E+03 0.  0.
        -24    2    5    5    0    0  0.80220542196E+02  0.11425089340E+02 -0.12559274049E+03  0.16955602426E+03  0.80061481653E+02 0.  0.
          5    1    3    3  501    0  0.17703983909E+02 -0.14033323460E+02  0.60647153675E+02  0.64888615816E+02  0.47000000000E+01 0. -1.
        -11    1    4    4    0    0  0.68015709952E+01  0.15141535158E+02 -0.10432367953E+02  0.19605146162E+02  0.00000000000E+00 0.  1.
         12    1    4    4    0    0 -0.70287590674E+02 -0.78358635990E+02 -0.27307454410E+02  0.10874795770E+03  0.00000000000E+00 0. -1.
         -5    1    5    5    0  502 -0.34438506427E+02  0.65825334952E+02 -0.15208990081E+03  0.16932930454E+03  0.47000000000E+01 0.  1.
         11    1    6    6    0    0  0.62726973872E+02 -0.27203457132E+02 -0.95947261513E+02  0.11781586618E+03  0.00000000000E+00 0. -1.
        -12    1    6    6    0    0  0.17493568324E+02  0.38628546472E+02 -0.29645478973E+02  0.51740158086E+02  0.00000000000E+00 0.  1.
</event>
<event>
12    1  0.1032880E+000  0.1827306E+03  0.7818608E-02  0.1165320E+00
         21   -1    0    0  501  502  0.00000000000E+00  0.00000000000E+00  0.20935309525E+02  0.20935309525E+02  0.00000000000E+00 0.  1.
         21   -1    0    0  502  503 -0.00000000000E+00 -0.00000000000E+00 -0.19046867449E+04  0.19046867449E+04  0.00000000000E+00 0.  1.
         -6    2    1    2    0  503 -0.57733531990E+02  0.18630576138E+02 -0.13344268283E+04  0.13468798848E+04  0.17236648484E+03 0.  0.
        -24    2    3    3    0    0 -0.91514087371E+02  0.52015088992E+02 -0.10231836828E+04  0.10319988958E+04  0.83883697066E+02 0.  0.
          6    2    1    2  501    0  0.57733531990E+02 -0.18630576138E+02 -0.54932460713E+03  0.57874216961E+03  0.17176936806E+03 0.  0.
         24    2    5    5    0    0  0.33738752773E+02 -0.57346616375E+02 -0.50285016986E+03  0.51349920432E+03  0.79976256801E+02 0.  0.
          5    1    5    5  501    0  0.23994779218E+02  0.38716040238E+02 -0.46474437267E+02  0.65242965297E+02  0.47000000000E+01 0. -1.
        -11    1    6    6    0    0 -0.13359768703E+02 -0.55047702098E+02 -0.25717040060E+03  0.26333504869E+03  0.00000000000E+00 0.  1.
         12    1    6    6    0    0  0.47098521475E+02 -0.22989142776E+01 -0.24567976927E+03  0.25016415562E+03  0.00000000000E+00 0. -1.
         -5    1    3    3    0  503  0.33780555381E+02 -0.33384512854E+02 -0.31124314551E+03  0.31488098902E+03  0.47000000000E+01 0.  1.
         11    1    4    4    0    0 -0.65461756230E+02  0.22676556914E+02 -0.30606613252E+03  0.31380877176E+03  0.00000000000E+00 0. -1.
        -12    1    4    4    0    0 -0.26052331142E+02  0.29338532078E+02 -0.71711755025E+03  0.71819012406E+03  0.00000000000E+00 0.  1.
</event>
<event>
12    1  0.1032880E+000  0.2228122E+03  0.7818608E-02  0.1132640E+00
         21   -1    0    0  501  502  0.00000000000E+00  0.00000000000E+00  0.75199543689E+02  0.75199543689E+02  0.00000000000E+00 0.  1.
         21   -1    0    0  502  503 -0.00000000000E+00 -0.00000000000E+00 -0.69592177917E+03  0.69592177917E+03  0.00000000000E+00 0.  1.
         -6    2    1    2    0  503  0.66768034054E+02 -0.11787891823E+03 -0.20506455120E+03  0.29951071306E+03  0.17117764850E+03 0.  0.
        -24    2    3    3    0    0 -0.22599454854E+02 -0.37828893380E+02 -0.13299765815E+03  0.15947399779E+03  0.76169668261E+02 0.  0.
          6    2    1    2  501    0 -0.66768034054E+02  0.11787891823E+03 -0.41565768428E+03  0.47161060980E+03  0.17689501699E+03 0.  0.
         24    2    5    5    0    0 -0.16027460303E+02  0.76110479887E+02 -0.38070023150E+03  0.39702293138E+03  0.81515993202E+02 0.  0.
          5    1    5    5  501    0 -0.50740573752E+02  0.41768438340E+02 -0.34957452783E+02  0.74587678413E+02  0.47000000000E+01 0. -1.
        -11    1    6    6    0    0 -0.47452852234E+02  0.61692434216E+02 -0.27578889536E+03  0.28656106579E+03  0.00000000000E+00 0.  1.
         12    1    6    6    0    0  0.31425391931E+02  0.14418045671E+02 -0.10491133614E+03  0.11046186559E+03  0.00000000000E+00 0. -1.
         -5    1    3    3    0  503  0.89367488908E+02 -0.80050024846E+02 -0.72066893049E+02  0.14003671528E+03  0.47000000000E+01 0.  1.
         11    1    4    4    0    0 -0.18703192527E+02 -0.59660934365E+02 -0.11506070347E+03  0.13095114350E+03  0.00000000000E+00 0. -1.
        -12    1    4    4    0    0 -0.38962623269E+01  0.21832040985E+02 -0.17936954677E+02  0.28522854289E+02  0.00000000000E+00 0.  1.
</event>
<event>
12    1  0.1032880E+000  0.2618604E+03  0.7818608E-02  0.1106392E+00
         21   -1    0    0  503  502  0.00000000000E+00  0.00000000000E+00  0.36818365597E+03  0.36818365597E+03  0.00000000000E+00 0.  1.
         21   -1    0    0  501  503 -0.00000000000E+00 -0.00000000000E+00 -0.18646745196E+03  0.18646745196E+03  0.00000000000E+00 0.  1.
          6    2    1    2  501    0  0.18858619442E+03 -0.56458309761E+02  0.11874743361E+03  0.28532616396E+03  0.16899045353E+03 0.  0.
         24    2    3    3    0    0  0.85137632787E+02 -0.20471590028E+02  0.12934749518E+03  0.17518489011E+03  0.79318778977E+02 0.  0.
         -6    2    1    2    0  502 -0.18858619442E+03  0.56458309761E+02  0.62968770395E+02  0.26932494397E+03  0.17268053143E+03 0.  0.
        -24    2    5    5    0    0 -0.14291235154E+03 -0.26064362252E+02  0.42132258764E+02  0.17261743890E+03  0.83176690135E+02 0.  0.
          5    1    3    3  501    0  0.10344856163E+03 -0.35986719733E+02 -0.10600061562E+02  0.11014127385E+03  0.47000000000E+01 0. -1.
        -11    1    4    4    0    0  0.94616292723E+02 -0.23385040539E+02  0.83694666591E+02  0.12846750634E+03  0.00000000000E+00 0.  1.
         12    1    4    4    0    0 -0.94786599366E+01  0.29134505105E+01  0.45652828584E+02  0.46717383765E+02  0.00000000000E+00 0. -1.
         -5    1    5    5    0  502 -0.45673842873E+02  0.82522672013E+02  0.20836511632E+02  0.96707505065E+02  0.47000000000E+01 0.  1.
         11    1    6    6    0    0 -0.10778885284E+03 -0.23710503895E+02  0.67369694649E+02  0.12930313433E+03  0.00000000000E+00 0. -1.
        -12    1    6    6    0    0 -0.35123498703E+02 -0.23538583575E+01 -0.25237435885E+02  0.43314304570E+02  0.00000000000E+00 0.  1.
</event>
<event>
12    1  0.1032880E+000  0.2311853E+03  0.7818608E-02  0.1126557E+00
         21   -1    0    0  503  502  0.00000000000E+00  0.00000000000E+00  0.51131131513E+02  0.51131131513E+02  0.00000000000E+00 0.  1.
         21   -1    0    0  501  503 -0.00000000000E+00 -0.00000000000E+00 -0.10303383286E+04  0.10303383286E+04  0.00000000000E+00 0.  1.
          6    2    1    2  501    0  0.13470844505E+03 -0.65967036159E+02 -0.45979263478E+03  0.51464155380E+03  0.17592227508E+03 0.  0.
         24    2    3    3    0    0  0.91271618665E+02  0.95936968537E+01 -0.37586559614E+03  0.39355472514E+03  0.72026577901E+02 0.  0.
         -6    2    1    2    0  502 -0.13470844505E+03  0.65967036159E+02 -0.51941456234E+03  0.56682790635E+03  0.17030670221E+03 0.  0.
        -24    2    5    5    0    0 -0.63606448935E+02  0.88349015543E+02 -0.21738196679E+03  0.25569734593E+03  0.79214167518E+02 0.  0.
          5    1    3    3  501    0  0.43436826385E+02 -0.75560733012E+02 -0.83927038636E+02  0.12108682866E+03  0.47000000000E+01 0. -1.
        -11    1    4    4    0    0  0.25292528121E+02 -0.27584371525E+02 -0.17330114260E+03  0.17729606752E+03  0.00000000000E+00 0.  1.
         12    1    4    4    0    0  0.65979090544E+02  0.37178068379E+02 -0.20256445354E+03  0.21625865762E+03  0.00000000000E+00 0. -1.
         -5    1    5    5    0  502 -0.71101996115E+02 -0.22381979385E+02 -0.30203259555E+03  0.31113056042E+03  0.47000000000E+01 0.  1.
         11    1    6    6    0    0 -0.94027454854E+00 -0.13299933508E+02 -0.37386794687E+02  0.39693132460E+02  0.00000000000E+00 0. -1.
        -12    1    6    6    0    0 -0.62666174386E+02  0.10164894905E+03 -0.17999517211E+03  0.21600421347E+03  0.00000000000E+00 0.  1.
</event>
<event>
12    1  0.1032880E+000  0.1977084E+03  0.7818608E-02  0.1152045E+00
         21   -1    0    0  503  502  0.00000000000E+00  0.00000000000E+00  0.39470488229E+03  0.39470488229E+03  0.00000000000E+00 0.  1.
         21   -1    0    0  501  503 -0.00000000000E+00 -0.00000000000E+00 -0.14421820668E+03  0.14421820668E+03  0.00000000000E+00 0.  1.
          6    2    1    2  501    0  0.92070673111E+02 -0.20983532318E+02  0.27709551203E+03  0.33943209805E+03  0.17179903644E+03 0.  0.
         24    2    3    3    0    0  0.10321637981E+03 -0.31085550649E+02  0.11560245745E+03  0.17717189273E+03  0.80037609192E+02 0.  0.
         -6    2    1    2    0  502 -0.92070673111E+02  0.20983532318E+02 -0.26608836426E+02  0.19949099092E+03  0.17369889984E+03 0.  0.
        -24    2    5    5    0    0 -0.75807652819E+02  0.56279436406E+02 -0.70722826651E+02  0.14051285253E+03  0.76341131305E+02 0.  0.
          5    1    3    3  501    0 -0.11145706697E+02  0.10102018331E+02  0.16149305458E+03  0.16226020532E+03  0.47000000000E+01 0. -1.
        -11    1    4    4    0    0  0.84825354709E+02  0.83639409169E+01  0.98872915679E+02  0.13054175487E+03  0.00000000000E+00 0.  1.
         12    1    4    4    0    0  0.18391025099E+02 -0.39449491566E+02  0.16729541766E+02  0.46630137859E+02  0.00000000000E+00 0. -1.
         -5    1    5    5    0  502 -0.16263020293E+02 -0.35295904088E+02  0.44113990225E+02  0.58978138390E+02  0.47000000000E+01 0.  1.
         11    1    6    6    0    0 -0.76005529645E+02  0.48551197447E+02 -0.24237473647E+02  0.93389048817E+02  0.00000000000E+00 0. -1.
        -12    1    6    6    0    0  0.19787682578E+00  0.77282389590E+01 -0.46485353004E+02  0.47123803715E+02  0.00000000000E+00 0.  1.
</event>
<event>
12    1  0.1032880E+000  0.2795052E+03  0.7818608E-02  0.1096046E+00
         21   -1    0    0  501  502  0.00000000000E+00  0.00000000000E+00  0.36868196266E+03  0.36868196266E+03  0.00000000000E+00 0. -1.
         21   -1    0    0  502  503 -0.00000000000E+00 -0.00000000000E+00 -0.22426455505E+03  0.22426455505E+03  0.00000000000E+00 0. -1.
         -6    2    1    2    0  503 -0.21993634708E+03 -0.15001586499E+02  0.13358955989E+01  0.27950839860E+03  0.17183164990E+03 0.  0.
        -24    2    3    3    0    0 -0.24100363071E+02 -0.61271504062E+01 -0.19681719426E+01  0.83387275028E+02  0.79568803331E+02 0.  0.
          6    2    1    2  501    0  0.21993634708E+03  0.15001586499E+02  0.14308151201E+03  0.31343811911E+03  0.17080424779E+03 0.  0.
         24    2    5    5    0    0  0.10567916893E+03  0.73139371175E+02  0.81108400046E+02  0.17096895973E+03  0.78322144196E+02 0.  0.
          5    1    5    5  501    0  0.11425717816E+03 -0.58137784676E+02  0.61973111967E+02  0.14246915938E+03  0.47000000000E+01 0. -1.
        -11    1    6    6    0    0  0.23458894448E+02  0.54134812393E+01 -0.14269709457E+02  0.27986606008E+02  0.00000000000E+00 0.  1.
         12    1    6    6    0    0  0.82220274477E+02  0.67725889936E+02  0.95378109503E+02  0.14298235372E+03  0.00000000000E+00 0. -1.
         -5    1    3    3    0  503 -0.19583598401E+03 -0.88744360929E+01  0.33040675414E+01  0.19612112358E+03  0.47000000000E+01 0.  1.
         11    1    4    4    0    0 -0.41654386908E+02  0.12335435433E+02  0.21747087500E+02  0.48581753064E+02  0.00000000000E+00 0. -1.
        -12    1    4    4    0    0  0.17554023837E+02 -0.18462585839E+02 -0.23715259443E+02  0.34805521964E+02  0.00000000000E+00 0.  1.
</event>
<event>
12    1  0.1032880E+000  0.4466736E+03  0.7818608E-02  0.1028759E+00
         21   -1    0    0  503  502  0.00000000000E+00  0.00000000000E+00  0.41473565108E+03  0.41473565108E+03  0.00000000000E+00 0.  1.
         21   -1    0    0  501  503 -0.00000000000E+00 -0.00000000000E+00 -0.54163470893E+03  0.54163470893E+03  0.00000000000E+00 0.  1.
          6    2    1    2  501    0  0.24294044965E+03  0.33233239435E+03  0.97240317763E+02  0.45661464142E+03  0.17197781528E+03 0.  0.
         24    2    3    3    0    0  0.11209253903E+03  0.72386451420E+02  0.27335710282E+02  0.15727902191E+03  0.78644224329E+02 0.  0.
         -6    2    1    2    0  502 -0.24294044965E+03 -0.33233239435E+03 -0.22413937561E+03  0.49975571860E+03  0.17335638483E+03 0.  0.
        -24    2    5    5    0    0 -0.69439512361E+02 -0.57808767202E+02 -0.65568642846E+02  0.13832444658E+03  0.81674391055E+02 0.  0.
          5    1    3    3  501    0  0.13084791061E+03  0.25994594293E+03  0.69904607481E+02  0.29933561951E+03  0.47000000000E+01 0. -1.
        -13    1    4    4    0    0  0.11532456351E+03  0.61176886490E+02  0.33302297882E+01  0.13058888475E+03  0.00000000000E+00 0.  1.
         14    1    4    4    0    0 -0.32320244740E+01  0.11209564929E+02  0.24005480494E+02  0.26690137164E+02  0.00000000000E+00 0. -1.
         -5    1    5    5    0  502 -0.17350093729E+03 -0.27452362715E+03 -0.15857073277E+03  0.36143127202E+03  0.47000000000E+01 0.  1.
         11    1    6    6    0    0 -0.40775636423E+02 -0.71060655474E+02 -0.68250141863E+02  0.10663184865E+03  0.00000000000E+00 0. -1.
        -12    1    6    6    0    0 -0.28663875937E+02  0.13251888272E+02  0.26814990167E+01  0.31692597929E+02  0.00000000000E+00 0.  1.
</event>
<event>
12    1  0.1032880E+000  0.2403260E+03  0.7818608E-02  0.1119733E+00
         21   -1    0    0  503  502  0.00000000000E+00  0.00000000000E+00  0.14661454458E+04  0.14661454458E+04  0.00000000000E+00 0. -1.
         21   -1    0    0  501  503 -0.00000000000E+00 -0.00000000000E+00 -0.44805561192E+02  0.44805561192E+02  0.00000000000E+00 0. -1.
          6    2    1    2  501    0  0.88935219695E+02  0.14139469933E+03  0.44561375105E+03  0.50628866498E+03  0.17278501921E+03 0.  0.
         24    2    3    3    0    0  0.83463014443E+02  0.17000897756E+03  0.41812322344E+03  0.46595826631E+03  0.80130822595E+02 0.  0.
         -6    2    1    2    0  502 -0.88935219695E+02 -0.14139469933E+03  0.97572613359E+03  0.10046623420E+04  0.17147302832E+03 0.  0.
        -24    2    5    5    0    0 -0.18597248409E+02 -0.12515254996E+03  0.81623937692E+03  0.82953566453E+03  0.76639936648E+02 0.  0.
          5    1    3    3  501    0  0.54722052521E+01 -0.28614278230E+02  0.27490527609E+02  0.40330398674E+02  0.47000000000E+01 0. -1.
        -11    1    4    4    0    0 -0.16698030602E+01  0.83199564841E+02  0.14952288174E+03  0.17111998129E+03  0.00000000000E+00 0.  1.
         12    1    4    4    0    0  0.85132817503E+02  0.86809412723E+02  0.26860034169E+03  0.29483828502E+03  0.00000000000E+00 0. -1.
         -5    1    5    5    0  502 -0.70337971286E+02 -0.16242149372E+02  0.15948675667E+03  0.17512667750E+03  0.47000000000E+01 0.  1.
         13    1    6    6    0    0  0.22132138621E+02 -0.74150437882E+02  0.33093589919E+03  0.33986274931E+03  0.00000000000E+00 0. -1.
        -14    1    6    6    0    0 -0.40729387030E+02 -0.51002112081E+02  0.48530347773E+03  0.48967291522E+03  0.00000000000E+00 0.  1.
</event>
<event>
12    1  0.1032880E+000  0.2705371E+03  0.7818608E-02  0.1102382E+00
         21   -1    0    0  501  502  0.00000000000E+00  0.00000000000E+00  0.33300350787E+03  0.33300350787E+03  0.00000000000E+00 0.  1.
         21   -1    0    0  502  503 -0.00000000000E+00 -0.00000000000E+00 -0.21301296781E+03  0.21301296781E+03  0.00000000000E+00 0.  1.
         -6    2    1    2    0  503  0.10817151266E+03  0.16333208215E+03  0.77803343777E+02  0.27220980263E+03  0.17223928452E+03 0.  0.
        -24    2    3    3    0    0  0.54146088150E+02  0.15047109916E+03  0.27145757594E+01  0.17869742666E+03  0.79699754260E+02 0.  0.
          6    2    1    2  501    0 -0.10817151266E+03 -0.16333208215E+03  0.42187196283E+02  0.27380667305E+03  0.18657944545E+03 0.  0.
         24    2    5    5    0    0 -0.96004686541E+02 -0.11214829967E+03  0.10312714818E+03  0.19316190270E+03  0.69872533993E+02 0.  0.
          5    1    5    5  501    0 -0.12166826120E+02 -0.51183782479E+02 -0.60939951898E+02  0.80644770345E+02  0.47000000000E+01 0. -1.
        -13    1    6    6    0    0 -0.46473477667E+01 -0.48139858411E+02  0.50152072928E+02  0.69672621797E+02  0.00000000000E+00 0.  1.
         14    1    6    6    0    0 -0.91357338774E+02 -0.64008441262E+02  0.52975075253E+02  0.12348928091E+03  0.00000000000E+00 0. -1.
         -5    1    3    3    0  503  0.54025424511E+02  0.12860982995E+02  0.75088768018E+02  0.93512375970E+02  0.47000000000E+01 0.  1.
         13    1    4    4    0    0  0.51968956043E+02  0.13736779325E+03  0.28576446605E+02  0.14962384942E+03  0.00000000000E+00 0. -1.
        -14    1    4    4    0    0  0.21771321071E+01  0.13103305910E+02 -0.25861870845E+02  0.29073577241E+02  0.00000000000E+00 0.  1.
</event>
<event>
12    1  0.1032880E+000  0.2299389E+03  0.7818608E-02  0.1126836E+00
         21   -1    0    0  503  502  0.00000000000E+00  0.00000000000E+00  0.30253111169E+03  0.30253111169E+03  0.00000000000E+00 0. -1.
         21   -1    0    0  501  503 -0.00000000000E+00 -0.00000000000E+00 -0.17763949221E+03  0.17763949221E+03  0.00000000000E+00 0. -1.
          6    2    1    2  501    0 -0.89867288427E+02 -0.12258533778E+03  0.28469840280E+02  0.23083335098E+03  0.17137738926E+03 0.  0.
         24    2    3    3    0    0 -0.41495740270E+02 -0.29855698149E+02  0.72054692322E+02  0.11742999095E+03  0.77360616061E+02 0.  0.
         -6    2    1    2    0  502  0.89867288427E+02  0.12258533778E+03  0.96421779198E+02  0.24933725293E+03  0.17253582709E+03 0.  0.
        -24    2    5    5    0    0  0.26225462432E+02 -0.29991504217E+01  0.15427315074E+02  0.86844364130E+02  0.81284511119E+02 0.  0.
          5    1    3    3  501    0 -0.48371548157E+02 -0.92729639629E+02 -0.43584852042E+02  0.11340336002E+03  0.47000000000E+01 0. -1.
        -13    1    4    4    0    0 -0.23597844671E+02 -0.39333246300E+02  0.35633792748E+01  0.46007175630E+02  0.00000000000E+00 0.  1.
         14    1    4    4    0    0 -0.17897895599E+02  0.94775481513E+01  0.68491313047E+02  0.71422815324E+02  0.00000000000E+00 0. -1.
         -5    1    5    5    0  502  0.63641825995E+02  0.12558448820E+03  0.80994464124E+02  0.16249288880E+03  0.47000000000E+01 0.  1.
         13    1    6    6    0    0  0.68509332391E+01  0.10272438280E+02  0.46377535685E+02  0.47993062943E+02  0.00000000000E+00 0. -1.
        -14    1    6    6    0    0  0.19374529193E+02 -0.13271588701E+02 -0.30950220611E+02  0.38851301187E+02  0.00000000000E+00 0.  1.
</event>
<event>
12    1  0.1032880E+000  0.2883748E+03  0.7818608E-02  0.1091395E+00
         21   -1    0    0  503  502  0.00000000000E+00  0.00000000000E+00  0.76320677564E+03  0.76320677564E+03  0.00000000000E+00 0. -1.
         21   -1    0    0  501  503 -0.00000000000E+00 -0.00000000000E+00 -0.13444625025E+03  0.13444625025E+03  0.00000000000E+00 0.  1.
          6    2    1    2  501    0 -0.29077229721E+02  0.22757348990E+03  0.11750256082E+03  0.31139504679E+03  0.17471360785E+03 0.  0.
         24    2    3    3    0    0 -0.52200486025E+02  0.24195099871E+03  0.10758388059E+03  0.28203745903E+03  0.81888096883E+02 0.  0.
         -6    2    1    2    0  502  0.29077229721E+02 -0.22757348990E+03  0.51125796458E+03  0.58625797910E+03  0.17227458641E+03 0.  0.
        -24    2    5    5    0    0  0.57540214643E+02 -0.22511151852E+03  0.38162611522E+03  0.45343211874E+03  0.77305384120E+02 0.  0.
          5    1    3    3  501    0  0.23123256303E+02 -0.14377508811E+02  0.99186802300E+01  0.29357587762E+02  0.47000000000E+01 0. -1.
        -11    1    4    4    0    0 -0.44393392273E+01  0.18734418769E+03  0.87132872349E+02  0.20666322807E+03  0.00000000000E+00 0.  1.
         12    1    4    4    0    0 -0.47761146797E+02  0.54606811025E+02  0.20451008241E+02  0.75374230953E+02  0.00000000000E+00 0. -1.
         -5    1    5    5    0  502 -0.28462984921E+02 -0.24619713825E+01  0.12963184935E+03  0.13282586036E+03  0.47000000000E+01 0.  1.
         11    1    6    6    0    0  0.41008812561E+02 -0.73542737293E+02  0.19527513273E+03  0.21265614117E+03  0.00000000000E+00 0. -1.
        -12    1    6    6    0    0  0.16531402082E+02 -0.15156878123E+03  0.18635098250E+03  0.24077597757E+03  0.00000000000E+00 0.  1.
</event>
<event>
12    1  0.1122161E+000  0.2663386E+03  0.7818608E-02  0.1103477E+00
         21   -1    0    0  503  502  0.00000000000E+00  0.00000000000E+00  0.35466943777E+03  0.35466943777E+03  0.00000000000E+00 0. -1.
         21   -1    0    0  501  503 -0.00000000000E+00 -0.00000000000E+00 -0.33989240329E+03  0.33989240329E+03  0.00000000000E+00 0. -1.
          6    2    1    2  501    0  0.14718810000E+03 -0.13923160689E+03  0.23052399747E+03  0.35224645632E+03  0.17287705295E+03 0.  0.
         24    2    3    3    0    0  0.13751566670E+03 -0.16608621416E+03  0.17268921681E+03  0.28758056305E+03  0.79911360390E+02 0.  0.
         -6    2    1    2    0  502 -0.14718810000E+03  0.13923160689E+03 -0.21574696300E+03  0.34231538474E+03  0.17199794606E+03 0.  0.
        -24    2    5    5    0    0 -0.38379915686E+02  0.73203519380E+02 -0.17308350491E+03  0.20799788785E+03  0.80457743573E+02 0.  0.
          5    1    3    3  501    0  0.96724332971E+01  0.26854607271E+02  0.57834780662E+02  0.64665893265E+02  0.47000000000E+01 0. -1.
        -13    1    4    4    0    0  0.87471730778E+02 -0.11372837587E+03  0.15846846585E+03  0.21377020801E+03  0.00000000000E+00 0.  1.
         14    1    4    4    0    0  0.50043935926E+02 -0.52357838292E+02  0.14220750958E+02  0.73810355042E+02  0.00000000000E+00 0. -1.
         -5    1    5    5    0  502 -0.10880818432E+03  0.66028087510E+02 -0.42663458087E+02  0.13431749689E+03  0.47000000000E+01 0.  1.
         13    1    6    6    0    0  0.61588165910E+01 -0.12813860024E+02 -0.72786273113E+01  0.15971989421E+02  0.00000000000E+00 0. -1.
        -14    1    6    6    0    0 -0.44538732277E+02  0.86017379404E+02 -0.16580487760E+03  0.19202589843E+03  0.00000000000E+00 0.  1.
</event>
<event>
12    1  0.1032880E+000  0.4315423E+03  0.7818608E-02  0.1033410E+00
         21   -1    0    0  503  502  0.00000000000E+00  0.00000000000E+00  0.64890017787E+03  0.64890017787E+03  0.00000000000E+00 0.  1.
         21   -1    0    0  501  503 -0.00000000000E+00 -0.00000000000E+00 -0.32618855716E+03  0.32618855716E+03  0.00000000000E+00 0.  1.
          6    2    1    2  501    0 -0.88305723996E+02 -0.38527750441E+03  0.33109664317E+03  0.54392440649E+03  0.17318232172E+03 0.  0.
         24    2    3    3    0    0 -0.50876067735E+02 -0.12811727398E+03  0.65694495968E+02  0.17245064830E+03  0.80131449114E+02 0.  0.
         -6    2    1    2    0  502  0.88305723996E+02  0.38527750441E+03 -0.83850224549E+01  0.43116432855E+03  0.17203404696E+03 0.  0.
        -24    2    5    5    0    0 -0.51215088701E+01  0.24289880919E+03  0.28814098849E+02  0.25679057674E+03  0.78006965395E+02 0.  0.
          5    1    3    3  501    0 -0.37429656261E+02 -0.25716023043E+03  0.26540214720E+03  0.37147375819E+03  0.47000000000E+01 0. -1.
        -11    1    4    4    0    0 -0.35628646772E+02 -0.12248440623E+03  0.26869392216E+02  0.13036024884E+03  0.00000000000E+00 0.  1.
         12    1    4    4    0    0 -0.15247420963E+02 -0.56328677556E+01  0.38825103752E+02  0.42090399458E+02  0.00000000000E+00 0. -1.
         -5    1    5    5    0  502  0.93427232866E+02  0.14237869522E+03 -0.37199121304E+02  0.17437375181E+03  0.47000000000E+01 0.  1.
         11    1    6    6    0    0  0.12194107658E+02  0.15297459934E+03 -0.16991182602E+02  0.15439761848E+03  0.00000000000E+00 0. -1.
        -12    1    6    6    0    0 -0.17315616528E+02  0.89924209847E+02  0.45805281451E+02  0.10239295826E+03  0.00000000000E+00 0.  1.
</event>
<event>
12    1  0.1229806E+000  0.2289692E+03  0.7818608E-02  0.1127519E+00
         21   -1    0    0  501  502  0.00000000000E+00  0.00000000000E+00  0.19230038404E+03  0.19230038404E+03  0.00000000000E+00 0.  1.
         21   -1    0    0  502  503 -0.00000000000E+00 -0.00000000000E+00 -0.44074921277E+03  0.44074921277E+03  0.00000000000E+00 0.  1.
         -6    2    1    2    0  503  0.36590902632E+01  0.15162165774E+03  0.71994737701E+02  0.23920828970E+03  0.17039614891E+03 0.  0.
        -24    2    3    3    0    0 -0.50584498937E+01  0.17287442526E+03  0.89105462413E+02  0.21018170647E+03  0.79532455483E+02 0.  0.
          6    2    1    2  501    0 -0.36590902632E+01 -0.15162165774E+03 -0.32044356643E+03  0.39384130711E+03  0.17153536044E+03 0.  0.
         24    2    5    5    0    0  0.35181423795E+02 -0.15150612068E+02 -0.13889712636E+03  0.16337627345E+03  0.77020266084E+02 0.  0.
          5    1    5    5  501    0 -0.38840514058E+02 -0.13647104567E+03 -0.18154644007E+03  0.23046503367E+03  0.47000000000E+01 0. -1.
        -13    1    6    6    0    0  0.33281994139E+02 -0.36772959750E+02 -0.44890001508E+02  0.66895843952E+02  0.00000000000E+00 0.  1.
         14    1    6    6    0    0  0.18994296564E+01  0.21622347683E+02 -0.94007124853E+02  0.96480429494E+02  0.00000000000E+00 0. -1.
         -5    1    3    3    0  503  0.87175401569E+01 -0.21252767524E+02 -0.17110724712E+02  0.29026583230E+02  0.47000000000E+01 0.  1.
         11    1    4    4    0    0  0.28793721453E+02  0.59397563086E+02  0.57692629306E+02  0.87667487541E+02  0.00000000000E+00 0. -1.
        -12    1    4    4    0    0 -0.33852171347E+02  0.11347686218E+03  0.31412833107E+02  0.12251421892E+03  0.00000000000E+00 0.  1.
</event>
<event>
12    1  0.1032880E+000  0.2790366E+03  0.7818608E-02  0.1096355E+00
         21   -1    0    0  501  502  0.00000000000E+00  0.00000000000E+00  0.11351205785E+03  0.11351205785E+03  0.00000000000E+00 0. -1.
         21   -1    0    0  502  503 -0.00000000000E+00 -0.00000000000E+00 -0.71885736335E+03  0.71885736335E+03  0.00000000000E+00 0. -1.
         -6    2    1    2    0  503 -0.10813383109E+03  0.19003419146E+03 -0.39450609040E+03  0.48263438370E+03  0.17174100739E+03 0.  0.
        -24    2    3    3    0    0 -0.95807795591E+01  0.14860856924E+03 -0.27187243227E+03  0.31987723256E+03  0.78933682877E+02 0.  0.
          6    2    1    2  501    0  0.10813383109E+03 -0.19003419146E+03 -0.21083921510E+03  0.34973503750E+03  0.17336522858E+03 0.  0.
         24    2    5    5    0    0  0.83676406155E+02 -0.13610783802E+03 -0.60205915941E+02  0.18781314878E+03  0.78242840085E+02 0.  0.
          5    1    5    5  501    0  0.24457424938E+02 -0.53926353447E+02 -0.15063329916E+03  0.16192188872E+03  0.47000000000E+01 0. -1.
        -13    1    6    6    0    0  0.61842379068E+01 -0.83432019408E+02 -0.35711280008E+02  0.90963960890E+02  0.00000000000E+00 0.  1.
         14    1    6    6    0    0  0.77492168248E+02 -0.52675818609E+02 -0.24494635933E+02  0.96849187892E+02  0.00000000000E+00 0. -1.
         -5    1    3    3    0  503 -0.98553051533E+02  0.41425622225E+02 -0.12263365813E+03  0.16275715115E+03  0.47000000000E+01 0.  1.
         11    1    4    4    0    0  0.44517519023E+01 -0.83849037857E+01 -0.75610462611E+01  0.12136479187E+02  0.00000000000E+00 0. -1.
        -12    1    4    4    0    0 -0.14032531461E+02  0.15699347302E+03 -0.26431138601E+03  0.30774075337E+03  0.00000000000E+00 0.  1.
</event>
<event>
12    1  0.1032880E+000  0.2714524E+03  0.7818608E-02  0.1100556E+00
         21   -1    0    0  501  502  0.00000000000E+00  0.00000000000E+00  0.44913424236E+03  0.44913424236E+03  0.00000000000E+00 0.  1.
         21   -1    0    0  502  503 -0.00000000000E+00 -0.00000000000E+00 -0.22585958483E+03  0.22585958483E+03  0.00000000000E+00 0.  1.
         -6    2    1    2    0  503  0.18360986947E+03  0.10135854030E+03  0.28869614500E+03  0.39576925128E+03  0.17117738829E+03 0.  0.
        -24    2    3    3    0    0  0.18888476204E+03  0.12189330293E+03  0.28898657731E+03  0.37405116392E+03  0.76587209979E+02 0.  0.
          6    2    1    2  501    0 -0.18360986947E+03 -0.10135854030E+03 -0.65421487476E+02  0.27922457591E+03  0.17233761896E+03 0.  0.
         24    2    5    5    0    0 -0.16106916845E+02 -0.23537693237E+02 -0.30121559461E+02  0.91124872843E+02  0.81135555296E+02 0.  0.
          5    1    5    5  501    0 -0.16750295262E+03 -0.77820847068E+02 -0.35299928015E+02  0.18809970307E+03  0.47000000000E+01 0. -1.
        -11    1    6    6    0    0  0.37913721633E+01  0.25234706390E+02 -0.28736813527E+02  0.38431359085E+02  0.00000000000E+00 0.  1.
         12    1    6    6    0    0 -0.19898289008E+02 -0.48772399627E+02 -0.13847459341E+01  0.52693513758E+02  0.00000000000E+00 0. -1.
         -5    1    3    3    0  503 -0.52748925711E+01 -0.20534762629E+02 -0.29043230777E+00  0.21718087365E+02  0.47000000000E+01 0.  1.
         13    1    4    4    0    0  0.32432384170E+02  0.45492154724E+02  0.11529145600E+03  0.12811524309E+03  0.00000000000E+00 0. -1.
        -14    1    4    4    0    0  0.15645237787E+03  0.76401148210E+02  0.17369512131E+03  0.24593592083E+03  0.00000000000E+00 0.  1.
</event>
<event>
12    1  0.1032880E+000  0.1733341E+03  0.7818608E-02  0.1174497E+00
         21   -1    0    0  503  502  0.00000000000E+00  0.00000000000E+00  0.24539031454E+03  0.24539031454E+03  0.00000000000E+00 0. -1.
         21   -1    0    0  501  503 -0.00000000000E+00 -0.00000000000E+00 -0.13233716956E+03  0.13233716956E+03  0.00000000000E+00 0. -1.
          6    2    1    2  501    0  0.62511839281E+01  0.22448416125E+02  0.10872685275E+03  0.20433943021E+03  0.17143531008E+03 0.  0.
         24    2    3    3    0    0  0.28765366383E+01 -0.43254870762E+02  0.18147196209E+02  0.92290002139E+02  0.79428366828E+02 0.  0.
         -6    2    1    2    0  502 -0.62511839281E+01 -0.22448416125E+02  0.43262922276E+01  0.17338805389E+03  0.17176056515E+03 0.  0.
        -24    2    5    5    0    0  0.42452996552E+02 -0.50704722048E+02  0.34085079089E+02  0.10952733501E+03  0.80381706522E+02 0.  0.
          5    1    3    3  501    0  0.33746472898E+01  0.65703286887E+02  0.90579656543E+02  0.11204942807E+03  0.47000000000E+01 0. -1.
        -11    1    4    4    0    0  0.27693222703E+02 -0.20824075273E+02  0.39547251154E+02  0.52578909921E+02  0.00000000000E+00 0.  1.
         12    1    4    4    0    0 -0.24816686064E+02 -0.22430795489E+02 -0.21400054945E+02  0.39711092218E+02  0.00000000000E+00 0. -1.
         -5    1    5    5    0  502 -0.48704180480E+02  0.28256305923E+02 -0.29758786861E+02  0.63860718882E+02  0.47000000000E+01 0.  1.
         13    1    6    6    0    0  0.23277940086E+02 -0.10770541349E+02  0.54889189870E+02  0.60586221372E+02  0.00000000000E+00 0. -1.
        -14    1    6    6    0    0  0.19175056466E+02 -0.39934180699E+02 -0.20804110781E+02  0.48941113637E+02  0.00000000000E+00 0.  1.
</event>
<event>
12    1  0.1032880E+000  0.2035776E+03  0.7818608E-02  0.1147209E+00
         21   -1    0    0  503  502  0.00000000000E+00  0.00000000000E+00  0.14862339730E+03  0.14862339730E+03  0.00000000000E+00 0. -1.
         21   -1    0    0  501  503 -0.00000000000E+00 -0.00000000000E+00 -0.31938733638E+03  0.31938733638E+03  0.00000000000E+00 0. -1.
          6    2    1    2  501    0  0.56252856746E+02 -0.88871139801E+02 -0.17137005817E+03  0.26443220282E+03  0.17173884148E+03 0.  0.
         24    2    3    3    0    0  0.64952692640E+02 -0.10394623218E+03 -0.18823009832E+03  0.23974827063E+03  0.83815224710E+02 0.  0.
         -6    2    1    2    0  502 -0.56252856746E+02  0.88871139801E+02  0.60611909363E+00  0.20357853086E+03  0.17430257446E+03 0.  0.
        -24    2    5    5    0    0 -0.50816236581E+02 -0.36758011345E+01 -0.39524584272E+02  0.10244962071E+03  0.79611121125E+02 0.  0.
          5    1    3    3  501    0 -0.86998358941E+01  0.15075092376E+02  0.16860040147E+02  0.24683932192E+02  0.47000000000E+01 0. -1.
        -13    1    4    4    0    0  0.12178930107E+02  0.22484331371E+01  0.47340279600E+01  0.13258688127E+02  0.00000000000E+00 0.  1.
         14    1    4    4    0    0  0.52773762533E+02 -0.10619466531E+03 -0.19296412628E+03  0.22648958250E+03  0.00000000000E+00 0. -1.
         -5    1    5    5    0  502 -0.54366201648E+01  0.92546940936E+02  0.40130703366E+02  0.10112891015E+03  0.47000000000E+01 0.  1.
         13    1    6    6    0    0 -0.44979470959E+02  0.76009973368E+01  0.13780345386E+02  0.47653183390E+02  0.00000000000E+00 0. -1.
        -14    1    6    6    0    0 -0.58367656225E+01 -0.11276798471E+02 -0.53304929658E+02  0.54796437316E+02  0.00000000000E+00 0.  1.
</event>
<event>
12    1  0.1032880E+000  0.2045391E+03  0.7818608E-02  0.1149324E+00
         21   -1    0    0  501  502  0.00000000000E+00  0.00000000000E+00  0.17958043970E+03  0.17958043970E+03  0.00000000000E+00 0.  1.
         21   -1    0    0  502  503 -0.00000000000E+00 -0.00000000000E+00 -0.21885938301E+03  0.21885938301E+03  0.00000000000E+00 0.  1.
         -6    2    1    2    0  503 -0.69967154474E+02 -0.38062919986E+02  0.61073559806E+01  0.18892570919E+03  0.17120582704E+03 0.  0.
        -24    2    3    3    0    0 -0.85805507065E+02 -0.53102778487E+02  0.53623275740E+02  0.13641948683E+03  0.74513962177E+02 0.  0.
          6    2    1    2  501    0  0.69967154474E+02  0.38062919986E+02 -0.45386299291E+02  0.20951411352E+03  0.18839336245E+03 0.  0.
         24    2    5    5    0    0 -0.27715298354E+02 -0.52326965435E+01 -0.55388690607E+02  0.10209665761E+03  0.80995688602E+02 0.  0.
          5    1    5    5  501    0  0.97682452827E+02  0.43295616530E+02  0.10002391315E+02  0.10741745591E+03  0.47000000000E+01 0. -1.
        -11    1    6    6    0    0  0.10930611503E+02 -0.86843342104E+01 -0.61281869101E+02  0.62851916510E+02  0.00000000000E+00 0.  1.
         12    1    6    6    0    0 -0.38645909857E+02  0.34516376669E+01  0.58931784944E+01  0.39244741100E+02  0.00000000000E+00 0. -1.
         -5    1    3    3    0  503  0.15838352591E+02  0.15039858501E+02 -0.47515919759E+02  0.52506222365E+02  0.47000000000E+01 0.  1.
         11    1    4    4    0    0 -0.42016908800E+02 -0.44957127958E+02 -0.61888217372E+01  0.61845496957E+02  0.00000000000E+00 0. -1.
        -12    1    4    4    0    0 -0.43788598265E+02 -0.81456505290E+01  0.59812097477E+02  0.74573989870E+02  0.00000000000E+00 0.  1.
</event>
<event>
12    1  0.1032880E+000  0.2604629E+03  0.7818608E-02  0.1107239E+00
         21   -1    0    0  501  502  0.00000000000E+00  0.00000000000E+00  0.11637038873E+03  0.11637038873E+03  0.00000000000E+00 0.  1.
         21   -1    0    0  502  503 -0.00000000000E+00 -0.00000000000E+00 -0.60856235901E+03  0.60856235901E+03  0.00000000000E+00 0.  1.
         -6    2    1    2    0  503  0.36477281971E+02  0.19191181691E+03 -0.16523774331E+03  0.30845489362E+03  0.17227934297E+03 0.  0.
        -24    2    3    3    0    0  0.76271293636E+02  0.17643953125E+03 -0.16428128882E+03  0.26549025940E+03  0.80922911226E+02 0.  0.
          6    2    1    2  501    0 -0.36477281971E+02 -0.19191181691E+03 -0.32695422697E+03  0.41647785413E+03  0.16850518946E+03 0.  0.
         24    2    5    5    0    0  0.29968869652E+02 -0.16530953194E+03 -0.22652371793E+03  0.29306330970E+03  0.79672669126E+02 0.  0.
          5    1    5    5  501    0 -0.66446151624E+02 -0.26602284969E+02 -0.10043050904E+03  0.12341454443E+03  0.47000000000E+01 0. -1.
        -11    1    6    6    0    0  0.10611268832E+02 -0.13779690311E+02 -0.78308239424E+02  0.80216327845E+02  0.00000000000E+00 0.  1.
         12    1    6    6    0    0  0.19357600821E+02 -0.15152984163E+03 -0.14821547851E+03  0.21284698185E+03  0.00000000000E+00 0. -1.
         -5    1    3    3    0  503 -0.39794011665E+02  0.15472285664E+02 -0.95645448356E+00  0.42964634215E+02  0.47000000000E+01 0.  1.
         11    1    4    4    0    0  0.44950696266E+02  0.73270136205E+02 -0.25329669346E+02  0.89614006179E+02  0.00000000000E+00 0. -1.
        -12    1    4    4    0    0  0.31320597371E+02  0.10316939504E+03 -0.13895161948E+03  0.17587625322E+03  0.00000000000E+00 0.  1.
</event>
<event>
12    1  0.1032880E+000  0.2043072E+03  0.7818608E-02  0.1146249E+00
         21   -1    0    0  501  502  0.00000000000E+00  0.00000000000E+00  0.62410340243E+03  0.62410340243E+03  0.00000000000E+00 0.  1.
         21   -1    0    0  502  503 -0.00000000000E+00 -0.00000000000E+00 -0.67324678643E+02  0.67324678643E+02  0.00000000000E+00 0.  1.
         -6    2    1    2    0  503 -0.47359189071E+02  0.95419629730E+02  0.31050284066E+03  0.37143862353E+03  0.17380114633E+03 0.  0.
        -24    2    3    3    0    0 -0.36007073911E+02  0.81972360395E+02  0.88640577074E+02  0.14882987803E+03  0.79228804413E+02 0.  0.
          6    2    1    2  501    0  0.47359189071E+02 -0.95419629730E+02  0.24627588313E+03  0.31998945755E+03  0.17433772914E+03 0.  0.
         24    2    5    5    0    0 -0.41254959501E+02 -0.57728927116E+02  0.14788614708E+03  0.18223719241E+03  0.79407059442E+02 0.  0.
          5    1    5    5  501    0  0.88614148572E+02 -0.37690702614E+02  0.98389736045E+02  0.13775226513E+03  0.47000000000E+01 0. -1.
        -11    1    6    6    0    0 -0.33724818820E+02  0.10867539864E+02  0.67957552954E+02  0.76640040649E+02  0.00000000000E+00 0.  1.
         12    1    6    6    0    0 -0.75301406809E+01 -0.68596466980E+02  0.79928594128E+02  0.10559715176E+03  0.00000000000E+00 0. -1.
         -5    1    3    3    0  503 -0.11352115161E+02  0.13447269335E+02  0.22186226359E+03  0.22260874551E+03  0.47000000000E+01 0.  1.
         13    1    4    4    0    0 -0.52255648900E+02  0.64237018451E+02  0.92849765958E+02  0.12441111855E+03  0.00000000000E+00 0. -1.
        -14    1    4    4    0    0  0.16248574989E+02  0.17735341944E+02 -0.42091888838E+01  0.24418759472E+02  0.00000000000E+00 0.  1.
</event>
<event>
12    1  0.1032880E+000  0.2194644E+03  0.7818608E-02  0.1134411E+00
         21   -1    0    0  501  502  0.00000000000E+00  0.00000000000E+00  0.23664731204E+04  0.23664731204E+04  0.00000000000E+00 0.  1.
         21   -1    0    0  502  503 -0.00000000000E+00 -0.00000000000E+00 -0.20860562894E+02  0.20860562894E+02  0.00000000000E+00 0.  1.
         -6    2    1    2    0  503 -0.57527003219E+02 -0.12294790601E+03  0.13720674699E+04  0.13895084674E+04  0.17245026867E+03 0.  0.
        -24    2    3    3    0    0 -0.62730517689E+02 -0.14729177006E+03  0.95950351537E+03  0.97616743761E+03  0.81399550795E+02 0.  0.
          6    2    1    2  501    0  0.57527003219E+02  0.12294790601E+03  0.97354508761E+03  0.99782521595E+03  0.17157966166E+03 0.  0.
         24    2    5    5    0    0  0.35381611950E+02  0.14575984899E+03  0.61922326258E+03  0.64204881315E+03  0.79318582400E+02 0.  0.
          5    1    5    5  501    0  0.22145391270E+02 -0.22811942975E+02  0.35432182503E+03  0.35577640280E+03  0.47000000000E+01 0. -1.
        -13    1    6    6    0    0  0.51457423302E+02  0.14014840240E+03  0.58596385139E+03  0.60468427815E+03  0.00000000000E+00 0.  1.
         14    1    6    6    0    0 -0.16075811352E+02  0.56114465930E+01  0.33259411191E+02  0.37364535007E+02  0.00000000000E+00 0. -1.
         -5    1    3    3    0  503  0.52035144693E+01  0.24343864049E+02  0.41256395458E+03  0.41334102977E+03  0.47000000000E+01 0.  1.
         11    1    4    4    0    0 -0.43192910407E+02 -0.13457677040E+03  0.91573711367E+03  0.92658026959E+03  0.00000000000E+00 0. -1.
        -12    1    4    4    0    0 -0.19537607282E+02 -0.12714999663E+02  0.43766401700E+02  0.49587168022E+02  0.00000000000E+00 0.  1.
</event>
<event>
12    1  0.1032880E+000  0.1816271E+03  0.7818608E-02  0.1166283E+00
         21   -1    0    0  503  502  0.00000000000E+00  0.00000000000E+00  0.38315425350E+02  0.38315425350E+02  0.00000000000E+00 0. -1.
         21   -1    0    0  501  503 -0.00000000000E+00 -0.00000000000E+00 -0.87851291369E+03  0.87851291369E+03  0.00000000000E+00 0. -1.
          6    2    1    2  501    0  0.55941742685E+02 -0.12173992962E+02 -0.35346087121E+03  0.39730842561E+03  0.17216768833E+03 0.  0.
         24    2    3    3    0    0  0.28150459347E+02  0.31189797483E+02 -0.81215923250E+02  0.12019441398E+03  0.78009096483E+02 0.  0.
         -6    2    1    2    0  502 -0.55941742685E+02  0.12173992962E+02 -0.48673661712E+03  0.51951991343E+03  0.17236798228E+03 0.  0.
        -24    2    5    5    0    0 -0.44404234943E+02  0.11746300117E+01 -0.49321160189E+03  0.50168412082E+03  0.80350214684E+02 0.  0.
          5    1    3    3  501    0  0.27791283338E+02 -0.43363790445E+02 -0.27224494796E+03  0.27711401163E+03  0.47000000000E+01 0. -1.
        -11    1    4    4    0    0  0.21684104365E+01  0.17355862773E+02 -0.88219979442E+02  0.89937160002E+02  0.00000000000E+00 0.  1.
         12    1    4    4    0    0  0.25982048911E+02  0.13833934710E+02  0.70040561921E+01  0.30257253978E+02  0.00000000000E+00 0. -1.
         -5    1    5    5    0  502 -0.11537507743E+02  0.10999362950E+02  0.64749847699E+01  0.17835792609E+02  0.47000000000E+01 0.  1.
         11    1    6    6    0    0  0.80665269872E+01  0.29821412851E+02 -0.20732005253E+03  0.20960913555E+03  0.00000000000E+00 0. -1.
        -12    1    6    6    0    0 -0.52470761930E+02 -0.28646782839E+02 -0.28589154936E+03  0.29207498527E+03  0.00000000000E+00 0.  1.
</event>
<event>
12    1  0.1032880E+000  0.4092308E+03  0.7818608E-02  0.1040708E+00
         21   -1    0    0  503  502  0.00000000000E+00  0.00000000000E+00  0.46036394563E+03  0.46036394563E+03  0.00000000000E+00 0.  1.
         21   -1    0    0  501  503 -0.00000000000E+00 -0.00000000000E+00 -0.36333905672E+03  0.36333905672E+03  0.00000000000E+00 0.  1.
          6    2    1    2  501    0  0.37019082960E+03 -0.79649018299E+01  0.35135988956E+02  0.41073634666E+03  0.17425590023E+03 0.  0.
         24    2    3    3    0    0  0.12888899326E+03  0.47873231034E+02  0.37615057980E+02  0.16300118749E+03  0.79058685190E+02 0.  0.
         -6    2    1    2    0  502 -0.37019082960E+03  0.79649018299E+01  0.61888899958E+02  0.41296665569E+03  0.17206548983E+03 0.  0.
        -24    2    5    5    0    0 -0.23285172397E+03 -0.62251662091E+02  0.25495245139E+02  0.25441387616E+03  0.77338335066E+02 0.  0.
          5    1    3    3  501    0  0.24130183634E+03 -0.55838132864E+02 -0.24790690234E+01  0.24773515916E+03  0.47000000000E+01 0. -1.
        -11    1    4    4    0    0  0.13563942357E+03  0.36349052464E+02  0.21485040422E+02  0.14205954316E+03  0.00000000000E+00 0.  1.
         12    1    4    4    0    0 -0.67504303057E+01  0.11524178570E+02  0.16130017558E+02  0.20941644335E+02  0.00000000000E+00 0. -1.
         -5    1    5    5    0  502 -0.13733910563E+03  0.70216563921E+02  0.36393654819E+02  0.15855277953E+03  0.47000000000E+01 0.  1.
         13    1    6    6    0    0 -0.77686168003E+02 -0.25976054447E+02  0.45681754667E+02  0.93790824781E+02  0.00000000000E+00 0. -1.
        -14    1    6    6    0    0 -0.15516555596E+03 -0.36275607644E+02 -0.20186509528E+02  0.16062305138E+03  0.00000000000E+00 0.  1.
</event>
<event>
12    1  0.1032880E+000  0.3592875E+03  0.7818608E-02  0.1058921E+00
         21   -1    0    0  503  502  0.00000000000E+00  0.00000000000E+00  0.20087814545E+03  0.20087814545E+03  0.00000000000E+00 0.  1.
         21   -1    0    0  501  503 -0.00000000000E+00 -0.00000000000E+00 -0.75288346517E+03  0.75288346517E+03  0.00000000000E+00 0.  1.
          6    2    1    2  501    0  0.28494785764E+03 -0.13424074991E+03 -0.45913307433E+03  0.58266487456E+03  0.17169541516E+03 0.  0.
         24    2    3    3    0    0  0.16766373795E+03 -0.13342625176E+03 -0.22328795014E+03  0.31922372222E+03  0.78310806855E+02 0.  0.
         -6    2    1    2    0  502 -0.28494785764E+03  0.13424074991E+03 -0.92872245391E+02  0.37109673606E+03  0.17283423574E+03 0.  0.
        -24    2    5    5    0    0 -0.28917074976E+03  0.15468505876E+03 -0.87980857583E+02  0.34914637714E+03  0.81334933777E+02 0.  0.
          5    1    3    3  501    0  0.11728411969E+03 -0.81449815260E+00 -0.23584512419E+03  0.26344115234E+03  0.47000000000E+01 0. -1.
        -13    1    4    4    0    0  0.13146136778E+03 -0.78516147198E+02 -0.11111668235E+03  0.18919247788E+03  0.00000000000E+00 0.  1.
         14    1    4    4    0    0  0.36202370175E+02 -0.54910104557E+02 -0.11217126778E+03  0.13003124434E+03  0.00000000000E+00 0. -1.
         -5    1    5    5    0  502  0.42228921154E+01 -0.20444308848E+02 -0.48913878074E+01  0.21950358922E+02  0.47000000000E+01 0.  1.
         11    1    6    6    0    0 -0.20027338462E+03  0.63857517030E+02 -0.64702831801E+02  0.21994014529E+03  0.00000000000E+00 0. -1.
        -12    1    6    6    0    0 -0.88897365139E+02  0.90827541726E+02 -0.23278025783E+02  0.12920623185E+03  0.00000000000E+00 0.  1.
</event>
<event>
12    1  0.1032880E+000  0.2490835E+03  0.7818608E-02  0.1113921E+00
         21   -1    0    0  503  502  0.00000000000E+00  0.00000000000E+00  0.43701731801E+02  0.43701731801E+02  0.00000000000E+00 0.  1.
         21   -1    0    0  501  503 -0.00000000000E+00 -0.00000000000E+00 -0.16101626255E+04  0.16101626255E+04  0.00000000000E+00 0.  1.
          6    2    1    2  501    0 -0.72698778271E+02 -0.16353540753E+03 -0.10683004254E+04  0.10969025723E+04  0.17291764602E+03 0.  0.
         24    2    3    3    0    0 -0.27166633210E+02 -0.63800927855E+01 -0.39397602633E+03  0.40299591115E+03  0.80061623392E+02 0.  0.
         -6    2    1    2    0  502  0.72698778271E+02  0.16353540753E+03 -0.49816046822E+03  0.55696178494E+03  0.17324443974E+03 0.  0.
        -24    2    5    5    0    0  0.49871615449E+02  0.46101811775E+02 -0.35022210247E+03  0.36664736395E+03  0.84629860901E+02 0.  0.
          5    1    3    3  501    0 -0.45532145061E+02 -0.15715531474E+03 -0.67432439911E+03  0.69390666117E+03  0.47000000000E+01 0. -1.
        -13    1    4    4    0    0 -0.43790972501E+02  0.24159857074E+02 -0.23314952242E+03  0.23845344990E+03  0.00000000000E+00 0.  1.
         14    1    4    4    0    0  0.16624339292E+02 -0.30539949859E+02 -0.16082650391E+03  0.16454246125E+03  0.00000000000E+00 0. -1.
         -5    1    5    5    0  502  0.22827162822E+02  0.11743359575E+03 -0.14793836575E+03  0.19031442099E+03  0.47000000000E+01 0.  1.
         11    1    6    6    0    0  0.16191944009E+02  0.63257873276E+02 -0.16194322930E+03  0.17461199013E+03  0.00000000000E+00 0. -1.
        -12    1    6    6    0    0  0.33679671440E+02 -0.17156061500E+02 -0.18827887317E+03  0.19203537382E+03  0.00000000000E+00 0.  1.
</event>
<event>
12    1  0.1032880E+000  0.2406059E+03  0.7818608E-02  0.1119439E+00
         21   -1    0    0  503  502  0.00000000000E+00  0.00000000000E+00  0.50616891232E+03  0.50616891232E+03  0.00000000000E+00 0. -1.
         21   -1    0    0  501  503 -0.00000000000E+00 -0.00000000000E+00 -0.11689618670E+03  0.11689618670E+03  0.00000000000E+00 0. -1.
          6    2    1    2  501    0 -0.66561174700E+02  0.15458374467E+03  0.14746644144E+03  0.28194711962E+03  0.17152639102E+03 0.  0.
         24    2    3    3    0    0 -0.47066860263E+02  0.96409090466E+02  0.16993713181E+03  0.21643879486E+03  0.80356213791E+02 0.  0.
         -6    2    1    2    0  502  0.66561174700E+02 -0.15458374467E+03  0.24180628417E+03  0.34111797940E+03  0.17194380685E+03 0.  0.
        -24    2    5    5    0    0  0.26035128146E+02 -0.16212024331E+03  0.23989056759E+03  0.29958583244E+03  0.72411224209E+02 0.  0.
          5    1    3    3  501    0 -0.19494314437E+02  0.58174654202E+02 -0.22470690366E+02  0.65508324757E+02  0.47000000000E+01 0. -1.
        -11    1    4    4    0    0 -0.69267113500E+02  0.61351844951E+02  0.11580939317E+03  0.14823561461E+03  0.00000000000E+00 0.  1.
         12    1    4    4    0    0  0.22200253237E+02  0.35057245515E+02  0.54127738636E+02  0.68203180254E+02  0.00000000000E+00 0. -1.
         -5    1    5    5    0  502  0.40526046554E+02  0.75364986414E+01  0.19157165784E+01  0.41532146959E+02  0.47000000000E+01 0.  1.
         11    1    6    6    0    0 -0.15157274071E+02 -0.40280370271E+01  0.27141283033E+02  0.31346726851E+02  0.00000000000E+00 0. -1.
        -12    1    6    6    0    0  0.41192402218E+02 -0.15809220628E+03  0.21274928456E+03  0.26823910559E+03  0.00000000000E+00 0.  1.
</event>
<event>
12    1  0.1032880E+000  0.1797075E+03  0.7818608E-02  0.1168678E+00
         21   -1    0    0  501  502  0.00000000000E+00  0.00000000000E+00  0.78401944648E+03  0.78401944648E+03  0.00000000000E+00 0. -1.
         21   -1    0    0  502  503 -0.00000000000E+00 -0.00000000000E+00 -0.60745647130E+02  0.60745647130E+02  0.00000000000E+00 0. -1.
         -6    2    1    2    0  503 -0.20351917999E+02 -0.41704313282E+02  0.60628406763E+03  0.63235681852E+03  0.17361257142E+03 0.  0.
        -24    2    3    3    0    0 -0.66884333558E+02 -0.60137724134E+02  0.32165879755E+03  0.34332621339E+03  0.79488658441E+02 0.  0.
          6    2    1    2  501    0  0.20351917999E+02  0.41704313282E+02  0.11698973172E+03  0.21240827508E+03  0.17110589611E+03 0.  0.
         24    2    5    5    0    0 -0.16483172758E+01  0.67010903847E+02  0.19878174071E+02  0.10956286436E+03  0.84354616109E+02 0.  0.
          5    1    5    5  501    0  0.22000235274E+02 -0.25306590565E+02  0.97111557645E+02  0.10284541072E+03  0.47000000000E+01 0. -1.
        -11    1    6    6    0    0  0.72743427723E+01  0.55657048991E+02  0.50628874383E+02  0.75590383558E+02  0.00000000000E+00 0.  1.
         12    1    6    6    0    0 -0.89226600480E+01  0.11353854856E+02 -0.30750700312E+02  0.33972480805E+02  0.00000000000E+00 0. -1.
         -5    1    3    3    0  503  0.46532415559E+02  0.18433410852E+02  0.28462527008E+03  0.28903060513E+03  0.47000000000E+01 0.  1.
         13    1    4    4    0    0 -0.24882571227E+02 -0.45919095454E+01  0.21145705281E+03  0.21296552108E+03  0.00000000000E+00 0. -1.
        -14    1    4    4    0    0 -0.42001762331E+02 -0.55545814589E+02  0.11020174474E+03  0.13036069232E+03  0.00000000000E+00 0.  1.
</event>
<event>
12    1  0.1032880E+000  0.2184779E+03  0.7818608E-02  0.1135180E+00
         21   -1    0    0  503  502  0.00000000000E+00  0.00000000000E+00  0.16445265950E+03  0.16445265950E+03  0.00000000000E+00 0. -1.
         21   -1    0    0  501  503 -0.00000000000E+00 -0.00000000000E+00 -0.71647120616E+03  0.71647120616E+03  0.00000000000E+00 0. -1.
          6    2    1    2  501    0  0.12831299638E+03 -0.38642438205E+02  0.63942393941E+02  0.22764276721E+03  0.17255473523E+03 0.  0.
         24    2    3    3    0    0  0.97749403520E+02  0.42552496065E+01  0.10276511011E+03  0.16204064744E+03  0.78252479385E+02 0.  0.
         -6    2    1    2    0  502 -0.12831299638E+03  0.38642438205E+02 -0.61596094060E+03  0.65328109844E+03  0.17149591878E+03 0.  0.
        -24    2    5    5    0    0 -0.77728621838E+02  0.79889547678E+02 -0.52288289029E+03  0.53950185412E+03  0.72330181515E+02 0.  0.
          5    1    3    3  501    0  0.30563592865E+02 -0.42897687811E+02 -0.38822716164E+02  0.65602119773E+02  0.47000000000E+01 0. -1.
        -13    1    4    4    0    0  0.85803654669E+02 -0.28176980366E+02  0.68294391004E+02  0.11322691032E+03  0.00000000000E+00 0.  1.
         14    1    4    4    0    0  0.11945748851E+02  0.32432229972E+02  0.34470719102E+02  0.48813737124E+02  0.00000000000E+00 0. -1.
         -5    1    5    5    0  502 -0.50584374547E+02 -0.41247109474E+02 -0.93078050307E+02  0.11377924432E+03  0.47000000000E+01 0.  1.
         13    1    6    6    0    0 -0.78545906459E+01  0.38203117050E+02 -0.77640958412E+02  0.86886657029E+02  0.00000000000E+00 0. -1.
        -14    1    6    6    0    0 -0.69874031192E+02  0.41686430628E+02 -0.44524193188E+03  0.45261519709E+03  0.00000000000E+00 0.  1.
</event>
<event>
12    1  0.1032880E+000  0.1866485E+03  0.7818608E-02  0.1162182E+00
         21   -1    0    0  503  502  0.00000000000E+00  0.00000000000E+00  0.56879974633E+02  0.56879974633E+02  0.00000000000E+00 0.  1.
         21   -1    0    0  501  503 -0.00000000000E+00 -0.00000000000E+00 -0.72216382667E+03  0.72216382667E+03  0.00000000000E+00 0.  1.
          6    2    1    2  501    0  0.24687507989E+02 -0.61014353871E+02 -0.17666670579E+03  0.25699956129E+03  0.17465802342E+03 0.  0.
         24    2    3    3    0    0  0.45669911487E+02  0.26183100582E+02 -0.80598970873E+02  0.12549002928E+03  0.80500048269E+02 0.  0.
         -6    2    1    2    0  502 -0.24687507989E+02  0.61014353871E+02 -0.48861714625E+03  0.52204424001E+03  0.17161366055E+03 0.  0.
        -24    2    5    5    0    0 -0.57202207495E+02  0.34005135609E+02 -0.16799082407E+03  0.19860949848E+03  0.82440124475E+02 0.  0.
          5    1    3    3  501    0 -0.20982403499E+02 -0.87197454453E+02 -0.96067734912E+02  0.13150953202E+03  0.47000000000E+01 0. -1.
        -13    1    4    4    0    0  0.43399656992E+02  0.22420622415E+02 -0.42705444681E+01  0.49035212721E+02  0.00000000000E+00 0.  1.
         14    1    4    4    0    0  0.22702544950E+01  0.37624781670E+01 -0.76328426405E+02  0.76454816558E+02  0.00000000000E+00 0. -1.
         -5    1    5    5    0  502  0.32514699506E+02  0.27009218262E+02 -0.32062632218E+03  0.32343474153E+03  0.47000000000E+01 0.  1.
         13    1    6    6    0    0 -0.11053025916E+02  0.11218550340E+01 -0.12980107078E+03  0.13027565358E+03  0.00000000000E+00 0. -1.
        -14    1    6    6    0    0 -0.46149181578E+02  0.32883280575E+02 -0.38189753291E+02  0.68333844895E+02  0.00000000000E+00 0.  1.
</event>
<event>
12    1  0.1032880E+000  0.1835094E+03  0.7818608E-02  0.1164582E+00
         21   -1    0    0  503  502  0.00000000000E+00  0.00000000000E+00  0.72744530782E+02  0.72744530782E+02  0.00000000000E+00 0.  1.
         21   -1    0    0  501  503 -0.00000000000E+00 -0.00000000000E+00 -0.48768551650E+03  0.48768551650E+03  0.00000000000E+00 0.  1.
          6    2    1    2  501    0 -0.47736446732E+02 -0.41367117574E+02 -0.27267825362E+03  0.32867783285E+03  0.17229533089E+03 0.  0.
         24    2    3    3    0    0  0.83827759765E+01 -0.10413643051E+02 -0.23477868312E+03  0.25407252348E+03  0.96193046747E+02 0.  0.
         -6    2    1    2    0  502  0.47736446732E+02  0.41367117574E+02 -0.14226273209E+03  0.23175221443E+03  0.17169856490E+03 0.  0.
        -24    2    5    5    0    0  0.98322564381E+00  0.74120206224E+02 -0.13631875205E+03  0.17416706533E+03  0.79098626926E+02 0.  0.
          5    1    3    3  501    0 -0.56119222709E+02 -0.30953474524E+02 -0.37899570500E+02  0.74605309373E+02  0.47000000000E+01 0. -1.
        -13    1    4    4    0    0  0.51328517733E+01 -0.22619226110E+02 -0.47228997103E+01  0.23670262753E+02  0.00000000000E+00 0.  1.
         14    1    4    4    0    0  0.32499242033E+01  0.12205583059E+02 -0.23005578341E+03  0.23040226072E+03  0.00000000000E+00 0. -1.
         -5    1    5    5    0  502  0.46753221088E+02 -0.32753088649E+02 -0.59439800434E+01  0.57585149101E+02  0.47000000000E+01 0.  1.
         11    1    6    6    0    0 -0.14859066626E+02 -0.70222726781E+01 -0.21545623979E+01  0.16575473257E+02  0.00000000000E+00 0. -1.
        -12    1    6    6    0    0  0.15842292270E+02  0.81142478902E+02 -0.13416418965E+03  0.15759159207E+03  0.00000000000E+00 0.  1.
</event>
<event>
12    1  0.1032880E+000  0.2009122E+03  0.7818608E-02  0.1149170E+00
         21   -1    0    0  503  502  0.00000000000E+00  0.00000000000E+00  0.26470603611E+03  0.26470603611E+03  0.00000000000E+00 0.  1.
         21   -1    0    0  501  503 -0.00000000000E+00 -0.00000000000E+00 -0.26413847559E+03  0.26413847559E+03  0.00000000000E+00 0.  1.
          6    2    1    2  501    0  0.75971237545E+01  0.98868579560E+02  0.17274440594E+03  0.26424942646E+03  0.17365027292E+03 0.  0.
         24    2    3    3    0    0  0.69617833493E+02  0.71270007769E+02  0.13798854671E+03  0.18784059613E+03  0.79480776181E+02 0.  0.
         -6    2    1    2    0  502 -0.75971237545E+01 -0.98868579560E+02 -0.17217684542E+03  0.26459508524E+03  0.17473688999E+03 0.  0.
        -24    2    5    5    0    0 -0.49857249488E+02 -0.85883397387E+02 -0.53562531365E+02  0.13792236252E+03  0.79321687103E+02 0.  0.
          5    1    3    3  501    0 -0.62020709738E+02  0.27598571790E+02  0.34755859233E+02  0.76408830329E+02  0.47000000000E+01 0. -1.
        -13    1    4    4    0    0  0.44274000340E+02  0.59682938724E+02  0.36876195065E+02  0.82958387420E+02  0.00000000000E+00 0.  1.
         14    1    4    4    0    0  0.25343833153E+02  0.11587069045E+02  0.10111235164E+03  0.10488220871E+03  0.00000000000E+00 0. -1.
         -5    1    5    5    0  502  0.42260125734E+02 -0.12985182173E+02 -0.11861431405E+03  0.12667272272E+03  0.47000000000E+01 0.  1.
         11    1    6    6    0    0  0.33666696846E+01 -0.64099748389E+02 -0.47988399877E+02  0.80143613165E+02  0.00000000000E+00 0. -1.
        -12    1    6    6    0    0 -0.53223919173E+02 -0.21783648998E+02 -0.55741314881E+01  0.57778749360E+02  0.00000000000E+00 0.  1.
</event>
<event>
12    1  0.1032880E+000  0.2400235E+03  0.7818608E-02  0.1119807E+00
         21   -1    0    0  501  502  0.00000000000E+00  0.00000000000E+00  0.63308066365E+02  0.63308066365E+02  0.00000000000E+00 0.  1.
         21   -1    0    0  502  503 -0.00000000000E+00 -0.00000000000E+00 -0.16674711588E+04  0.16674711588E+04  0.00000000000E+00 0.  1.
         -6    2    1    2    0  503 -0.14822162475E+03 -0.76479804693E+02 -0.21872500846E+03  0.32473360271E+03  0.17260496178E+03 0.  0.
        -24    2    3    3    0    0 -0.15104777315E+03 -0.51637972341E+02 -0.10231142231E+03  0.20557271655E+03  0.79439314544E+02 0.  0.
          6    2    1    2  501    0  0.14822162475E+03  0.76479804693E+02 -0.13854380839E+04  0.14060456224E+04  0.17235659932E+03 0.  0.
         24    2    5    5    0    0  0.17693936547E+03  0.83379397087E+02 -0.11898117401E+04  0.12081464830E+04  0.75539952484E+02 0.  0.
          5    1    5    5  501    0 -0.28717740726E+02 -0.68995923943E+01 -0.19562634380E+03  0.19789913946E+03  0.47000000000E+01 0. -1.
        -13    1    6    6    0    0  0.91661001112E+01  0.20707034075E+02 -0.27744462255E+03  0.27836723448E+03  0.00000000000E+00 0.  1.
         14    1    6    6    0    0  0.16777326536E+03  0.62672363012E+02 -0.91236711759E+03  0.92977924849E+03  0.00000000000E+00 0. -1.
         -5    1    3    3    0  503  0.28261483957E+01 -0.24841832352E+02 -0.11641358615E+03  0.11916088616E+03  0.47000000000E+01 0.  1.
         11    1    4    4    0    0 -0.84355851199E+02 -0.44762753470E+02 -0.10030918552E+03  0.13849746001E+03  0.00000000000E+00 0. -1.
        -12    1    4    4    0    0 -0.66691921946E+02 -0.68752188708E+01 -0.20022367860E+01  0.67075256537E+02  0.00000000000E+00 0.  1.
</event>
<event>
12    1  0.1032880E+000  0.2003653E+03  0.7818608E-02  0.1149992E+00
         21   -1    0    0  501  502  0.00000000000E+00  0.00000000000E+00  0.71733559730E+02  0.71733559730E+02  0.00000000000E+00 0.  1.
         21   -1    0    0  502  503 -0.00000000000E+00 -0.00000000000E+00 -0.59682763755E+03  0.59682763755E+03  0.00000000000E+00 0.  1.
         -6    2    1    2    0  503 -0.21173350518E+02 -0.96861564018E+02 -0.35224504463E+03  0.40394249590E+03  0.17106283983E+03 0.  0.
        -24    2    3    3    0    0  0.80972518159E+01 -0.20361966256E+02 -0.69758378294E+02  0.10978307777E+03  0.81889667634E+02 0.  0.
          6    2    1    2  501    0  0.21173350518E+02  0.96861564018E+02 -0.17284903319E+03  0.26461870138E+03  0.17411431730E+03 0.  0.
         24    2    5    5    0    0 -0.53374902090E+02  0.41939481853E+02 -0.79332185245E+02  0.13293207364E+03  0.82277216012E+02 0.  0.
          5    1    5    5  501    0  0.74548252609E+02  0.54922082165E+02 -0.93516847946E+02  0.13168662774E+03  0.47000000000E+01 0. -1.
        -11    1    6    6    0    0 -0.34635641591E+02  0.13955498150E+02  0.89884468136E+01  0.38408017043E+02  0.00000000000E+00 0.  1.
         12    1    6    6    0    0 -0.18739260499E+02  0.27983983703E+02 -0.88320632059E+02  0.94524056595E+02  0.00000000000E+00 0. -1.
         -5    1    3    3    0  503 -0.29270602334E+02 -0.76499597762E+02 -0.28248666633E+03  0.29415941813E+03  0.47000000000E+01 0.  1.
         13    1    4    4    0    0  0.22303994963E+02 -0.45345642898E+02 -0.62054769867E+02  0.80028057483E+02  0.00000000000E+00 0. -1.
        -14    1    4    4    0    0 -0.14206743147E+02  0.24983676642E+02 -0.77036084262E+01  0.29755020285E+02  0.00000000000E+00 0.  1.
</event>
<event>
12    1  0.1032880E+000  0.2735555E+03  0.7818608E-02  0.1099516E+00
         21   -1    0    0  503  502  0.00000000000E+00  0.00000000000E+00  0.12261812347E+03  0.12261812347E+03  0.00000000000E+00 0. -1.
         21   -1    0    0  501  503 -0.00000000000E+00 -0.00000000000E+00 -0.60871292558E+03  0.60871292558E+03  0.00000000000E+00 0.  1.
          6    2    1    2  501    0 -0.12174015982E+03  0.17482533630E+03 -0.26536753519E+03  0.37982974965E+03  0.16871913130E+03 0.  0.
         24    2    3    3    0    0 -0.10383607132E+03  0.11649329811E+03 -0.10422756236E+03  0.20745990337E+03  0.88451164710E+02 0.  0.
         -6    2    1    2    0  502  0.12174015982E+03 -0.17482533630E+03 -0.22072726692E+03  0.35150129941E+03  0.17160440670E+03 0.  0.
        -24    2    5    5    0    0  0.93321391126E+01 -0.32379860319E+02 -0.43019425720E+02  0.97476805372E+02  0.80718724108E+02 0.  0.
          5    1    3    3  501    0 -0.17904088497E+02  0.58332038182E+02 -0.16113997283E+03  0.17236984628E+03  0.47000000000E+01 0. -1.
        -11    1    4    4    0    0 -0.30522846772E+02  0.39114166831E+02  0.10651911291E+02  0.50744708454E+02  0.00000000000E+00 0.  1.
         12    1    4    4    0    0 -0.73313224550E+02  0.77379131283E+02 -0.11487947365E+03  0.15671519492E+03  0.00000000000E+00 0. -1.
         -5    1    5    5    0  502  0.11240802071E+03 -0.14244547598E+03 -0.17770784120E+03  0.25402449403E+03  0.47000000000E+01 0.  1.
         11    1    6    6    0    0  0.25817149483E+02 -0.38832385091E+02 -0.57905295360E+02  0.74347175938E+02  0.00000000000E+00 0. -1.
        -12    1    6    6    0    0 -0.16485010370E+02  0.64525247722E+01  0.14885869639E+02  0.23129629434E+02  0.00000000000E+00 0.  1.
</event>
<event>
12    1  0.1076544E+000  0.2029652E+03  0.7818608E-02  0.1147911E+00
         21   -1    0    0  501  502  0.00000000000E+00  0.00000000000E+00  0.38025595663E+03  0.38025595663E+03  0.00000000000E+00 0. -1.
         21   -1    0    0  502  503 -0.00000000000E+00 -0.00000000000E+00 -0.29472768921E+03  0.29472768921E+03  0.00000000000E+00 0. -1.
         -6    2    1    2    0  503 -0.96067442265E+02 -0.35740371756E+02  0.31222159931E+03  0.37070624296E+03  0.17156475121E+03 0.  0.
        -24    2    3    3    0    0 -0.48632056278E+02 -0.88711111464E+02  0.19151301005E+03  0.23053253419E+03  0.78951112139E+02 0.  0.
          6    2    1    2  501    0  0.96067442265E+02  0.35740371756E+02 -0.22669333189E+03  0.30427740288E+03  0.17518145890E+03 0.  0.
         24    2    5    5    0    0  0.39322098458E+02  0.88429260226E+02 -0.13927165167E+03  0.18739800698E+03  0.79721130018E+02 0.  0.
          5    1    5    5  501    0  0.56745343807E+02 -0.52688888470E+02 -0.87421680216E+02  0.11687939589E+03  0.47000000000E+01 0. -1.
        -11    1    6    6    0    0  0.65640519975E+01  0.18060999727E+02 -0.97256261320E+02  0.99136607042E+02  0.00000000000E+00 0.  1.
         12    1    6    6    0    0  0.32758046461E+02  0.70368260499E+02 -0.42015390351E+02  0.88261399943E+02  0.00000000000E+00 0. -1.
         -5    1    3    3    0  503 -0.47435385987E+02  0.52970739708E+02  0.12070858926E+03  0.14017370877E+03  0.47000000000E+01 0.  1.
         11    1    4    4    0    0 -0.99298239959E+01 -0.10867691754E+02 -0.50825895342E+01  0.15573722902E+02  0.00000000000E+00 0. -1.
        -12    1    4    4    0    0 -0.38702232282E+02 -0.77843419710E+02  0.19659559958E+03  0.21495881129E+03  0.00000000000E+00 0.  1.
</event>
<event>
12    1  0.1032880E+000  0.2806298E+03  0.7818608E-02  0.1095420E+00
         21   -1    0    0  501  502  0.00000000000E+00  0.00000000000E+00  0.13512773118E+03  0.13512773118E+03  0.00000000000E+00 0. -1.
         21   -1    0    0  502  503 -0.00000000000E+00 -0.00000000000E+00 -0.11808374876E+04  0.11808374876E+04  0.00000000000E+00 0. -1.
         -6    2    1    2    0  503  0.80521565079E+01 -0.22091536961E+03 -0.54406462092E+02  0.28585513485E+03  0.17287179425E+03 0.  0.
        -24    2    3    3    0    0  0.48984871654E+02 -0.21861804248E+03 -0.56033551124E+02  0.24455740731E+03  0.80468630358E+02 0.  0.
          6    2    1    2  501    0 -0.80521565079E+01  0.22091536961E+03 -0.99130329436E+03  0.10301100840E+04  0.17197710873E+03 0.  0.
         24    2    5    5    0    0 -0.14672200067E+02  0.29242624240E+02 -0.38135273255E+03  0.39070094722E+03  0.78402289589E+02 0.  0.
          5    1    5    5  501    0  0.66200435587E+01  0.19167274537E+03 -0.60995056182E+03  0.63940913675E+03  0.47000000000E+01 0. -1.
        -11    1    6    6    0    0  0.98359979266E+01  0.29352888909E+02 -0.52582708506E+02  0.61018687108E+02  0.00000000000E+00 0.  1.
         12    1    6    6    0    0 -0.24508197993E+02 -0.11026466866E+00 -0.32877002404E+03  0.32968226012E+03  0.00000000000E+00 0. -1.
         -5    1    3    3    0  503 -0.40932715146E+02 -0.22973271390E+01  0.16270890317E+01  0.41297727539E+02  0.47000000000E+01 0.  1.
         11    1    4    4    0    0  0.23232133040E+02 -0.66598155382E+02 -0.56496566913E+02  0.90370948755E+02  0.00000000000E+00 0. -1.
        -12    1    4    4    0    0  0.25752738614E+02 -0.15201988709E+03  0.46301578981E+00  0.15418645855E+03  0.00000000000E+00 0.  1.
</event>
<event>
12    1  0.1032880E+000  0.4400376E+03  0.7818608E-02  0.1030743E+00
         21   -1    0    0  501  502  0.00000000000E+00  0.00000000000E+00  0.20239059353E+03  0.20239059353E+03  0.00000000000E+00 0.  1.
         21   -1    0    0  502  503 -0.00000000000E+00 -0.00000000000E+00 -0.98475106979E+03  0.98475106979E+03  0.00000000000E+00 0.  1.
         -6    2    1    2    0  503 -0.39237703656E+03 -0.10082519618E+03 -0.49166481912E+03  0.65975467344E+03  0.17151231956E+03 0.  0.
        -24    2    3    3    0    0 -0.18409357475E+03 -0.38027982473E+02 -0.14508939868E+03  0.25053333655E+03  0.79871442947E+02 0.  0.
          6    2    1    2  501    0  0.39237703656E+03  0.10082519618E+03 -0.29069565715E+03  0.52738698988E+03  0.17177780125E+03 0.  0.
         24    2    5    5    0    0  0.16638509031E+03 -0.15783709688E+02 -0.11048843618E+03  0.21567120718E+03  0.79832645613E+02 0.  0.
          5    1    5    5  501    0  0.22599194625E+03  0.11660890586E+03 -0.18020722097E+03  0.31171578270E+03  0.47000000000E+01 0. -1.
        -13    1    6    6    0    0  0.15484256752E+03 -0.29160999464E+02 -0.71827212061E+02  0.17316389057E+03  0.00000000000E+00 0.  1.
         14    1    6    6    0    0  0.11542522789E+02  0.13377289776E+02 -0.38661224121E+02  0.42507316601E+02  0.00000000000E+00 0. -1.
         -5    1    3    3    0  503 -0.20828346182E+03 -0.62797213702E+02 -0.34657542044E+03  0.40922133689E+03  0.47000000000E+01 0.  1.
         13    1    4    4    0    0 -0.80269117305E+02  0.23349628504E+02 -0.56996126324E+02  0.10117754079E+03  0.00000000000E+00 0. -1.
        -14    1    4    4    0    0 -0.10382445744E+03 -0.61377610977E+02 -0.88093272352E+02  0.14935579576E+03  0.00000000000E+00 0.  1.
</event>
<event>
12    1  0.1032880E+000  0.1745246E+03  0.7818608E-02  0.1173419E+00
         21   -1    0    0  501  502  0.00000000000E+00  0.00000000000E+00  0.89763228442E+03  0.89763228442E+03  0.00000000000E+00 0.  1.
         21   -1    0    0  502  503 -0.00000000000E+00 -0.00000000000E+00 -0.66219735113E+02  0.66219735113E+02  0.00000000000E+00 0.  1.
         -6    2    1    2    0  503  0.12032268760E+02  0.30216242287E+02  0.75255271954E+03  0.77233774964E+03  0.17062299682E+03 0.  0.
        -24    2    3    3    0    0  0.31658546156E+01 -0.96969176831E+01  0.16794505763E+03  0.18628324535E+03  0.79949060451E+02 0.  0.
          6    2    1    2  501    0 -0.12032268760E+02 -0.30216242287E+02  0.78859829771E+02  0.19151426990E+03  0.17146733226E+03 0.  0.
         24    2    5    5    0    0  0.38073480535E+00 -0.51823728946E+02  0.11403302549E+03  0.14815288345E+03  0.79119543293E+02 0.  0.
          5    1    5    5  501    0 -0.12413003565E+02  0.21607486659E+02 -0.35173195721E+02  0.43361386445E+02  0.47000000000E+01 0. -1.
        -11    1    6    6    0    0 -0.14000870282E+02  0.10294372202E+02 -0.14402137304E+00  0.17378699889E+02  0.00000000000E+00 0.  1.
         12    1    6    6    0    0  0.14381605087E+02 -0.62118101148E+02  0.11417704687E+03  0.13077418356E+03  0.00000000000E+00 0. -1.
         -5    1    3    3    0  503  0.88664141441E+01  0.39913159970E+02  0.58460766191E+03  0.58605450429E+03  0.47000000000E+01 0.  1.
         13    1    4    4    0    0  0.20963598523E+02  0.30008631358E+02  0.86925923487E+02  0.94319174048E+02  0.00000000000E+00 0. -1.
        -14    1    4    4    0    0 -0.17797743907E+02 -0.39705549041E+02  0.81019134141E+02  0.91964071298E+02  0.00000000000E+00 0.  1.
</event>
<event>
12    1  0.1032880E+000  0.2076138E+03  0.7818608E-02  0.1143889E+00
         21   -1    0    0  503  502  0.00000000000E+00  0.00000000000E+00  0.10468099180E+03  0.10468099180E+03  0.00000000000E+00 0.  1.
         21   -1    0    0  501  503 -0.00000000000E+00 -0.00000000000E+00 -0.47648524576E+03  0.47648524576E+03  0.00000000000E+00 0.  1.
          6    2    1    2  501    0  0.98641744214E+02 -0.60220934535E+02 -0.74656853303E+02  0.21867479194E+03  0.16996547951E+03 0.  0.
         24    2    3    3    0    0  0.92731980562E+02 -0.91211428410E+02 -0.16695916242E+02  0.15251667647E+03  0.77870649740E+02 0.  0.
         -6    2    1    2    0  502 -0.98641744214E+02  0.60220934535E+02 -0.29714740066E+03  0.36249144562E+03  0.17247236235E+03 0.  0.
        -24    2    5    5    0    0  0.25796139154E+01  0.41385935112E+02 -0.20631298242E+03  0.22511058057E+03  0.79939206519E+02 0.  0.
          5    1    3    3  501    0  0.59097636516E+01  0.30990493875E+02 -0.57960937060E+02  0.66158115466E+02  0.47000000000E+01 0. -1.
        -13    1    4    4    0    0  0.47507468867E+01 -0.43537466612E+02  0.16924494665E+02  0.46952306808E+02  0.00000000000E+00 0.  1.
         14    1    4    4    0    0  0.87981233675E+02 -0.47673961798E+02 -0.33620410907E+02  0.10556436966E+03  0.00000000000E+00 0. -1.
         -5    1    5    5    0  502 -0.10122135813E+03  0.18834999423E+02 -0.90834418242E+02  0.13738086505E+03  0.47000000000E+01 0.  1.
         11    1    6    6    0    0 -0.17106333797E+02  0.27626411610E+02 -0.22003647592E+02  0.39242907408E+02  0.00000000000E+00 0. -1.
        -12    1    6    6    0    0  0.19685947713E+02  0.13759523502E+02 -0.18430933482E+03  0.18586767316E+03  0.00000000000E+00 0.  1.
</event>
<event>
12    1  0.1032880E+000  0.3070438E+03  0.7818608E-02  0.1082165E+00
         21   -1    0    0  503  502  0.00000000000E+00  0.00000000000E+00  0.16865610922E+04  0.16865610922E+04  0.00000000000E+00 0.  1.
         21   -1    0    0  501  503 -0.00000000000E+00 -0.00000000000E+00 -0.55631733066E+02  0.55631733066E+02  0.00000000000E+00 0.  1.
          6    2    1    2  501    0 -0.19574603230E+03 -0.15687177643E+03  0.75377843806E+03  0.81391511772E+03  0.17706106790E+03 0.  0.
         24    2    3    3    0    0 -0.12625003023E+03 -0.20953175581E+02  0.43751237303E+03  0.46270311017E+03  0.79366150857E+02 0.  0.
         -6    2    1    2    0  502  0.19574603230E+03  0.15687177643E+03  0.87715092108E+03  0.92827770755E+03  0.17140741111E+03 0.  0.
        -24    2    5    5    0    0  0.20381721269E+03  0.10922267207E+03  0.63064161189E+03  0.67703179094E+03  0.84806574093E+02 0.  0.
          5    1    3    3  501    0 -0.69496002066E+02 -0.13591860085E+03  0.31626606503E+03  0.35121200755E+03  0.47000000000E+01 0. -1.
        -11    1    4    4    0    0 -0.67348305530E+02 -0.66686934130E+01  0.34853046050E+03  0.35504048730E+03  0.00000000000E+00 0.  1.
         12    1    4    4    0    0 -0.58901724704E+02 -0.14284482168E+02  0.88981912534E+02  0.10766262286E+03  0.00000000000E+00 0. -1.
         -5    1    5    5    0  502 -0.80711803860E+01  0.47649104360E+02  0.24650930918E+03  0.25124591661E+03  0.47000000000E+01 0.  1.
         11    1    6    6    0    0  0.24284140375E+02  0.72647304698E+01  0.17460432836E+03  0.17643459770E+03  0.00000000000E+00 0. -1.
        -12    1    6    6    0    0  0.17953307231E+03  0.10195794160E+03  0.45603728353E+03  0.50059719324E+03  0.00000000000E+00 0.  1.
</event>
<event>
12    1  0.1032880E+000  0.2267759E+03  0.7818608E-02  0.1129853E+00
         21   -1    0    0  503  502  0.00000000000E+00  0.00000000000E+00  0.64302027064E+02  0.64302027064E+02  0.00000000000E+00 0.  1.
         21   -1    0    0  501  503 -0.00000000000E+00 -0.00000000000E+00 -0.81710376901E+03  0.81710376901E+03  0.00000000000E+00 0.  1.
          6    2    1    2  501    0  0.12485269685E+03 -0.66331382158E+02 -0.28088470771E+03  0.35782867074E+03  0.17075447406E+03 0.  0.
         24    2    3    3    0    0  0.72775243665E+02  0.25462794098E+02 -0.10632782329E+03  0.15379331150E+03  0.80013665599E+02 0.  0.
         -6    2    1    2    0  502 -0.12485269685E+03  0.66331382158E+02 -0.47191703424E+03  0.52357712533E+03  0.17731122580E+03 0.  0.
        -24    2    5    5    0    0 -0.56519261715E+02 -0.79296263742E+01 -0.35557575150E+03  0.36949422616E+03  0.82671410992E+02 0.  0.
          5    1    3    3  501    0  0.52077453188E+02 -0.91794176256E+02 -0.17455688442E+03  0.20403535924E+03  0.47000000000E+01 0. -1.
        -13    1    4    4    0    0 -0.29359622990E+00 -0.90363371505E+01 -0.59946099909E+02  0.60624058608E+02  0.00000000000E+00 0.  1.
         14    1    4    4    0    0  0.73068839895E+02  0.34499131249E+02 -0.46381723382E+02  0.93169252892E+02  0.00000000000E+00 0. -1.
         -5    1    5    5    0  502 -0.68333435138E+02  0.74261008532E+02 -0.11634128275E+03  0.15408289917E+03  0.47000000000E+01 0.  1.
         11    1    6    6    0    0 -0.41546608143E+02  0.35276066024E+02 -0.18085604695E+03  0.18888999762E+03  0.00000000000E+00 0. -1.
        -12    1    6    6    0    0 -0.14972653572E+02 -0.43205692398E+02 -0.17471970454E+03  0.18060422854E+03  0.00000000000E+00 0.  1.
</event>
<event>
12    1  0.1032880E+000  0.1740743E+03  0.7818608E-02  0.1173671E+00
         21   -1    0    0  503  502  0.00000000000E+00  0.00000000000E+00  0.35240386748E+02  0.35240386748E+02  0.00000000000E+00 0. -1.
         21   -1    0    0  501  503 -0.00000000000E+00 -0.00000000000E+00 -0.86807651956E+03  0.86807651956E+03  0.00000000000E+00 0. -1.
          6    2    1    2  501    0  0.11540981675E+02  0.20543817228E+02 -0.37216278312E+03  0.41086128864E+03  0.17247208087E+03 0.  0.
         24    2    3    3    0    0  0.71909408070E+02  0.20911042414E+02 -0.19178381692E+03  0.22059005275E+03  0.79187778581E+02 0.  0.
         -6    2    1    2    0  502 -0.11540981675E+02 -0.20543817228E+02 -0.46067334969E+03  0.49245561767E+03  0.17244523064E+03 0.  0.
        -24    2    5    5    0    0  0.48847753665E+01  0.16334074872E+02 -0.93729320176E+02  0.12326759617E+03  0.78224368150E+02 0.  0.
          5    1    3    3  501    0 -0.60368426394E+02 -0.36722518648E+00 -0.18037896620E+03  0.19027123589E+03  0.47000000000E+01 0. -1.
        -11    1    4    4    0    0  0.35133811582E+02 -0.29124050744E+02 -0.98099175411E+02  0.10819446966E+03  0.00000000000E+00 0.  1.
         12    1    4    4    0    0  0.36775596488E+02  0.50035093159E+02 -0.93684641508E+02  0.11239558309E+03  0.00000000000E+00 0. -1.
         -5    1    5    5    0  502 -0.16425757042E+02 -0.36877892100E+02 -0.36694402951E+03  0.36918802150E+03  0.47000000000E+01 0.  1.
         11    1    6    6    0    0  0.80684211975E+01 -0.83226012432E+01 -0.97443320667E+02  0.98130351343E+02  0.00000000000E+00 0. -1.
        -12    1    6    6    0    0 -0.31836458310E+01  0.24656676115E+02  0.37140004914E+01  0.25137244826E+02  0.00000000000E+00 0.  1.
</event>
<event>
12    1  0.1032880E+000  0.1758315E+03  0.7818608E-02  0.1172256E+00
         21   -1    0    0  501  502  0.00000000000E+00  0.00000000000E+00  0.67851596898E+02  0.67851596898E+02  0.00000000000E+00 0. -1.
         21   -1    0    0  502  503 -0.00000000000E+00 -0.00000000000E+00 -0.46376182484E+03  0.46376182484E+03  0.00000000000E+00 0. -1.
         -6    2    1    2    0  503  0.15215745865E+02  0.14066167385E+02 -0.24111298401E+03  0.29841610259E+03  0.17460619474E+03 0.  0.
        -24    2    3    3    0    0 -0.49388327707E+02  0.41681912708E+02 -0.11922685998E+03  0.15765164350E+03  0.80389102478E+02 0.  0.
          6    2    1    2  501    0 -0.15215745865E+02 -0.14066167385E+02 -0.15479724393E+03  0.23319731915E+03  0.17317455628E+03 0.  0.
         24    2    5    5    0    0 -0.88265196685E+01 -0.20950495510E+02 -0.18432906618E+03  0.20185350459E+03  0.79062013412E+02 0.  0.
          5    1    5    5  501    0 -0.63892261963E+01  0.68843281247E+01  0.29531822253E+02  0.31343814553E+02  0.47000000000E+01 0. -1.
        -13    1    6    6    0    0  0.16280998094E+02  0.23063282838E+02 -0.40571811414E+02  0.49427298081E+02  0.00000000000E+00 0.  1.
         14    1    6    6    0    0 -0.25107517763E+02 -0.44013778348E+02 -0.14375725477E+03  0.15242620651E+03  0.00000000000E+00 0. -1.
         -5    1    3    3    0  503  0.64604073572E+02 -0.27615745323E+02 -0.12188612402E+03  0.14076445908E+03  0.47000000000E+01 0.  1.
         13    1    4    4    0    0  0.12019957132E+02  0.15503520510E+02  0.15244158831E+01  0.19676441788E+02  0.00000000000E+00 0. -1.
        -14    1    4    4    0    0 -0.61408284839E+02  0.26178392198E+02 -0.12075127587E+03  0.13797520172E+03  0.00000000000E+00 0.  1.
</event>
<event>
12    1  0.1032880E+000  0.1802535E+03  0.7818608E-02  0.1167584E+00
         21   -1    0    0  503  502  0.00000000000E+00  0.00000000000E+00  0.13366387516E+03  0.13366387516E+03  0.00000000000E+00 0.  1.
         21   -1    0    0  501  503 -0.00000000000E+00 -0.00000000000E+00 -0.35014437438E+03  0.35014437438E+03  0.00000000000E+00 0.  1.
          6    2    1    2  501    0  0.48247057077E+02 -0.20573933056E+02 -0.24211831944E+03  0.30184864782E+03  0.17245364694E+03 0.  0.
         24    2    3    3    0    0  0.61378133594E+02 -0.73656620829E+02 -0.15798869211E+03  0.20139925207E+03  0.80054099349E+02 0.  0.
         -6    2    1    2    0  502 -0.48247057077E+02  0.20573933056E+02  0.25637820222E+02  0.18195960172E+03  0.17233958801E+03 0.  0.
        -24    2    5    5    0    0  0.14136695685E+02  0.44996978915E+02  0.54642652809E+02  0.10880505237E+03  0.81413424190E+02 0.  0.
          5    1    3    3  501    0 -0.13131076518E+02  0.53082687774E+02 -0.84129627327E+02  0.10044939575E+03  0.47000000000E+01 0. -1.
        -11    1    4    4    0    0  0.53372895119E+02 -0.16067200470E+02 -0.11896229485E+03  0.13137293656E+03  0.00000000000E+00 0.  1.
         12    1    4    4    0    0  0.80052384750E+01 -0.57589420359E+02 -0.39026397263E+02  0.70026315508E+02  0.00000000000E+00 0. -1.
         -5    1    5    5    0  502 -0.62383752761E+02 -0.24423045860E+02 -0.29004832587E+02  0.73154549353E+02  0.47000000000E+01 0.  1.
         11    1    6    6    0    0 -0.15347026717E+02  0.32867606611E+02 -0.92193999536E+01  0.37427371386E+02  0.00000000000E+00 0. -1.
        -12    1    6    6    0    0  0.29483722402E+02  0.12129372304E+02  0.63862052763E+02  0.71377680981E+02  0.00000000000E+00 0.  1.
</event>
<event>
12    1  0.1032880E+000  0.1824036E+03  0.7818608E-02  0.1165514E+00
         21   -1    0    0  503  502  0.00000000000E+00  0.00000000000E+00  0.40043079856E+03  0.40043079856E+03  0.00000000000E+00 0. -1.
         21   -1    0    0  501  503 -0.00000000000E+00 -0.00000000000E+00 -0.92773542052E+03  0.92773542052E+03  0.00000000000E+00 0. -1.
          6    2    1    2  501    0 -0.58637143984E+02 -0.42145262324E+01  0.37000341036E+03  0.41252100683E+03  0.17267014945E+03 0.  0.
         24    2    3    3    0    0 -0.10420462276E+03 -0.22059068779E+02  0.26747804189E+03  0.29881804292E+03  0.80015710719E+02 0.  0.
         -6    2    1    2    0  502  0.58637143984E+02  0.42145262324E+01 -0.89730803232E+03  0.91564521225E+03  0.17259308495E+03 0.  0.
        -24    2    5    5    0    0  0.85451118386E+02  0.49161159960E+02 -0.54973610050E+03  0.56412348192E+03  0.79415422813E+02 0.  0.
          5    1    3    3  501    0  0.45567478779E+02  0.17844542547E+02  0.10252536847E+03  0.11370296391E+03  0.47000000000E+01 0. -1.
        -13    1    4    4    0    0 -0.98696165342E+02  0.68510541572E+01  0.23507210761E+03  0.25504267442E+03  0.00000000000E+00 0.  1.
         14    1    4    4    0    0 -0.55084574212E+01 -0.28910122937E+02  0.32405934277E+02  0.43775368505E+02  0.00000000000E+00 0. -1.
         -5    1    5    5    0  502 -0.26813974402E+02 -0.44946633728E+02 -0.34757193182E+03  0.35152173033E+03  0.47000000000E+01 0.  1.
         11    1    6    6    0    0  0.83492614858E+02  0.93688590804E+01 -0.31406788724E+03  0.32511141175E+03  0.00000000000E+00 0. -1.
        -12    1    6    6    0    0  0.19585035272E+01  0.39792300880E+02 -0.23566821326E+03  0.23901207017E+03  0.00000000000E+00 0.  1.
</event>
<event>
12    1  0.1032880E+000  0.1816628E+03  0.7818608E-02  0.1166307E+00
         21   -1    0    0  501  502  0.00000000000E+00  0.00000000000E+00  0.12152972085E+03  0.12152972085E+03  0.00000000000E+00 0.  1.
         21   -1    0    0  502  503 -0.00000000000E+00 -0.00000000000E+00 -0.27126840564E+03  0.27126840564E+03  0.00000000000E+00 0.  1.
         -6    2    1    2    0  503  0.72240203078E+01 -0.55268286715E+02 -0.67731336133E+02  0.19387862737E+03  0.17290060228E+03 0.  0.
        -24    2    3    3    0    0  0.40762720569E+01 -0.66669640120E+02  0.19021401306E+02  0.10619723463E+03  0.80340413423E+02 0.  0.
          6    2    1    2  501    0 -0.72240203078E+01  0.55268286715E+02 -0.82007348657E+02  0.19891949913E+03  0.17244417042E+03 0.  0.
         24    2    5    5    0    0  0.10719294567E+02 -0.30312584249E+02 -0.13418125214E+02  0.87687221455E+02  0.80468917492E+02 0.  0.
          5    1    5    5  501    0 -0.17943314875E+02  0.85580870964E+02 -0.68589223443E+02  0.11123227767E+03  0.47000000000E+01 0. -1.
        -11    1    6    6    0    0 -0.60117985375E+01 -0.25284374477E+02 -0.44787056489E+02  0.51781480698E+02  0.00000000000E+00 0.  1.
         12    1    6    6    0    0  0.16731093105E+02 -0.50282097724E+01  0.31368931274E+02  0.35905740757E+02  0.00000000000E+00 0. -1.
         -5    1    3    3    0  503  0.31477482509E+01  0.11401353405E+02 -0.86752737439E+02  0.87681392733E+02  0.47000000000E+01 0.  1.
         11    1    4    4    0    0 -0.22972365694E+02  0.21183268438E+01  0.22466789486E+02  0.32202073287E+02  0.00000000000E+00 0. -1.
        -12    1    4    4    0    0  0.27048637751E+02 -0.68787966963E+02 -0.34453881800E+01  0.73995161348E+02  0.00000000000E+00 0.  1.
</event>
<event>
12    1  0.1032880E+000  0.1988180E+03  0.7818608E-02  0.1150750E+00
         21   -1    0    0  501  502  0.00000000000E+00  0.00000000000E+00  0.20319536043E+02  0.20319536043E+02  0.00000000000E+00 0. -1.
         21   -1    0    0  502  503 -0.00000000000E+00 -0.00000000000E+00 -0.21483866622E+04  0.21483866622E+04  0.00000000000E+00 0. -1.
         -6    2    1    2    0  503  0.75169382751E+02  0.65645433998E+02 -0.73020494265E+03  0.75677585553E+03  0.17190310682E+03 0.  0.
        -24    2    3    3    0    0  0.42999203402E+02  0.82860293848E+02 -0.69561895970E+03  0.70628276634E+03  0.78961060973E+02 0.  0.
          6    2    1    2  501    0 -0.75169382751E+02 -0.65645433998E+02 -0.13978621835E+04  0.14119303427E+04  0.17195595218E+03 0.  0.
         24    2    5    5    0    0 -0.75567266144E+02 -0.37506454371E+02 -0.64310807434E+03  0.65663714416E+03  0.10230932495E+03 0.  0.
          5    1    5    5  501    0  0.39788339304E+00 -0.28138979628E+02 -0.75475410919E+03  0.75529319858E+03  0.47000000000E+01 0. -1.
        -13    1    6    6    0    0 -0.12986934337E+00  0.29174895731E+02 -0.95758951323E+02  0.10010478593E+03  0.00000000000E+00 0.  1.
         14    1    6    6    0    0 -0.75437396800E+02 -0.66681350102E+02 -0.54734912302E+03  0.55653235823E+03  0.00000000000E+00 0. -1.
         -5    1    3    3    0  503  0.32170179349E+02 -0.17214859850E+02 -0.34585982952E+02  0.50493089188E+02  0.47000000000E+01 0.  1.
         13    1    4    4    0    0 -0.17340967135E+01  0.34248171215E+02 -0.78826337504E+02  0.85962409269E+02  0.00000000000E+00 0. -1.
        -14    1    4    4    0    0  0.44733300115E+02  0.48612122633E+02 -0.61679262219E+03  0.62032035707E+03  0.00000000000E+00 0.  1.
</event>
<event>
12    1  0.1032880E+000  0.1827500E+03  0.7818608E-02  0.1167858E+00
         21   -1    0    0  501  502  0.00000000000E+00  0.00000000000E+00  0.11757818497E+03  0.11757818497E+03  0.00000000000E+00 0.  1.
         21   -1    0    0  502  503 -0.00000000000E+00 -0.00000000000E+00 -0.29487635314E+03  0.29487635314E+03  0.00000000000E+00 0.  1.
         -6    2    1    2    0  503  0.16105247610E-01 -0.96821918872E+01 -0.23066275606E+02  0.17332057433E+03  0.17150575302E+03 0.  0.
        -24    2    3    3    0    0 -0.54131003154E+02  0.19879312733E+02  0.16396889491E+02  0.99936493613E+02  0.79956814553E+02 0.  0.
          6    2    1    2  501    0 -0.16105247610E-01  0.96821918872E+01 -0.15423189256E+03  0.23913396378E+03  0.18249337208E+03 0.  0.
         24    2    5    5    0    0 -0.13693314686E+02  0.67272450763E+02 -0.14523949263E+03  0.17907851247E+03  0.79129728366E+02 0.  0.
          5    1    5    5  501    0  0.13677209439E+02 -0.57590258876E+02 -0.89923999304E+01  0.60055451309E+02  0.47000000000E+01 0. -1.
        -11    1    6    6    0    0 -0.35656007968E+02  0.27554926620E+02 -0.11760292875E+03  0.12594075487E+03  0.00000000000E+00 0.  1.
         12    1    6    6    0    0  0.21962693282E+02  0.39717524143E+02 -0.27636563874E+02  0.53137757602E+02  0.00000000000E+00 0. -1.
         -5    1    3    3    0  503  0.54147108402E+02 -0.29561504620E+02 -0.39463165097E+02  0.73384080720E+02  0.47000000000E+01 0.  1.
         11    1    4    4    0    0 -0.20592310373E+02 -0.29645514585E+02 -0.49397192406E+01  0.36432137018E+02  0.00000000000E+00 0. -1.
        -12    1    4    4    0    0 -0.33538692782E+02  0.49524827318E+02  0.21336608731E+02  0.63504356595E+02  0.00000000000E+00 0.  1.
</event>
<event>
12    1  0.1032880E+000  0.3466543E+03  0.7818608E-02  0.1064094E+00
         21   -1    0    0  503  502  0.00000000000E+00  0.00000000000E+00  0.13017604746E+04  0.13017604746E+04  0.00000000000E+00 0. -1.
         21   -1    0    0  501  503 -0.00000000000E+00 -0.00000000000E+00 -0.10699784999E+03  0.10699784999E+03  0.00000000000E+00 0. -1.
          6    2    1    2  501    0  0.11596079781E+03  0.27757962341E+03  0.86122473058E+03  0.92837344252E+03  0.17225521257E+03 0.  0.
         24    2    3    3    0    0  0.44323286323E+02  0.24768165328E+03  0.59430562231E+03  0.65035595741E+03  0.80330215634E+02 0.  0.
         -6    2    1    2    0  502 -0.11596079781E+03 -0.27757962341E+03  0.33353789406E+03  0.48038488209E+03  0.17036652902E+03 0.  0.
        -24    2    5    5    0    0 -0.54672002129E+02 -0.47932215405E+02  0.99928185994E+02  0.14708346568E+03  0.79758249922E+02 0.  0.
          5    1    3    3  501    0  0.71637511482E+02  0.29897970128E+02  0.26691910827E+03  0.27801748511E+03  0.47000000000E+01 0. -1.
        -11    1    4    4    0    0 -0.16107481337E+02  0.10618557168E+03  0.29249176601E+03  0.31158668099E+03  0.00000000000E+00 0.  1.
         12    1    4    4    0    0  0.60430767660E+02  0.14149608160E+03  0.30181385630E+03  0.33876927642E+03  0.00000000000E+00 0. -1.
         -5    1    5    5    0  502 -0.61288795676E+02 -0.22964740801E+03  0.23360970807E+03  0.33330141641E+03  0.47000000000E+01 0.  1.
         11    1    6    6    0    0 -0.55192956577E+02 -0.36669047607E+01  0.82885176378E+02  0.99647684917E+02  0.00000000000E+00 0. -1.
        -12    1    6    6    0    0  0.52095444755E+00 -0.44265310645E+02  0.17043009616E+02  0.47435780765E+02  0.00000000000E+00 0.  1.
</event>
<event>
12    1  0.1032880E+000  0.3873883E+03  0.7818608E-02  0.1048285E+00
         21   -1    0    0  501  502  0.00000000000E+00  0.00000000000E+00  0.64690665837E+03  0.64690665837E+03  0.00000000000E+00 0.  1.
         21   -1    0    0  502  503 -0.00000000000E+00 -0.00000000000E+00 -0.23602101746E+03  0.23602101746E+03  0.00000000000E+00 0.  1.
         -6    2    1    2    0  503  0.25336596555E+03 -0.23621272394E+03  0.14529267326E+03  0.41323698482E+03  0.17223263706E+03 0.  0.
        -24    2    3    3    0    0  0.14473621055E+03 -0.16597352268E+03  0.15926406337E+03  0.28303998483E+03  0.79062065835E+02 0.  0.
          6    2    1    2  501    0 -0.25336596555E+03  0.23621272394E+03  0.26559296764E+03  0.46969069102E+03  0.17343286113E+03 0.  0.
         24    2    5    5    0    0 -0.12456621132E+03  0.19076503236E+03  0.21809457066E+03  0.32500808296E+03  0.78466385565E+02 0.  0.
          5    1    5    5  501    0 -0.12879975423E+03  0.45447691583E+02  0.47498396985E+02  0.14468260806E+03  0.47000000000E+01 0. -1.
        -11    1    6    6    0    0  0.61005050753E+01  0.22203988407E+02  0.44145631746E+02  0.49790260750E+02  0.00000000000E+00 0.  1.
         12    1    6    6    0    0 -0.13066671640E+03  0.16856104395E+03  0.17394893891E+03  0.27521782221E+03  0.00000000000E+00 0. -1.
         -5    1    3    3    0  503  0.10862975500E+03 -0.70239201259E+02 -0.13971390108E+02  0.13019699999E+03  0.47000000000E+01 0.  1.
         13    1    4    4    0    0 -0.35173811891E+01 -0.35751847873E+02  0.16778890252E+02  0.39649687954E+02  0.00000000000E+00 0. -1.
        -14    1    4    4    0    0  0.14825359174E+03 -0.13022167481E+03  0.14248517312E+03  0.24339029687E+03  0.00000000000E+00 0.  1.
</event>
<event>
12    1  0.1032880E+000  0.2424265E+03  0.7818608E-02  0.1118231E+00
         21   -1    0    0  501  502  0.00000000000E+00  0.00000000000E+00  0.20081634963E+03  0.20081634963E+03  0.00000000000E+00 0.  1.
         21   -1    0    0  502  503 -0.00000000000E+00 -0.00000000000E+00 -0.29267978153E+03  0.29267978153E+03  0.00000000000E+00 0.  1.
         -6    2    1    2    0  503 -0.17055127641E+03  0.19032357200E+02 -0.54366177895E+02  0.24818684951E+03  0.17085392142E+03 0.  0.
        -24    2    3    3    0    0 -0.74874724284E+02  0.13848693448E+02  0.35496491208E+02  0.11674004546E+03  0.81056934795E+02 0.  0.
          6    2    1    2  501    0  0.17055127641E+03 -0.19032357200E+02 -0.37497254006E+02  0.24530928166E+03  0.17123268118E+03 0.  0.
         24    2    5    5    0    0  0.83666833101E+02 -0.12370864282E+02 -0.84068266548E+02  0.14639400889E+03  0.84914987808E+02 0.  0.
          5    1    5    5  501    0  0.86884443309E+02 -0.66614929177E+01  0.46571012542E+02  0.98915272765E+02  0.47000000000E+01 0. -1.
        -11    1    6    6    0    0  0.46342598162E+01  0.24300290683E+02  0.81933425699E+00  0.24751803974E+02  0.00000000000E+00 0.  1.
         12    1    6    6    0    0  0.79032573284E+02 -0.36671154966E+02 -0.84887600805E+02  0.12164220492E+03  0.00000000000E+00 0. -1.
         -5    1    3    3    0  503 -0.95676552126E+02  0.51836637519E+01 -0.89862669103E+02  0.13144680405E+03  0.47000000000E+01 0.  1.
         13    1    4    4    0    0 -0.72454257838E+02 -0.21315550566E+02  0.28988168179E+02  0.80896761797E+02  0.00000000000E+00 0. -1.
        -14    1    4    4    0    0 -0.24204664455E+01  0.35164244014E+02  0.65083230288E+01  0.35843283660E+02  0.00000000000E+00 0.  1.
</event>
<event>
12    1  0.1032880E+000  0.1941474E+03  0.7818608E-02  0.1157471E+00
         21   -1    0    0  503  502  0.00000000000E+00  0.00000000000E+00  0.19949900993E+03  0.19949900993E+03  0.00000000000E+00 0.  1.
         21   -1    0    0  501  503 -0.00000000000E+00 -0.00000000000E+00 -0.18409990910E+03  0.18409990910E+03  0.00000000000E+00 0.  1.
          6    2    1    2  501    0 -0.49028311401E+02  0.37998494923E+02 -0.28727260791E+02  0.18450004230E+03  0.17136904376E+03 0.  0.
         24    2    3    3    0    0 -0.40730443342E+02  0.31946636638E+02 -0.84566700357E+02  0.12752976396E+03  0.80204471688E+02 0.  0.
         -6    2    1    2    0  502  0.49028311401E+02 -0.37998494923E+02  0.44126361625E+02  0.19909887673E+03  0.18397164453E+03 0.  0.
        -24    2    5    5    0    0  0.11676515685E+02  0.52279448843E+02  0.12294028030E+02  0.96236584145E+02  0.78999083620E+02 0.  0.
          5    1    3    3  501    0 -0.82978680586E+01  0.60518582854E+01  0.55839439565E+02  0.56970278339E+02  0.47000000000E+01 0. -1.
        -13    1    4    4    0    0 -0.38702871906E+01 -0.16552323073E+01  0.15317168298E+02  0.15885042071E+02  0.00000000000E+00 0.  1.
         14    1    4    4    0    0 -0.36860156152E+02  0.33601868945E+02 -0.99883868654E+02  0.11164472189E+03  0.00000000000E+00 0. -1.
         -5    1    5    5    0  502  0.37351795716E+02 -0.90277943766E+02  0.31832333595E+02  0.10286229259E+03  0.47000000000E+01 0.  1.
         11    1    6    6    0    0  0.34844346813E+02  0.21941277313E+02  0.33037115086E+02  0.52792036598E+02  0.00000000000E+00 0. -1.
        -12    1    6    6    0    0 -0.23167831129E+02  0.30338171530E+02 -0.20743087055E+02  0.43444547547E+02  0.00000000000E+00 0.  1.
</event>
<event>
12    1  0.1032880E+000  0.2286609E+03  0.7818608E-02  0.1128837E+00
         21   -1    0    0  501  502  0.00000000000E+00  0.00000000000E+00  0.21909289178E+03  0.21909289178E+03  0.00000000000E+00 0.  1.
         21   -1    0    0  502  503 -0.00000000000E+00 -0.00000000000E+00 -0.26644165493E+03  0.26644165493E+03  0.00000000000E+00 0.  1.
         -6    2    1    2    0  503  0.84281627398E+02  0.11046935116E+03 -0.11131883255E+03  0.24809407677E+03  0.17277707657E+03 0.  0.
        -24    2    3    3    0    0  0.55430286467E+02  0.12293556307E+02 -0.10694182812E+03  0.14556537476E+03  0.80802695150E+02 0.  0.
          6    2    1    2  501    0 -0.84281627398E+02 -0.11046935116E+03  0.63970069392E+02  0.23744046994E+03  0.18160103723E+03 0.  0.
         24    2    5    5    0    0 -0.41850122610E+02 -0.10863331084E+03  0.10622865299E+03  0.17734320269E+03  0.81323156845E+02 0.  0.
          5    1    5    5  501    0 -0.42431504788E+02 -0.18360403125E+01 -0.42258583595E+02  0.60097267243E+02  0.47000000000E+01 0. -1.
        -13    1    6    6    0    0  0.18669263989E+02 -0.38126398670E+02  0.60163482461E+02  0.73632929558E+02  0.00000000000E+00 0.  1.
         14    1    6    6    0    0 -0.60519386598E+02 -0.70506912173E+02  0.46065170527E+02  0.10371027314E+03  0.00000000000E+00 0. -1.
         -5    1    3    3    0  503  0.28851340930E+02  0.98175794849E+02 -0.43770044284E+01  0.10252870201E+03  0.47000000000E+01 0.  1.
         11    1    4    4    0    0  0.29661883117E+02 -0.30356321260E+02 -0.23868561606E+02  0.48693344346E+02  0.00000000000E+00 0. -1.
        -12    1    4    4    0    0  0.25768403350E+02  0.42649877567E+02 -0.83073266511E+02  0.96872030414E+02  0.00000000000E+00 0.  1.
</event>
<event>
12    1  0.1032880E+000  0.4969165E+03  0.7818608E-02  0.1014588E+00
         21   -1    0    0  501  502  0.00000000000E+00  0.00000000000E+00  0.14651725168E+03  0.14651725168E+03  0.00000000000E+00 0. -1.
         21   -1    0    0  502  503 -0.00000000000E+00 -0.00000000000E+00 -0.17776767714E+04  0.17776767714E+04  0.00000000000E+00 0. -1.
         -6    2    1    2    0  503  0.21968579261E+03 -0.41114679226E+03 -0.59616960650E+03  0.77609554947E+03  0.17205397389E+03 0.  0.
        -24    2    3    3    0    0  0.17643986010E+03 -0.20409607277E+03 -0.38734430590E+03  0.47882411241E+03  0.80316176205E+02 0.  0.
          6    2    1    2  501    0 -0.21968579261E+03  0.41114679226E+03 -0.10349899132E+04  0.11480984736E+04  0.17211174388E+03 0.  0.
         24    2    5    5    0    0 -0.69577920240E+02  0.26930172869E+03 -0.62970738195E+03  0.69320462274E+03  0.81466275521E+02 0.  0.
          5    1    5    5  501    0 -0.15010787237E+03  0.14184506358E+03 -0.40528253124E+03  0.45489385085E+03  0.47000000000E+01 0. -1.
        -13    1    6    6    0    0 -0.60915593658E+01  0.13577971889E+03 -0.37264990849E+03  0.39666256876E+03  0.00000000000E+00 0.  1.
         14    1    6    6    0    0 -0.63486360874E+02  0.13352200980E+03 -0.25705747346E+03  0.29654205398E+03  0.00000000000E+00 0. -1.
         -5    1    3    3    0  503  0.43245932513E+02 -0.20705071949E+03 -0.20882530060E+03  0.29727143706E+03  0.47000000000E+01 0. -1.
         11    1    4    4    0    0  0.37842369205E+02 -0.39830109945E+01 -0.50599436683E+02  0.63310443658E+02  0.00000000000E+00 0. -1.
        -12    1    4    4    0    0  0.13859749090E+03 -0.20011306177E+03 -0.33674486922E+03  0.41551366875E+03  0.00000000000E+00 0.  1.
</event>
<event>
12    1  0.1032880E+000  0.3404315E+03  0.7818608E-02  0.1066646E+00
         21   -1    0    0  503  502  0.00000000000E+00  0.00000000000E+00  0.20135566633E+03  0.20135566633E+03  0.00000000000E+00 0. -1.
         21   -1    0    0  501  503 -0.00000000000E+00 -0.00000000000E+00 -0.60581735692E+03  0.60581735692E+03  0.00000000000E+00 0. -1.
          6    2    1    2  501    0 -0.29321416427E+03 -0.73723545046E+01 -0.11114985473E+03  0.35781187398E+03  0.17218057154E+03 0.  0.
         24    2    3    3    0    0 -0.11295697154E+03  0.40757662935E+02 -0.70727193615E+01  0.14412215917E+03  0.79377004840E+02 0.  0.
         -6    2    1    2    0  502  0.29321416427E+03  0.73723545046E+01 -0.29331183586E+03  0.44936114928E+03  0.17281409574E+03 0.  0.
        -24    2    5    5    0    0  0.76909857618E+02  0.45621703842E+02 -0.11871987152E+03  0.16872791922E+03  0.79863863990E+02 0.  0.
          5    1    3    3  501    0 -0.18025719273E+03 -0.48130017439E+02 -0.10407713537E+03  0.21368971481E+03  0.47000000000E+01 0. -1.
        -13    1    4    4    0    0 -0.33874032314E+02 -0.23694815479E+02 -0.79568715602E+01  0.42097578919E+02  0.00000000000E+00 0.  1.
         14    1    4    4    0    0 -0.79082939223E+02  0.64452478414E+02  0.88415219876E+00  0.10202458025E+03  0.00000000000E+00 0. -1.
         -5    1    5    5    0  502  0.21630430665E+03 -0.38249349337E+02 -0.17459196434E+03  0.28063323006E+03  0.47000000000E+01 0.  1.
         13    1    6    6    0    0 -0.13103144836E+02 -0.12440490235E+01 -0.34244667618E+02  0.36687018451E+02  0.00000000000E+00 0. -1.
        -14    1    6    6    0    0  0.90013002454E+02  0.46865752865E+02 -0.84475203901E+02  0.13204090077E+03  0.00000000000E+00 0.  1.
</event>
<event>
12    1  0.1032880E+000  0.1830780E+03  0.7818608E-02  0.1165036E+00
         21   -1    0    0  503  502  0.00000000000E+00  0.00000000000E+00  0.20449438100E+03  0.20449438100E+03  0.00000000000E+00 0. -1.
         21   -1    0    0  501  503 -0.00000000000E+00 -0.00000000000E+00 -0.16692600056E+03  0.16692600056E+03  0.00000000000E+00 0. -1.
          6    2    1    2  501    0 -0.48931722281E+02 -0.35774922078E+02  0.46375289087E+02  0.18813069474E+03  0.17195444853E+03 0.  0.
         24    2    3    3    0    0 -0.85542367376E+02 -0.21205303635E+02 -0.89561587140E+01  0.12004051754E+03  0.81008342491E+02 0.  0.
         -6    2    1    2    0  502  0.48931722281E+02  0.35774922078E+02 -0.88069086457E+01  0.18328968682E+03  0.17275239263E+03 0.  0.
        -24    2    5    5    0    0 -0.27239825219E+02 -0.21256897944E+02 -0.37510431311E+01  0.87883267124E+02  0.80718861040E+02 0.  0.
          5    1    3    3  501    0  0.36610645094E+02 -0.14569618443E+02  0.55331447801E+02  0.68090177203E+02  0.47000000000E+01 0. -1.
        -13    1    4    4    0    0 -0.13737977631E+02 -0.40263720046E+02 -0.15920399285E+02  0.45424203843E+02  0.00000000000E+00 0.  1.
         14    1    4    4    0    0 -0.71804389744E+02  0.19058416411E+02  0.69642405710E+01  0.74616313694E+02  0.00000000000E+00 0. -1.
         -5    1    5    5    0  502  0.76171547501E+02  0.57031820022E+02 -0.50558655146E+01  0.95406419699E+02  0.47000000000E+01 0.  1.
         13    1    6    6    0    0 -0.30412712046E+01 -0.24336250941E+02 -0.38366803877E+02  0.45535854885E+02  0.00000000000E+00 0. -1.
        -14    1    6    6    0    0 -0.24198554015E+02  0.30793529973E+01  0.34615760746E+02  0.42347412239E+02  0.00000000000E+00 0.  1.
</event>
<event>
12    1  0.1032880E+000  0.3060302E+03  0.7818608E-02  0.1082959E+00
         21   -1    0    0  501  502  0.00000000000E+00  0.00000000000E+00  0.36411790895E+03  0.36411790895E+03  0.00000000000E+00 0.  1.
         21   -1    0    0  502  503 -0.00000000000E+00 -0.00000000000E+00 -0.26475593434E+03  0.26475593434E+03  0.00000000000E+00 0. -1.
         -6    2    1    2    0  503  0.17913386193E+03 -0.17888711304E+03  0.11692808180E+03  0.32233994238E+03  0.16168278337E+03 0.  0.
        -24    2    3    3    0    0  0.79367221145E+02 -0.10059010397E+03  0.45533891096E+01  0.15282898167E+03  0.83177157187E+02 0.  0.
          6    2    1    2  501    0 -0.17913386193E+03  0.17888711304E+03 -0.17566107198E+02  0.30653390091E+03  0.17194453926E+03 0.  0.
         24    2    5    5    0    0 -0.37755177753E+02  0.55471553198E+02 -0.50522185795E+02  0.11593608910E+03  0.79913320771E+02 0.  0.
          5    1    5    5  501    0 -0.14137868417E+03  0.12341555984E+03  0.32956078597E+02  0.19059781181E+03  0.47000000000E+01 0. -1.
        -11    1    6    6    0    0  0.13270495062E+02  0.29266236103E+02  0.89006354285E+01  0.33344263762E+02  0.00000000000E+00 0.  1.
         12    1    6    6    0    0 -0.51025672815E+02  0.26205317095E+02 -0.59422821224E+02  0.82591825337E+02  0.00000000000E+00 0. -1.
         -5    1    3    3    0  503  0.99766640780E+02 -0.78297009074E+02  0.11237469269E+03  0.16951096071E+03  0.47000000000E+01 0.  1.
         11    1    4    4    0    0  0.92524960340E+02 -0.60551443064E+02  0.17610857733E+01  0.11059135123E+03  0.00000000000E+00 0. -1.
        -12    1    4    4    0    0 -0.13157739195E+02 -0.40038660901E+02  0.27923033363E+01  0.42237630442E+02  0.00000000000E+00 0.  1.
</event>
<event>
12    1  0.1032880E+000  0.2412761E+03  0.7818608E-02  0.1119034E+00
         21   -1    0    0  503  502  0.00000000000E+00  0.00000000000E+00  0.54693155484E+03  0.54693155484E+03  0.00000000000E+00 0.  1.
         21   -1    0    0  501  503 -0.00000000000E+00 -0.00000000000E+00 -0.16187996345E+03  0.16187996345E+03  0.00000000000E+00 0.  1.
          6    2    1    2  501    0 -0.16502831827E+03  0.39290253055E+02  0.40051386483E+03  0.46757406780E+03  0.17156947030E+03 0.  0.
         24    2    3    3    0    0 -0.65970671980E+02 -0.24909707945E+02  0.27361180983E+03  0.29419507875E+03  0.81943265557E+02 0.  0.
         -6    2    1    2    0  502  0.16502831827E+03 -0.39290253055E+02 -0.15462273446E+02  0.24123745050E+03  0.17081673164E+03 0.  0.
        -24    2    5    5    0    0  0.51353796662E+02 -0.75127426156E+02 -0.18480385716E+02  0.12191687876E+03  0.78999101759E+02 0.  0.
          5    1    3    3  501    0 -0.99057646285E+02  0.64199961001E+02  0.12690205500E+03  0.17337898905E+03  0.47000000000E+01 0. -1.
        -13    1    4    4    0    0 -0.50471166694E+02 -0.26190281161E+02  0.70888166469E+02  0.90875748361E+02  0.00000000000E+00 0.  1.
         14    1    4    4    0    0 -0.15499505286E+02  0.12805732158E+01  0.20272364336E+03  0.20331933039E+03  0.00000000000E+00 0. -1.
         -5    1    5    5    0  502  0.11367452160E+03  0.35837173101E+02  0.30181122705E+01  0.11932057174E+03  0.47000000000E+01 0.  1.
         11    1    6    6    0    0  0.54615261338E+02 -0.55606444973E+02  0.18379693803E+02  0.80079439545E+02  0.00000000000E+00 0. -1.
        -12    1    6    6    0    0 -0.32614646760E+01 -0.19520981183E+02 -0.36860079519E+02  0.41837439218E+02  0.00000000000E+00 0.  1.
</event>
<event>
12    1  0.1032880E+000  0.2732085E+03  0.7818608E-02  0.1099626E+00
         21   -1    0    0  501  502  0.00000000000E+00  0.00000000000E+00  0.26524574652E+03  0.26524574652E+03  0.00000000000E+00 0.  1.
         21   -1    0    0  502  503 -0.00000000000E+00 -0.00000000000E+00 -0.29982487002E+03  0.29982487002E+03  0.00000000000E+00 0.  1.
         -6    2    1    2    0  503  0.12826225256E+02 -0.21116532381E+03 -0.89579387658E+02  0.28638096293E+03  0.17098035910E+03 0.  0.
        -24    2    3    3    0    0 -0.38008914421E+00 -0.69375293639E+02  0.18876192137E+02  0.10731806285E+03  0.79672957446E+02 0.  0.
          6    2    1    2  501    0 -0.12826225256E+02  0.21116532381E+03  0.55000264164E+02  0.27868965361E+03  0.17288027053E+03 0.  0.
         24    2    5    5    0    0  0.46549798986E+02  0.99266442147E+02  0.67030504277E+02  0.15135667026E+03  0.79969011534E+02 0.  0.
          5    1    5    5  501    0 -0.59376024242E+02  0.11189888167E+03 -0.12030240113E+02  0.12733298336E+03  0.47000000000E+01 0. -1.
        -13    1    6    6    0    0 -0.10242852344E+02  0.34199995950E+01  0.33218833086E+02  0.34929976997E+02  0.00000000000E+00 0.  1.
         14    1    6    6    0    0  0.56792651330E+02  0.95846442552E+02  0.33811671191E+02  0.11642669326E+03  0.00000000000E+00 0. -1.
         -5    1    3    3    0  503  0.13206314400E+02 -0.14179003017E+03 -0.10845557980E+03  0.17906290008E+03  0.47000000000E+01 0.  1.
         11    1    4    4    0    0 -0.34090084213E+02 -0.70880467924E+01  0.59434967764E+01  0.35322788719E+02  0.00000000000E+00 0. -1.
        -12    1    4    4    0    0  0.33709995069E+02 -0.62287246847E+02  0.12932695361E+02  0.71995274127E+02  0.00000000000E+00 0.  1.
</event>
<event>
12    1  0.1032880E+000  0.2993666E+03  0.7818608E-02  0.1085686E+00
         21   -1    0    0  501  502  0.00000000000E+00  0.00000000000E+00  0.10775638483E+03  0.10775638483E+03  0.00000000000E+00 0.  1.
         21   -1    0    0  502  503 -0.00000000000E+00 -0.00000000000E+00 -0.84035973266E+03  0.84035973266E+03  0.00000000000E+00 0.  1.
         -6    2    1    2    0  503  0.71606089787E+02 -0.23354849718E+03 -0.42116163495E+03  0.51612505035E+03  0.17127642050E+03 0.  0.
        -24    2    3    3    0    0  0.46233137226E+02 -0.36148847697E+02 -0.14443761693E+03  0.17523110719E+03  0.79996709774E+02 0.  0.
          6    2    1    2  501    0 -0.71606089787E+02  0.23354849718E+03 -0.31144171287E+03  0.43199106714E+03  0.17305493042E+03 0.  0.
         24    2    5    5    0    0 -0.85092965618E+02  0.11262562873E+03 -0.23027683484E+03  0.28565561908E+03  0.92985843022E+02 0.  0.
          5    1    5    5  501    0  0.13486875831E+02  0.12092286845E+03 -0.81164878030E+02  0.14633544806E+03  0.47000000000E+01 0. -1.
        -11    1    6    6    0    0  0.19959645905E+02  0.19656756181E+02 -0.48944009692E+02  0.56394074272E+02  0.00000000000E+00 0.  1.
         12    1    6    6    0    0 -0.10505261152E+03  0.92968872548E+02 -0.18133282515E+03  0.22926154481E+03  0.00000000000E+00 0. -1.
         -5    1    3    3    0  503  0.25372952561E+02 -0.19739964948E+03 -0.27672401802E+03  0.34089394317E+03  0.47000000000E+01 0.  1.
         13    1    4    4    0    0  0.71813493219E+01 -0.30523259948E+02 -0.68473350166E+01  0.32095594289E+02  0.00000000000E+00 0. -1.
        -14    1    4    4    0    0  0.39051787904E+02 -0.56255877488E+01 -0.13759028191E+03  0.14313551290E+03  0.00000000000E+00 0.  1.
</event>
<event>
12    1  0.1032880E+000  0.1724145E+03  0.7818608E-02  0.1180290E+00
         21   -1    0    0  501  502  0.00000000000E+00  0.00000000000E+00  0.12620910505E+04  0.12620910505E+04  0.00000000000E+00 0. -1.
         21   -1    0    0  502  503 -0.00000000000E+00 -0.00000000000E+00 -0.30010116125E+02  0.30010116125E+02  0.00000000000E+00 0. -1.
         -6    2    1    2    0  503  0.16661942160E+01  0.12960329930E+02  0.94282671730E+03  0.95535975687E+03  0.15368571778E+03 0.  0.
        -24    2    3    3    0    0 -0.38771595631E+02  0.46347283787E+02  0.75918621377E+03  0.76432094388E+03  0.64587078651E+02 0.  0.
          6    2    1    2  501    0 -0.16661942160E+01 -0.12960329930E+02  0.28925421705E+03  0.33674140972E+03  0.17191866852E+03 0.  0.
         24    2    5    5    0    0 -0.37345674556E+02 -0.61307724311E+02  0.21964218904E+03  0.24466307185E+03  0.80398949346E+02 0.  0.
          5    1    5    5  501    0  0.35679480340E+02  0.48347394381E+02  0.69612028014E+02  0.92078337871E+02  0.47000000000E+01 0. -1.
        -11    1    6    6    0    0 -0.44154701345E+02 -0.47105541406E+02  0.21961917722E+03  0.22891298060E+03  0.00000000000E+00 0.  1.
         12    1    6    6    0    0  0.68090267888E+01 -0.14202182904E+02  0.23011814757E-01  0.15750091257E+02  0.00000000000E+00 0. -1.
         -5    1    3    3    0  503  0.40437789847E+02 -0.33386953858E+02  0.18364050352E+03  0.19103881299E+03  0.47000000000E+01 0.  1.
         13    1    4    4    0    0 -0.14562724036E+02  0.14731474000E+02  0.51422093775E+02  0.55437541303E+02  0.00000000000E+00 0. -1.
        -14    1    4    4    0    0 -0.24208871595E+02  0.31615809787E+02  0.70776412000E+03  0.70888340258E+03  0.00000000000E+00 0.  1.
</event>
<event>
12    1  0.1032880E+000  0.2485260E+03  0.7818608E-02  0.1114279E+00
         21   -1    0    0  501  502  0.00000000000E+00  0.00000000000E+00  0.40451453352E+03  0.40451453352E+03  0.00000000000E+00 0.  1.
         21   -1    0    0  502  503 -0.00000000000E+00 -0.00000000000E+00 -0.15616762932E+03  0.15616762932E+03  0.00000000000E+00 0. -1.
         -6    2    1    2    0  503 -0.62826407072E+02 -0.16855874778E+03  0.81391188547E+02  0.26128383194E+03  0.17113008614E+03 0.  0.
        -24    2    3    3    0    0 -0.83802101891E+02 -0.16774337613E+03  0.10260322782E+03  0.23107315148E+03  0.87788076971E+02 0.  0.
          6    2    1    2  501    0  0.62826407072E+02  0.16855874778E+03  0.16695571565E+03  0.29939833090E+03  0.17148160448E+03 0.  0.
         24    2    5    5    0    0 -0.15412151232E+02  0.24209639038E+02  0.37901546080E+02  0.90508393645E+02  0.77016888388E+02 0.  0.
          5    1    5    5  501    0  0.78238558305E+02  0.14434910874E+03  0.12905416957E+03  0.20888993725E+03  0.47000000000E+01 0. -1.
        -13    1    6    6    0    0 -0.44442576708E+01  0.20208322245E+02  0.61115938573E+02  0.64523527971E+02  0.00000000000E+00 0.  1.
         14    1    6    6    0    0 -0.10967893562E+02  0.40013167933E+01 -0.23214392493E+02  0.25984865674E+02  0.00000000000E+00 0. -1.
         -5    1    3    3    0  503  0.20975694818E+02 -0.81537165074E+00 -0.21212039272E+02  0.30210680465E+02  0.47000000000E+01 0.  1.
         11    1    4    4    0    0  0.26480426061E+01 -0.43892910811E+02 -0.69072066690E+01  0.44511900129E+02  0.00000000000E+00 0. -1.
        -12    1    4    4    0    0 -0.86450144497E+02 -0.12385046532E+03  0.10951043449E+03  0.18656125135E+03  0.00000000000E+00 0.  1.
</event>
<event>
12    1  0.1032880E+000  0.3201417E+03  0.7818608E-02  0.1075771E+00
         21   -1    0    0  503  502  0.00000000000E+00  0.00000000000E+00  0.24830465425E+03  0.24830465425E+03  0.00000000000E+00 0.  1.
         21   -1    0    0  501  503 -0.00000000000E+00 -0.00000000000E+00 -0.42800949730E+03  0.42800949730E+03  0.00000000000E+00 0.  1.
          6    2    1    2  501    0  0.18920133619E+03 -0.19095489904E+03 -0.22007838436E+02  0.32089726562E+03  0.17386716494E+03 0.  0.
         24    2    3    3    0    0  0.15034295778E+03 -0.20855848722E+03  0.87502855897E+01  0.26809563607E+03  0.75492085935E+02 0.  0.
         -6    2    1    2    0  502 -0.18920133619E+03  0.19095489904E+03 -0.15769700462E+03  0.35541688593E+03  0.17085636790E+03 0.  0.
        -24    2    5    5    0    0 -0.11122655546E+03  0.17096998472E+03 -0.16298889749E+03  0.27461120940E+03  0.85110829544E+02 0.  0.
          5    1    3    3  501    0  0.38858378408E+02  0.17603588176E+02 -0.30758124026E+02  0.52801629546E+02  0.47000000000E+01 0. -1.
        -13    1    4    4    0    0  0.32523188696E+02 -0.44039435913E+02 -0.29449999183E+02  0.62165361499E+02  0.00000000000E+00 0.  1.
         14    1    4    4    0    0  0.11781976908E+03 -0.16451905131E+03  0.38200284772E+02  0.20593027457E+03  0.00000000000E+00 0. -1.
         -5    1    5    5    0  502 -0.77974780722E+02  0.19984914321E+02  0.52918928724E+01  0.80805676528E+02  0.47000000000E+01 0.  1.
         13    1    6    6    0    0 -0.10834466960E+03  0.11220477844E+03 -0.87302269065E+02  0.17874609344E+03  0.00000000000E+00 0. -1.
        -14    1    6    6    0    0 -0.28818858634E+01  0.58765206282E+02 -0.75686628426E+02  0.95865115959E+02  0.00000000000E+00 0.  1.
</event>
<event>
12    1  0.1032880E+000  0.5836623E+03  0.7818608E-02  0.9939902E-01
         21   -1    0    0  503  502  0.00000000000E+00  0.00000000000E+00  0.27910783041E+03  0.27910783041E+03  0.00000000000E+00 0.  1.
         21   -1    0    0  501  503 -0.00000000000E+00 -0.00000000000E+00 -0.14828393476E+04  0.14828393476E+04  0.00000000000E+00 0. -1.
          6    2    1    2  501    0  0.40370109946E+03  0.38516744321E+03 -0.23132611668E+03  0.62783233967E+03  0.17126919588E+03 0.  0.
         24    2    3    3    0    0  0.34573012375E+03  0.24469222481E+03 -0.18406647694E+03  0.46861712507E+03  0.79485461747E+02 0.  0.
         -6    2    1    2    0  502 -0.40370109946E+03 -0.38516744321E+03 -0.97240540055E+03  0.11341148384E+04  0.17121818423E+03 0.  0.
        -24    2    5    5    0    0 -0.81472535189E+02 -0.83410287108E+02 -0.26627273623E+03  0.30132791575E+03  0.79386981084E+02 0.  0.
          5    1    3    3  501    0  0.57970975716E+02  0.14047521840E+03 -0.47259639736E+02  0.15921521460E+03  0.47000000000E+01 0. -1.
        -11    1    4    4    0    0  0.20659761969E+03  0.11600151445E+03 -0.13559847090E+03  0.27299427307E+03  0.00000000000E+00 0.  1.
         12    1    4    4    0    0  0.13913250405E+03  0.12869071036E+03 -0.48468006045E+02  0.19562285201E+03  0.00000000000E+00 0. -1.
         -5    1    5    5    0  502 -0.32222856427E+03 -0.30175715611E+03 -0.70613266432E+03  0.83278692264E+03  0.47000000000E+01 0.  1.
         11    1    6    6    0    0 -0.54502563191E+02 -0.38068416883E+02 -0.63972083604E+02  0.92261374578E+02  0.00000000000E+00 0. -1.
        -12    1    6    6    0    0 -0.26969971998E+02 -0.45341870224E+02 -0.20230065262E+03  0.20906654117E+03  0.00000000000E+00 0.  1.
</event>
<event>
12    1  0.1032880E+000  0.2180705E+03  0.7818608E-02  0.1135528E+00
         21   -1    0    0  503  502  0.00000000000E+00  0.00000000000E+00  0.40581133564E+02  0.40581133564E+02  0.00000000000E+00 0.  1.
         21   -1    0    0  501  503 -0.00000000000E+00 -0.00000000000E+00 -0.14517120801E+04  0.14517120801E+04  0.00000000000E+00 0.  1.
          6    2    1    2  501    0 -0.11299757392E+02  0.13252119683E+03 -0.37603852024E+03  0.43469496780E+03  0.17281549177E+03 0.  0.
         24    2    3    3    0    0 -0.14714330205E+02  0.26256588435E+02 -0.67649080268E+02  0.10845891370E+03  0.79252873454E+02 0.  0.
         -6    2    1    2    0  502  0.11299757392E+02 -0.13252119683E+03 -0.10350924263E+04  0.10575982459E+04  0.17148809452E+03 0.  0.
        -24    2    5    5    0    0  0.68843634618E+02 -0.88876560565E+02 -0.78897141351E+03  0.80105625122E+03  0.81097085306E+02 0.  0.
          5    1    3    3  501    0  0.34145728131E+01  0.10626460839E+03 -0.30838943997E+03  0.32623605409E+03  0.47000000000E+01 0. -1.
        -13    1    4    4    0    0  0.78707419364E+01  0.43646070546E+02 -0.12016409867E+02  0.45949125768E+02  0.00000000000E+00 0.  1.
         14    1    4    4    0    0 -0.22585072142E+02 -0.17389482110E+02 -0.55632670401E+02  0.62509787935E+02  0.00000000000E+00 0. -1.
         -5    1    5    5    0  502 -0.57543877226E+02 -0.43644636264E+02 -0.24612101279E+03  0.25654199464E+03  0.47000000000E+01 0.  1.
         11    1    6    6    0    0  0.38862729306E+01 -0.54713837991E+02 -0.19500407267E+03  0.20257170470E+03  0.00000000000E+00 0. -1.
        -12    1    6    6    0    0  0.64957361687E+02 -0.34162722574E+02 -0.59396734083E+03  0.59848454652E+03  0.00000000000E+00 0.  1.
</event>
<event>
12    1  0.1032880E+000  0.2074510E+03  0.7818608E-02  0.1144291E+00
         21   -1    0    0  503  502  0.00000000000E+00  0.00000000000E+00  0.26391763992E+03  0.26391763992E+03  0.00000000000E+00 0.  1.
         21   -1    0    0  501  503 -0.00000000000E+00 -0.00000000000E+00 -0.16140436786E+03  0.16140436786E+03  0.00000000000E+00 0.  1.
          6    2    1    2  501    0  0.89950911697E+02  0.71861276746E+02  0.68446786713E+02  0.21845111193E+03  0.17257090161E+03 0.  0.
         24    2    3    3    0    0  0.41381097989E+02  0.29574259765E+02 -0.32243779470E+02  0.98835482825E+02  0.78369376923E+02 0.  0.
         -6    2    1    2    0  502 -0.89950911697E+02 -0.71861276746E+02  0.34066485348E+02  0.20687089584E+03  0.16846314882E+03 0.  0.
        -24    2    5    5    0    0 -0.70321229644E+02 -0.62258463561E+02  0.85909491232E+02  0.15041449056E+03  0.80142913985E+02 0.  0.
          5    1    3    3  501    0  0.48569813708E+02  0.42287016980E+02  0.10069056618E+03  0.11961562911E+03  0.47000000000E+01 0. -1.
        -11    1    4    4    0    0  0.14985970444E+02  0.16245096894E+02  0.25631027657E+02  0.33844232330E+02  0.00000000000E+00 0.  1.
         12    1    4    4    0    0  0.26395127545E+02  0.13329162872E+02 -0.57874807127E+02  0.64991250495E+02  0.00000000000E+00 0. -1.
         -5    1    5    5    0  502 -0.19629682052E+02 -0.96028131847E+01 -0.51843005883E+02  0.56456405283E+02  0.47000000000E+01 0.  1.
         11    1    6    6    0    0 -0.40809798140E+02  0.12645383428E+02  0.25418975452E+02  0.49713877935E+02  0.00000000000E+00 0. -1.
        -12    1    6    6    0    0 -0.29511431504E+02 -0.74903846989E+02  0.60490515779E+02  0.10070061262E+03  0.00000000000E+00 0.  1.
</event>
<event>
12    1  0.1032880E+000  0.2494573E+03  0.7818608E-02  0.1113649E+00
         21   -1    0    0  503  502  0.00000000000E+00  0.00000000000E+00  0.65735172717E+02  0.65735172717E+02  0.00000000000E+00 0.  1.
         21   -1    0    0  501  503 -0.00000000000E+00 -0.00000000000E+00 -0.11201931992E+04  0.11201931992E+04  0.00000000000E+00 0. -1.
          6    2    1    2  501    0  0.19829724363E+02  0.17963250782E+03 -0.76062049822E+03  0.80048265047E+03  0.17195312020E+03 0.  0.
         24    2    3    3    0    0  0.46216318868E+02  0.83452158069E+02 -0.23930731261E+03  0.26969414311E+03  0.79791792456E+02 0.  0.
         -6    2    1    2    0  502 -0.19829724363E+02 -0.17963250782E+03 -0.29383752830E+03  0.38544572150E+03  0.17195015367E+03 0.  0.
        -24    2    5    5    0    0  0.15398826290E+02 -0.53547737231E+02 -0.20532499920E+03  0.22734772036E+03  0.80150774440E+02 0.  0.
          5    1    3    3  501    0 -0.26386594505E+02  0.96180349747E+02 -0.52131318561E+03  0.53078850736E+03  0.47000000000E+01 0. -1.
        -13    1    4    4    0    0  0.45614117345E+02  0.95157493031E+01 -0.61757520242E+02  0.77363999977E+02  0.00000000000E+00 0.  1.
         14    1    4    4    0    0  0.60220152269E+00  0.73936408766E+02 -0.17754979237E+03  0.19233014313E+03  0.00000000000E+00 0. -1.
         -5    1    5    5    0  502 -0.35228550653E+02 -0.12608477059E+03 -0.88512529108E+02  0.15809800114E+03  0.47000000000E+01 0.  1.
         13    1    6    6    0    0  0.18225055600E+02  0.18214956042E+02 -0.51784593251E+02  0.57841000799E+02  0.00000000000E+00 0. -1.
        -14    1    6    6    0    0 -0.28262293100E+01 -0.71762693273E+02 -0.15354040594E+03  0.16950671956E+03  0.00000000000E+00 0.  1.
</event>
<event>
12    1  0.1032880E+000  0.1855180E+03  0.7818608E-02  0.1163196E+00
         21   -1    0    0  503  502  0.00000000000E+00  0.00000000000E+00  0.26960762196E+03  0.26960762196E+03  0.00000000000E+00 0. -1.
         21   -1    0    0  501  503 -0.00000000000E+00 -0.00000000000E+00 -0.12665614236E+03  0.12665614236E+03  0.00000000000E+00 0. -1.
          6    2    1    2  501    0 -0.49714087092E+02 -0.54036292143E+02  0.55857567060E+02  0.19374468403E+03  0.17036878666E+03 0.  0.
         24    2    3    3    0    0 -0.46791402935E+02 -0.44330856948E+02 -0.29900366953E+02  0.10726202218E+03  0.80352032902E+02 0.  0.
         -6    2    1    2    0  502  0.49714087092E+02  0.54036292143E+02  0.87093912531E+02  0.20251908029E+03  0.16744317531E+03 0.  0.
        -24    2    5    5    0    0  0.46600105086E+02 -0.10680135946E+02 -0.37235521090E+01  0.90859710632E+02  0.77175041808E+02 0.  0.
          5    1    3    3  501    0 -0.29226841567E+01 -0.97054351952E+01  0.85757934013E+02  0.86482661853E+02  0.47000000000E+01 0. -1.
        -11    1    4    4    0    0 -0.43836545188E+01  0.70244535417E+01 -0.39154557709E+02  0.40020479306E+02  0.00000000000E+00 0.  1.
         12    1    4    4    0    0 -0.42407748416E+02 -0.51355310490E+02  0.92541907563E+01  0.67241542872E+02  0.00000000000E+00 0. -1.
         -5    1    5    5    0  502  0.31139820053E+01  0.64716428089E+02  0.90817464640E+02  0.11165936966E+03  0.47000000000E+01 0.  1.
         13    1    6    6    0    0 -0.11690833192E+02 -0.75200263131E+01 -0.25100263978E+02  0.28692326993E+02  0.00000000000E+00 0. -1.
        -14    1    6    6    0    0  0.58290938278E+02 -0.31601096331E+01  0.21376711870E+02  0.62167383640E+02  0.00000000000E+00 0.  1.
</event>
<event>
12    1  0.1032880E+000  0.1754018E+03  0.7818608E-02  0.1172397E+00
         21   -1    0    0  501  502  0.00000000000E+00  0.00000000000E+00  0.99436409476E+02  0.99436409476E+02  0.00000000000E+00 0.  1.
         21   -1    0    0  502  503 -0.00000000000E+00 -0.00000000000E+00 -0.31935626067E+03  0.31935626067E+03  0.00000000000E+00 0.  1.
         -6    2    1    2    0  503 -0.17444874255E+02  0.32333066185E+02 -0.72194951789E+02  0.18967840676E+03  0.17151103790E+03 0.  0.
        -24    2    3    3    0    0 -0.16667547738E+02 -0.15322419466E+02  0.26438810277E+02  0.80031890316E+02  0.72066005112E+02 0.  0.
          6    2    1    2  501    0  0.17444874255E+02 -0.32333066185E+02 -0.14772489940E+03  0.22911426338E+03  0.17123360936E+03 0.  0.
         24    2    5    5    0    0  0.27575152160E+02 -0.34288766580E+02 -0.17651541164E+03  0.19817188323E+03  0.78602138822E+02 0.  0.
          5    1    5    5  501    0 -0.10130277905E+02  0.19557003952E+01  0.28790512238E+02  0.30942380151E+02  0.47000000000E+01 0. -1.
        -13    1    6    6    0    0 -0.21175163800E+02  0.10457801425E+02 -0.39691042602E+02  0.46185842371E+02  0.00000000000E+00 0.  1.
         14    1    6    6    0    0  0.48750315960E+02 -0.44746568006E+02 -0.13682436904E+03  0.15198604086E+03  0.00000000000E+00 0. -1.
         -5    1    3    3    0  503 -0.77732651672E+00  0.47655485651E+02 -0.98633762066E+02  0.10964651644E+03  0.47000000000E+01 0.  1.
         13    1    4    4    0    0 -0.16461572266E+02  0.27793733342E+02  0.91061892400E+01  0.33561848236E+02  0.00000000000E+00 0. -1.
        -14    1    4    4    0    0 -0.20597547252E+00 -0.43116152808E+02  0.17332621037E+02  0.46470042080E+02  0.00000000000E+00 0.  1.
</event>
<event>
12    1  0.1032880E+000  0.2834192E+03  0.7818608E-02  0.1094151E+00
         21   -1    0    0  503  502  0.00000000000E+00  0.00000000000E+00  0.46444237345E+02  0.46444237345E+02  0.00000000000E+00 0.  1.
         21   -1    0    0  501  503 -0.00000000000E+00 -0.00000000000E+00 -0.17166072770E+04  0.17166072770E+04  0.00000000000E+00 0.  1.
          6    2    1    2  501    0  0.21244131453E+03  0.56046777194E+02 -0.85568372227E+03  0.90066934371E+03  0.17532279029E+03 0.  0.
         24    2    3    3    0    0  0.21453754518E+02  0.23954396697E+02 -0.30289725250E+03  0.31492098467E+03  0.79965019277E+02 0.  0.
         -6    2    1    2    0  502 -0.21244131453E+03 -0.56046777194E+02 -0.81447931736E+03  0.86238217061E+03  0.17903601989E+03 0.  0.
        -24    2    5    5    0    0 -0.39065645843E+02 -0.16696196739E+02 -0.16019848966E+03  0.18436072392E+03  0.80749196672E+02 0.  0.
          5    1    3    3  501    0  0.19098756001E+03  0.32092380497E+02 -0.55278646976E+03  0.58574835904E+03  0.47000000000E+01 0. -1.
        -13    1    4    4    0    0  0.76741199221E+01 -0.21314544421E+02 -0.28173513898E+02  0.36151746926E+02  0.00000000000E+00 0.  1.
         14    1    4    4    0    0  0.13779634596E+02  0.45268941118E+02 -0.27472373860E+03  0.27876923774E+03  0.00000000000E+00 0. -1.
         -5    1    5    5    0  502 -0.17337566869E+03 -0.39350580454E+02 -0.65428082770E+03  0.67802144669E+03  0.47000000000E+01 0.  1.
         13    1    6    6    0    0 -0.21726857601E+01 -0.43593411986E+02 -0.97269833944E+02  0.10661391432E+03  0.00000000000E+00 0. -1.
        -14    1    6    6    0    0 -0.36892960082E+02  0.26897215247E+02 -0.62928655719E+02  0.77746809595E+02  0.00000000000E+00 0.  1.
</event>
<event>
12    1  0.1032880E+000  0.1876622E+03  0.7818608E-02  0.1160666E+00
         21   -1    0    0  503  502  0.00000000000E+00  0.00000000000E+00  0.64564333105E+02  0.64564333105E+02  0.00000000000E+00 0. -1.
         21   -1    0    0  501  503 -0.00000000000E+00 -0.00000000000E+00 -0.61953951601E+03  0.61953951601E+03  0.00000000000E+00 0. -1.
          6    2    1    2  501    0  0.75013762651E+02 -0.10973402614E+02 -0.15863525710E+03  0.24572798612E+03  0.17166717280E+03 0.  0.
         24    2    3    3    0    0  0.11584752449E+03  0.10481109400E+02 -0.11764078226E+03  0.18383833304E+03  0.80166554499E+02 0.  0.
         -6    2    1    2    0  502 -0.75013762651E+02  0.10973402614E+02 -0.39633992581E+03  0.43837586299E+03  0.17129092303E+03 0.  0.
        -24    2    5    5    0    0  0.10468488167E+02  0.32960491663E+02 -0.28263969566E+03  0.29436030958E+03  0.74611065111E+02 0.  0.
          5    1    3    3  501    0 -0.40833761835E+02 -0.21454512014E+02 -0.40994474839E+02  0.61889653083E+02  0.47000000000E+01 0. -1.
        -13    1    4    4    0    0  0.23726363081E+02  0.25162233609E+02 -0.11540561088E+01  0.34603614707E+02  0.00000000000E+00 0.  1.
         14    1    4    4    0    0  0.92121161405E+02 -0.14681124209E+02 -0.11648672615E+03  0.14923471833E+03  0.00000000000E+00 0. -1.
         -5    1    5    5    0  502 -0.85482250818E+02 -0.21987089050E+02 -0.11370023015E+03  0.14401555341E+03  0.47000000000E+01 0.  1.
         13    1    6    6    0    0  0.41536736416E+02  0.10246335477E+02 -0.12612565875E+03  0.13318396922E+03  0.00000000000E+00 0. -1.
        -14    1    6    6    0    0 -0.31068248249E+02  0.22714156187E+02 -0.15651403691E+03  0.16117634036E+03  0.00000000000E+00 0.  1.
</event>
<event>
12    1  0.1032880E+000  0.1915816E+03  0.7818608E-02  0.1157460E+00
         21   -1    0    0  503  502  0.00000000000E+00  0.00000000000E+00  0.76693545882E+02  0.76693545882E+02  0.00000000000E+00 0. -1.
         21   -1    0    0  501  503 -0.00000000000E+00 -0.00000000000E+00 -0.51747070041E+03  0.51747070041E+03  0.00000000000E+00 0. -1.
          6    2    1    2  501    0  0.46059125491E+02  0.71636298616E+02 -0.13520788726E+03  0.23448815729E+03  0.17161095773E+03 0.  0.
         24    2    3    3    0    0  0.62393529307E+02 -0.14872477024E+02 -0.60499049322E+02  0.11892829628E+03  0.79810159850E+02 0.  0.
         -6    2    1    2    0  502 -0.46059125491E+02 -0.71636298616E+02 -0.30556926726E+03  0.35967608900E+03  0.16953203113E+03 0.  0.
        -24    2    5    5    0    0  0.35424182039E+02 -0.32796885361E+02 -0.14277443684E+03  0.17347115823E+03  0.85890596467E+02 0.  0.
          5    1    3    3  501    0 -0.16334403816E+02  0.86508775641E+02 -0.74708837940E+02  0.11555986101E+03  0.47000000000E+01 0. -1.
        -11    1    4    4    0    0  0.38256406574E+01 -0.32283845810E+02 -0.45660000556E+02  0.56051029228E+02  0.00000000000E+00 0.  1.
         12    1    4    4    0    0  0.58567888649E+02  0.17411368785E+02 -0.14839048766E+02  0.62877267053E+02  0.00000000000E+00 0. -1.
         -5    1    5    5    0  502 -0.81483307529E+02 -0.38839413255E+02 -0.16279483042E+03  0.18620493076E+03  0.47000000000E+01 0.  1.
         11    1    6    6    0    0 -0.93784423765E+01 -0.23751774843E+02 -0.11946552908E+03  0.12216429359E+03  0.00000000000E+00 0. -1.
        -12    1    6    6    0    0  0.44802624415E+02 -0.90451105185E+01 -0.23308907760E+02  0.51306864645E+02  0.00000000000E+00 0.  1.
</event>
<event>
12    1  0.1032880E+000  0.2469868E+03  0.7818608E-02  0.1115343E+00
         21   -1    0    0  503  502  0.00000000000E+00  0.00000000000E+00  0.81841665218E+02  0.81841665218E+02  0.00000000000E+00 0. -1.
         21   -1    0    0  501  503 -0.00000000000E+00 -0.00000000000E+00 -0.75650635713E+03  0.75650635713E+03  0.00000000000E+00 0. -1.
          6    2    1    2  501    0  0.59027919986E+01  0.17732757255E+03 -0.28211794146E+03  0.37495736417E+03  0.17182136395E+03 0.  0.
         24    2    3    3    0    0  0.98943196908E+01  0.12507137538E+03 -0.85169343275E+02  0.17110083922E+03  0.79252341582E+02 0.  0.
         -6    2    1    2    0  502 -0.59027919986E+01 -0.17732757255E+03 -0.39254675044E+03  0.46339065818E+03  0.17075725420E+03 0.  0.
        -24    2    5    5    0    0 -0.12652753968E+01 -0.15578078109E+03 -0.18276701072E+03  0.25240392878E+03  0.77683398345E+02 0.  0.
          5    1    3    3  501    0 -0.39915276922E+01  0.52256197171E+02 -0.19694859819E+03  0.20385652495E+03  0.47000000000E+01 0. -1.
        -11    1    4    4    0    0 -0.99535682411E+01  0.31535733588E+02  0.11614427965E+02  0.35049549935E+02  0.00000000000E+00 0.  1.
         12    1    4    4    0    0  0.19847887932E+02  0.93535641788E+02 -0.96783771240E+02  0.13605128928E+03  0.00000000000E+00 0. -1.
         -5    1    5    5    0  502 -0.46375166017E+01 -0.21546791460E+02 -0.20977973972E+03  0.21098672940E+03  0.47000000000E+01 0.  1.
         13    1    6    6    0    0 -0.32282321426E+02 -0.52421099969E+02 -0.39906705242E+02  0.73366648567E+02  0.00000000000E+00 0. -1.
        -14    1    6    6    0    0  0.31017046029E+02 -0.10335968112E+03 -0.14286030548E+03  0.17903728021E+03  0.00000000000E+00 0.  1.
</event>
<event>
12    1  0.1032880E+000  0.1861596E+03  0.7818608E-02  0.1162114E+00
         21   -1    0    0  501  502  0.00000000000E+00  0.00000000000E+00  0.15658846495E+03  0.15658846495E+03  0.00000000000E+00 0.  1.
         21   -1    0    0  502  503 -0.00000000000E+00 -0.00000000000E+00 -0.35031965031E+03  0.35031965031E+03  0.00000000000E+00 0.  1.
         -6    2    1    2    0  503 -0.53326822174E+02  0.46193608292E+02  0.57474873045E+02  0.19424234703E+03  0.17160748509E+03 0.  0.
        -24    2    3    3    0    0 -0.61042324069E+02  0.77862421606E+01 -0.26498941483E+02  0.10146117292E+03  0.76193075904E+02 0.  0.
          6    2    1    2  501    0  0.53326822174E+02 -0.46193608292E+02 -0.25120605840E+03  0.31266576824E+03  0.17227245700E+03 0.  0.
         24    2    5    5    0    0  0.46183563810E+02 -0.98369127235E+02 -0.20762778733E+03  0.24414959039E+03  0.68485893857E+02 0.  0.
          5    1    5    5  501    0  0.71432583648E+01  0.52175518943E+02 -0.43578271072E+02  0.68516177846E+02  0.47000000000E+01 0. -1.
        -11    1    6    6    0    0 -0.12809019696E+02 -0.51039314750E+02 -0.78597724818E+02  0.94586917607E+02  0.00000000000E+00 0.  1.
         12    1    6    6    0    0  0.58992583506E+02 -0.47329812485E+02 -0.12903006251E+03  0.14956267278E+03  0.00000000000E+00 0. -1.
         -5    1    3    3    0  503  0.77155018945E+01  0.38407366131E+02  0.83973814528E+02  0.92781174109E+02  0.47000000000E+01 0.  1.
         11    1    4    4    0    0  0.52720286754E+00 -0.27676032654E+01 -0.37863617014E+02  0.37968290244E+02  0.00000000000E+00 0. -1.
        -12    1    4    4    0    0 -0.61569526937E+02  0.10553845426E+02  0.11364675531E+02  0.63492882675E+02  0.00000000000E+00 0.  1.
</event>
<event>
12    1  0.1032880E+000  0.4372308E+03  0.7818608E-02  0.1031681E+00
         21   -1    0    0  501  502  0.00000000000E+00  0.00000000000E+00  0.43174980318E+03  0.43174980318E+03  0.00000000000E+00 0.  1.
         21   -1    0    0  502  503 -0.00000000000E+00 -0.00000000000E+00 -0.45844707316E+03  0.45844707316E+03  0.00000000000E+00 0.  1.
         -6    2    1    2    0  503  0.38719600143E+03 -0.10694731154E+03  0.71645639940E+02  0.44306190176E+03  0.17266232969E+03 0.  0.
        -24    2    3    3    0    0  0.28226545042E+03 -0.71628339399E+02 -0.13794366592E+02  0.30313358065E+03  0.83037820701E+02 0.  0.
          6    2    1    2  501    0 -0.38719600143E+03  0.10694731154E+03 -0.98342909926E+02  0.44713497459E+03  0.16999966645E+03 0.  0.
         24    2    5    5    0    0 -0.13296045258E+03  0.92917442005E+02 -0.27010277496E+02  0.18266761178E+03  0.79534698866E+02 0.  0.
          5    1    5    5  501    0 -0.25423554886E+03  0.14029869536E+02 -0.71332632430E+02  0.26446736281E+03  0.47000000000E+01 0. -1.
        -11    1    6    6    0    0  0.83891275872E+01 -0.23777570291E+01 -0.66858271475E+01  0.10987787530E+02  0.00000000000E+00 0.  1.
         12    1    6    6    0    0 -0.14134958016E+03  0.95295199034E+02 -0.20324450349E+02  0.17167982425E+03  0.00000000000E+00 0. -1.
         -5    1    3    3    0  503  0.10493055102E+03 -0.35318972142E+02  0.85440006532E+02  0.13992832110E+03  0.47000000000E+01 0.  1.
         11    1    4    4    0    0  0.20471333527E+03 -0.61209293874E+02  0.26178485309E+02  0.21526597592E+03  0.00000000000E+00 0. -1.
        -12    1    4    4    0    0  0.77552115141E+02 -0.10419045524E+02 -0.39972851901E+02  0.87867604733E+02  0.00000000000E+00 0.  1.
</event>
<event>
12    1  0.1032880E+000  0.3286562E+03  0.7818608E-02  0.1071850E+00
         21   -1    0    0  503  502  0.00000000000E+00  0.00000000000E+00  0.10006214233E+03  0.10006214233E+03  0.00000000000E+00 0.  1.
         21   -1    0    0  501  503 -0.00000000000E+00 -0.00000000000E+00 -0.11093158852E+04  0.11093158852E+04  0.00000000000E+00 0.  1.
          6    2    1    2  501    0  0.68820703154E+02  0.27117047440E+03 -0.40067995612E+03  0.51822707037E+03  0.17246783428E+03 0.  0.
         24    2    3    3    0    0 -0.24850339692E+02  0.88647761787E+02 -0.14989659719E+03  0.19418511630E+03  0.82236880342E+02 0.  0.
         -6    2    1    2    0  502 -0.68820703154E+02 -0.27117047440E+03 -0.60857378675E+03  0.69115095716E+03  0.17046370961E+03 0.  0.
        -24    2    5    5    0    0 -0.48510434818E+02 -0.52178223023E+02 -0.22051363676E+03  0.24507598233E+03  0.79750510164E+02 0.  0.
          5    1    3    3  501    0  0.93671042845E+02  0.18252271262E+03 -0.25078335893E+03  0.32404195408E+03  0.47000000000E+01 0. -1.
        -13    1    4    4    0    0  0.13310064459E+02  0.16660326948E+02 -0.91475931273E+02  0.93928538326E+02  0.00000000000E+00 0.  1.
         14    1    4    4    0    0 -0.38160404151E+02  0.71987434839E+02 -0.58420665919E+02  0.10025657797E+03  0.00000000000E+00 0. -1.
         -5    1    5    5    0  502 -0.20310268336E+02 -0.21899225138E+03 -0.38806014999E+03  0.44607497484E+03  0.47000000000E+01 0.  1.
         13    1    6    6    0    0 -0.35285817115E+02 -0.70222419117E+02 -0.19934313354E+03  0.21427543472E+03  0.00000000000E+00 0. -1.
        -14    1    6    6    0    0 -0.13224617702E+02  0.18044196093E+02 -0.21170503221E+02  0.30800547603E+02  0.00000000000E+00 0.  1.
</event>
<event>
12    1  0.1032880E+000  0.2822728E+03  0.7818608E-02  0.1094497E+00
         21   -1    0    0  501  502  0.00000000000E+00  0.00000000000E+00  0.11624649216E+03  0.11624649216E+03  0.00000000000E+00 0. -1.
         21   -1    0    0  502  503 -0.00000000000E+00 -0.00000000000E+00 -0.14598674207E+04  0.14598674207E+04  0.00000000000E+00 0. -1.
         -6    2    1    2    0  503 -0.17918562671E+03 -0.13350128783E+03 -0.97722710547E+02  0.29870995501E+03  0.17247558202E+03 0.  0.
        -24    2    3    3    0    0 -0.81696490526E+02 -0.10883598112E+03 -0.11539744050E+03  0.19649941197E+03  0.82315625974E+02 0.  0.
          6    2    1    2  501    0  0.17918562671E+03  0.13350128783E+03 -0.12458982180E+04  0.12774039578E+04  0.17195470113E+03 0.  0.
         24    2    5    5    0    0  0.11845883192E+03  0.21298507050E+02 -0.80964407161E+03  0.82285255496E+03  0.84123024548E+02 0.  0.
          5    1    5    5  501    0  0.60726794793E+02  0.11220278078E+03 -0.43625414638E+03  0.45455140287E+03  0.47000000000E+01 0. -1.
        -11    1    6    6    0    0  0.44391351144E+02  0.50086647463E+02 -0.33829182276E+03  0.34484869386E+03  0.00000000000E+00 0.  1.
         12    1    6    6    0    0  0.74067480777E+02 -0.28788140413E+02 -0.47135224885E+03  0.47800386111E+03  0.00000000000E+00 0. -1.
         -5    1    3    3    0  503 -0.97489136188E+02 -0.24665306705E+02  0.17674729956E+02  0.10221054304E+03  0.47000000000E+01 0.  1.
         11    1    4    4    0    0 -0.96770593324E+01  0.13781878277E+02 -0.12488213950E+02  0.20965236317E+02  0.00000000000E+00 0. -1.
        -12    1    4    4    0    0 -0.72019431194E+02 -0.12261785940E+03 -0.10290922655E+03  0.17553417565E+03  0.00000000000E+00 0.  1.
</event>
<event>
12    1  0.1032880E+000  0.1781298E+03  0.7818608E-02  0.1169786E+00
         21   -1    0    0  501  502  0.00000000000E+00  0.00000000000E+00  0.23388915358E+04  0.23388915358E+04  0.00000000000E+00 0.  1.
         21   -1    0    0  502  503 -0.00000000000E+00 -0.00000000000E+00 -0.15724283508E+02  0.15724283508E+02  0.00000000000E+00 0.  1.
         -6    2    1    2    0  503 -0.15116384216E+02 -0.36807427221E+02  0.72228869722E+03  0.74392955204E+03  0.17362869721E+03 0.  0.
        -24    2    3    3    0    0  0.41338450593E+02 -0.78492564803E+01  0.59588054009E+03  0.60241334726E+03  0.77831514014E+02 0.  0.
          6    2    1    2  501    0  0.15116384216E+02  0.36807427221E+02  0.16008785551E+04  0.16106862673E+04  0.17295898852E+03 0.  0.
         24    2    5    5    0    0  0.60985527164E+02  0.65360374066E+02  0.92809760852E+03  0.93572290450E+03  0.78873126154E+02 0.  0.
          5    1    5    5  501    0 -0.45869142948E+02 -0.28552946845E+02  0.67278094658E+03  0.67496336281E+03  0.47000000000E+01 0. -1.
        -11    1    6    6    0    0  0.17343792283E+02  0.28561862705E+02  0.69258574746E+03  0.69339137918E+03  0.00000000000E+00 0.  1.
         12    1    6    6    0    0  0.43641734881E+02  0.36798511361E+02  0.23551186106E+03  0.24233152532E+03  0.00000000000E+00 0. -1.
         -5    1    3    3    0  503 -0.56454834809E+02 -0.28958170741E+02  0.12640815712E+03  0.14151620477E+03  0.47000000000E+01 0.  1.
         13    1    4    4    0    0  0.16963624906E+02  0.80607436995E+01  0.53065944909E+03  0.53099170527E+03  0.00000000000E+00 0. -1.
        -14    1    4    4    0    0  0.24374825687E+02 -0.15910000180E+02  0.65221091001E+02  0.71421641988E+02  0.00000000000E+00 0.  1.
</event>
<event>
12    1  0.1032880E+000  0.3034384E+03  0.7818608E-02  0.1083542E+00
         21   -1    0    0  503  502  0.00000000000E+00  0.00000000000E+00  0.81581745971E+03  0.81581745971E+03  0.00000000000E+00 0.  1.
         21   -1    0    0  501  503 -0.00000000000E+00 -0.00000000000E+00 -0.17939980578E+03  0.17939980578E+03  0.00000000000E+00 0.  1.
          6    2    1    2  501    0 -0.24640168824E+03 -0.40582934473E+02  0.15127616790E+02  0.30381527979E+03  0.17237782024E+03 0.  0.
         24    2    3    3    0    0 -0.13883800353E+03  0.42173701169E+02 -0.10174215546E+02  0.16568172222E+03  0.79324057632E+02 0.  0.
         -6    2    1    2    0  502  0.24640168824E+03  0.40582934473E+02  0.62129003714E+03  0.69140198570E+03  0.17226325505E+03 0.  0.
        -24    2    5    5    0    0  0.18077808397E+03  0.65935289643E+02  0.31852627837E+03  0.38053676896E+03  0.79505122217E+02 0.  0.
          5    1    3    3  501    0 -0.10756368470E+03 -0.82756635642E+02  0.25301832336E+02  0.13813355758E+03  0.47000000000E+01 0. -1.
        -11    1    4    4    0    0 -0.13207089211E+03  0.11758970626E+02 -0.17304687195E+02  0.13371778540E+03  0.00000000000E+00 0.  1.
         12    1    4    4    0    0 -0.67671114237E+01  0.30414730543E+02  0.71304716490E+01  0.31963936819E+02  0.00000000000E+00 0. -1.
         -5    1    5    5    0  502  0.65623604267E+02 -0.25352355170E+02  0.30276375877E+03  0.31086521673E+03  0.47000000000E+01 0.  1.
         13    1    6    6    0    0  0.76862188161E+02 -0.11669499413E+02  0.10387893711E+03  0.12974901449E+03  0.00000000000E+00 0. -1.
        -14    1    6    6    0    0  0.10391589581E+03  0.77604789056E+02  0.21464734126E+03  0.25078775448E+03  0.00000000000E+00 0.  1.
</event>
<event>
12    1  0.1032880E+000  0.1779393E+03  0.7818608E-02  0.1169912E+00
         21   -1    0    0  501  502  0.00000000000E+00  0.00000000000E+00  0.25754409715E+04  0.25754409715E+04  0.00000000000E+00 0.  1.
         21   -1    0    0  502  503 -0.00000000000E+00 -0.00000000000E+00 -0.12305729738E+02  0.12305729738E+02  0.00000000000E+00 0.  1.
         -6    2    1    2    0  503 -0.36578414636E+02 -0.26642340748E+02  0.12065115356E+04  0.12195031983E+04  0.17166878093E+03 0.  0.
        -24    2    3    3    0    0  0.38862535168E+02 -0.23754716061E+02  0.45124660114E+03  0.46045979603E+03  0.79530783604E+02 0.  0.
          6    2    1    2  501    0  0.36578414636E+02  0.26642340748E+02  0.13566237062E+04  0.13682435030E+04  0.17208895527E+03 0.  0.
         24    2    5    5    0    0  0.94018898226E+01  0.57886504121E+02  0.50203969785E+03  0.51264390121E+03  0.85560904273E+02 0.  0.
          5    1    5    5  501    0  0.27176524813E+02 -0.31244163373E+02  0.85458400831E+03  0.85559960175E+03  0.47000000000E+01 0. -1.
        -11    1    6    6    0    0 -0.27946659611E+02 -0.56084487613E+01  0.18326185214E+03  0.18546529846E+03  0.00000000000E+00 0.  1.
         12    1    6    6    0    0  0.37348549434E+02  0.63494952882E+02  0.31877784570E+03  0.32717860275E+03  0.00000000000E+00 0. -1.
         -5    1    3    3    0  503 -0.75440949803E+02 -0.28876246869E+01  0.75526493449E+03  0.75904340229E+03  0.47000000000E+01 0.  1.
         11    1    4    4    0    0  0.12208852987E+02  0.98512275766E+01  0.13735167907E+02  0.20850842032E+02  0.00000000000E+00 0. -1.
        -12    1    4    4    0    0  0.26653682181E+02 -0.33605943638E+02  0.43751143323E+03  0.43960895399E+03  0.00000000000E+00 0.  1.
</event>
<event>
12    1  0.1032880E+000  0.2325759E+03  0.7818608E-02  0.1125169E+00
         21   -1    0    0  501  502  0.00000000000E+00  0.00000000000E+00  0.20203574776E+03  0.20203574776E+03  0.00000000000E+00 0. -1.
         21   -1    0    0  502  503 -0.00000000000E+00 -0.00000000000E+00 -0.50570959959E+03  0.50570959959E+03  0.00000000000E+00 0. -1.
         -6    2    1    2    0  503  0.15032969041E+03  0.19797867836E+02 -0.39536717628E+03  0.45774688205E+03  0.17385635610E+03 0.  0.
        -24    2    3    3    0    0  0.17501579281E+03  0.34623661121E+02 -0.30202841547E+03  0.35995413146E+03  0.80724762998E+02 0.  0.
          6    2    1    2  501    0 -0.15032969041E+03 -0.19797867836E+02  0.91693324454E+02  0.24999846530E+03  0.17635360930E+03 0.  0.
         24    2    5    5    0    0 -0.16454397437E+03 -0.41591737248E+02  0.40519750291E+02  0.19239774217E+03  0.81058305684E+02 0.  0.
          5    1    5    5  501    0  0.14214283956E+02  0.21793869412E+02  0.51173574163E+02  0.57600723128E+02  0.47000000000E+01 0. -1.
        -11    1    6    6    0    0 -0.98903403019E+02 -0.41576650062E+02  0.61277316384E+02  0.12355326974E+03  0.00000000000E+00 0.  1.
         12    1    6    6    0    0 -0.65640571349E+02 -0.15087185573E-01 -0.20757566093E+02  0.68844472434E+02  0.00000000000E+00 0. -1.
         -5    1    3    3    0  503 -0.24686102399E+02 -0.14825793285E+02 -0.93338760810E+02  0.97792750589E+02  0.47000000000E+01 0.  1.
         11    1    4    4    0    0  0.71091483447E+01 -0.99932002620E+01 -0.89290367153E+00  0.12296394538E+02  0.00000000000E+00 0. -1.
        -12    1    4    4    0    0  0.16790664447E+03  0.44616861383E+02 -0.30113551180E+03  0.34765773692E+03  0.00000000000E+00 0.  1.
</event>
<event>
12    1  0.1032880E+000  0.1733212E+03  0.7818608E-02  0.1175347E+00
         21   -1    0    0  501  502  0.00000000000E+00  0.00000000000E+00  0.23944045393E+03  0.23944045393E+03  0.00000000000E+00 0.  1.
         21   -1    0    0  502  503 -0.00000000000E+00 -0.00000000000E+00 -0.13098025206E+03  0.13098025206E+03  0.00000000000E+00 0.  1.
         -6    2    1    2    0  503  0.21850457878E+02  0.13355516557E+02  0.87179853814E+01  0.17354029551E+03  0.17141883959E+03 0.  0.
        -24    2    3    3    0    0  0.66388192015E+02  0.49069265474E+02  0.10560006283E+02  0.11622917386E+03  0.81132744751E+02 0.  0.
          6    2    1    2  501    0 -0.21850457878E+02 -0.13355516557E+02  0.99742216492E+02  0.19688041048E+03  0.16780218696E+03 0.  0.
         24    2    5    5    0    0  0.21136654055E+02 -0.39402944279E+02  0.12409119946E+02  0.96006627786E+02  0.84047225764E+02 0.  0.
          5    1    5    5  501    0 -0.42987111933E+02  0.26047427722E+02  0.87333096546E+02  0.10087378270E+03  0.47000000000E+01 0. -1.
        -11    1    6    6    0    0  0.24380238168E+02 -0.26552231809E+02  0.46844569852E+02  0.59108635171E+02  0.00000000000E+00 0.  1.
         12    1    6    6    0    0 -0.32435841124E+01 -0.12850712469E+02 -0.34435449905E+02  0.36897992615E+02  0.00000000000E+00 0. -1.
         -5    1    3    3    0  503 -0.44537734137E+02 -0.35713748917E+02 -0.18420209016E+01  0.57311121650E+02  0.47000000000E+01 0.  1.
         13    1    4    4    0    0  0.13522837435E+02  0.43894619744E+02  0.35012032389E+02  0.57753330525E+02  0.00000000000E+00 0. -1.
        -14    1    4    4    0    0  0.52865354580E+02  0.51746457302E+01 -0.24452026106E+02  0.58475843337E+02  0.00000000000E+00 0.  1.
</event>
<event>
12    1  0.1032880E+000  0.3699239E+03  0.7818608E-02  0.1054765E+00
         21   -1    0    0  501  502  0.00000000000E+00  0.00000000000E+00  0.27362393821E+03  0.27362393821E+03  0.00000000000E+00 0. -1.
         21   -1    0    0  502  503 -0.00000000000E+00 -0.00000000000E+00 -0.52663470493E+03  0.52663470493E+03  0.00000000000E+00 0.  1.
         -6    2    1    2    0  503 -0.19701112330E+02 -0.32663108611E+03 -0.35774124672E+02  0.37164964112E+03  0.17253309105E+03 0.  0.
        -24    2    3    3    0    0  0.44371692901E+02 -0.23449350649E+03 -0.52874009262E+02  0.25803118310E+03  0.82634005604E+02 0.  0.
          6    2    1    2  501    0  0.19701112330E+02  0.32663108611E+03 -0.21723664205E+03  0.42860900202E+03  0.17157481670E+03 0.  0.
         24    2    5    5    0    0 -0.22413320866E+00  0.24933878824E+03 -0.87620416987E+02  0.27631464717E+03  0.80638484693E+02 0.  0.
          5    1    5    5  501    0  0.19925245539E+02  0.77292297871E+02 -0.12961622506E+03  0.15229435485E+03  0.47000000000E+01 0. -1.
        -11    1    6    6    0    0 -0.38081623719E+02  0.12516228146E+03 -0.29676511554E+02  0.13415104212E+03  0.00000000000E+00 0.  1.
         12    1    6    6    0    0  0.37857490510E+02  0.12417650678E+03 -0.57943905432E+02  0.14216360505E+03  0.00000000000E+00 0. -1.
         -5    1    3    3    0  503 -0.64072805231E+02 -0.92137579624E+02  0.17099884591E+02  0.11361845802E+03  0.47000000000E+01 0.  1.
         13    1    4    4    0    0 -0.36136942766E+01 -0.15705256904E+03 -0.56263018561E+02  0.16686550118E+03  0.00000000000E+00 0. -1.
        -14    1    4    4    0    0  0.47985387178E+02 -0.77440937449E+02  0.33890092989E+01  0.91165681918E+02  0.00000000000E+00 0.  1.
</event>
<event>
12    1  0.1032880E+000  0.4493088E+03  0.7818608E-02  0.1027940E+00
         21   -1    0    0  503  502  0.00000000000E+00  0.00000000000E+00  0.21071287399E+03  0.21071287399E+03  0.00000000000E+00 0. -1.
         21   -1    0    0  501  503 -0.00000000000E+00 -0.00000000000E+00 -0.97008709836E+03  0.97008709836E+03  0.00000000000E+00 0. -1.
          6    2    1    2  501    0  0.38434115166E+03 -0.15557470434E+03 -0.44632125537E+03  0.63330960915E+03  0.17308029512E+03 0.  0.
         24    2    3    3    0    0  0.38913237164E+03 -0.12241722450E+03 -0.41559357756E+03  0.58760781004E+03  0.78453407800E+02 0.  0.
         -6    2    1    2    0  502 -0.38434115166E+03  0.15557470434E+03 -0.31305296900E+03  0.54749036319E+03  0.17269026289E+03 0.  0.
        -24    2    5    5    0    0 -0.14779380915E+03  0.10088745730E+03 -0.83557976835E+02  0.21337154950E+03  0.80772480317E+02 0.  0.
          5    1    3    3  501    0 -0.47912199803E+01 -0.33157479847E+02 -0.30727677808E+02  0.45701799114E+02  0.47000000000E+01 0. -1.
        -13    1    4    4    0    0  0.14065661376E+03 -0.78946078172E+02 -0.13538859938E+03  0.21058689203E+03  0.00000000000E+00 0.  1.
         14    1    4    4    0    0  0.24847575788E+03 -0.43471146323E+02 -0.28020497818E+03  0.37702091801E+03  0.00000000000E+00 0. -1.
         -5    1    5    5    0  502 -0.23654734251E+03  0.54687247040E+02 -0.22949499216E+03  0.33411881370E+03  0.47000000000E+01 0.  1.
         11    1    6    6    0    0 -0.32345740868E+02  0.21804339213E+02  0.15443886992E+02  0.41954616030E+02  0.00000000000E+00 0. -1.
        -12    1    6    6    0    0 -0.11544806828E+03  0.79083118090E+02 -0.99001863827E+02  0.17141693347E+03  0.00000000000E+00 0.  1.
</event>
<event>
12    1  0.1032880E+000  0.3285374E+03  0.7818608E-02  0.1071792E+00
         21   -1    0    0  503  502  0.00000000000E+00  0.00000000000E+00  0.11642051763E+04  0.11642051763E+04  0.00000000000E+00 0. -1.
         21   -1    0    0  501  503 -0.00000000000E+00 -0.00000000000E+00 -0.96559019271E+02  0.96559019271E+02  0.00000000000E+00 0. -1.
          6    2    1    2  501    0 -0.17110715889E+03 -0.22172530097E+03  0.40780120522E+03  0.52367802204E+03  0.17174713643E+03 0.  0.
         24    2    3    3    0    0 -0.78353578091E+02 -0.39464449328E+02  0.18553733207E+03  0.22160921514E+03  0.83605123542E+02 0.  0.
         -6    2    1    2    0  502  0.17110715889E+03  0.22172530097E+03  0.65984495176E+03  0.73708617348E+03  0.17164177191E+03 0.  0.
        -24    2    5    5    0    0  0.65747819041E+02  0.66809522785E+02  0.15598502923E+03  0.19950231922E+03  0.81753030463E+02 0.  0.
          5    1    3    3  501    0 -0.92753580804E+02 -0.18226085164E+03  0.22226387315E+03  0.30206880690E+03  0.47000000000E+01 0. -1.
        -13    1    4    4    0    0 -0.57139343554E+02 -0.12484092123E+02  0.17675698112E+03  0.18618213532E+03  0.00000000000E+00 0.  1.
         14    1    4    4    0    0 -0.21214234537E+02 -0.26980357206E+02  0.87803509561E+01  0.35427079824E+02  0.00000000000E+00 0. -1.
         -5    1    5    5    0  502  0.10535933985E+03  0.15491577819E+03  0.50385992253E+03  0.53758385426E+03  0.47000000000E+01 0.  1.
         13    1    6    6    0    0  0.63787263147E+02  0.68131809367E+01  0.86215629562E+02  0.10746333866E+03  0.00000000000E+00 0. -1.
        -14    1    6    6    0    0  0.19605558939E+01  0.59996341849E+02  0.69769399664E+02  0.92038980569E+02  0.00000000000E+00 0.  1.
</event>
<event>
12    1  0.1032880E+000  0.2288676E+03  0.7818608E-02  0.1127515E+00
         21   -1    0    0  501  502  0.00000000000E+00  0.00000000000E+00  0.10856257478E+03  0.10856257478E+03  0.00000000000E+00 0.  1.
         21   -1    0    0  502  503 -0.00000000000E+00 -0.00000000000E+00 -0.54143406082E+03  0.54143406082E+03  0.00000000000E+00 0.  1.
         -6    2    1    2    0  503  0.15057141475E+03 -0.68935262629E+01 -0.10820582069E+03  0.25277106338E+03  0.17165500054E+03 0.  0.
        -24    2    3    3    0    0  0.47370734318E+02 -0.56627174433E+02 -0.27096570646E+02  0.11232670912E+03  0.80202506742E+02 0.  0.
          6    2    1    2  501    0 -0.15057141475E+03  0.68935262629E+01 -0.32466566535E+03  0.39722557221E+03  0.17222395106E+03 0.  0.
         24    2    5    5    0    0 -0.90560215918E+02  0.67128030388E+02 -0.24033996722E+03  0.27738212084E+03  0.80437652551E+02 0.  0.
          5    1    5    5  501    0 -0.60011198827E+02 -0.60234504125E+02 -0.84325698130E+02  0.11984345137E+03  0.47000000000E+01 0. -1.
        -11    1    6    6    0    0  0.64491918355E-02  0.43819651729E+02 -0.94015898786E+02  0.10372632811E+03  0.00000000000E+00 0.  1.
         12    1    6    6    0    0 -0.90566665110E+02  0.23308378658E+02 -0.14632406843E+03  0.17365579273E+03  0.00000000000E+00 0. -1.
         -5    1    3    3    0  503  0.10320068043E+03  0.49733648170E+02 -0.81109250039E+02  0.14044435426E+03  0.47000000000E+01 0.  1.
         13    1    4    4    0    0  0.51259482323E+02 -0.96919238812E+01 -0.37309110429E+02  0.64136086859E+02  0.00000000000E+00 0. -1.
        -14    1    4    4    0    0 -0.38887480056E+01 -0.46935250552E+02  0.10212539783E+02  0.48190622265E+02  0.00000000000E+00 0.  1.
</event>
<event>
12    1  0.1032880E+000  0.4616080E+03  0.7818608E-02  0.1024406E+00
         21   -1    0    0  501  502  0.00000000000E+00  0.00000000000E+00  0.52934961552E+03  0.52934961552E+03  0.00000000000E+00 0. -1.
         21   -1    0    0  502  503 -0.00000000000E+00 -0.00000000000E+00 -0.44167388895E+03  0.44167388895E+03  0.00000000000E+00 0. -1.
         -6    2    1    2    0  503  0.24625320301E+02 -0.42674195242E+03  0.19030747393E+03  0.49814375553E+03  0.17092444585E+03 0.  0.
        -24    2    3    3    0    0  0.18177992432E+02 -0.11050824374E+03  0.97115450221E+02  0.16836781671E+03  0.79836080119E+02 0.  0.
          6    2    1    2  501    0 -0.24625320301E+02  0.42674195242E+03 -0.10263174736E+03  0.47287974894E+03  0.17426095673E+03 0.  0.
         24    2    5    5    0    0 -0.53123373897E+02  0.37682973068E+03 -0.12920439528E+03  0.40938514637E+03  0.77972325436E+02 0.  0.
          5    1    5    5  501    0  0.28498053597E+02  0.49912221742E+02  0.26572647923E+02  0.63494602572E+02  0.47000000000E+01 0. -1.
        -11    1    6    6    0    0 -0.73553418185E+02  0.30182091194E+03 -0.10635415023E+03  0.32835525500E+03  0.00000000000E+00 0.  1.
         12    1    6    6    0    0  0.20430044288E+02  0.75008818733E+02 -0.22850245054E+02  0.81029891376E+02  0.00000000000E+00 0. -1.
         -5    1    3    3    0  503  0.64473278688E+01 -0.31623370868E+03  0.93192023704E+02  0.32977593882E+03  0.47000000000E+01 0.  1.
         11    1    4    4    0    0 -0.13114219302E+02  0.63238994129E+01  0.20675474316E+02  0.25287342483E+02  0.00000000000E+00 0. -1.
        -12    1    4    4    0    0  0.31292211734E+02 -0.11683214315E+03  0.76439975906E+02  0.14308047422E+03  0.00000000000E+00 0.  1.
</event>
<event>
12    1  0.1032880E+000  0.2315240E+03  0.7818608E-02  0.1125855E+00
         21   -1    0    0  503  502  0.00000000000E+00  0.00000000000E+00  0.32119247438E+04  0.32119247438E+04  0.00000000000E+00 0.  1.
         21   -1    0    0  501  503 -0.00000000000E+00 -0.00000000000E+00 -0.18822339791E+02  0.18822339791E+02  0.00000000000E+00 0. -1.
          6    2    1    2  501    0  0.17952599317E+02  0.15180973824E+03  0.10429918524E+04  0.10683797883E+04  0.17388178543E+03 0.  0.
         24    2    3    3    0    0 -0.28232137922E+01  0.17912347645E+03  0.91570086697E+03  0.93646026855E+03  0.79728078149E+02 0.  0.
         -6    2    1    2    0  502 -0.17952599317E+02 -0.15180973824E+03  0.21501105516E+04  0.21623672954E+04  0.17172199454E+03 0.  0.
        -24    2    5    5    0    0 -0.56332844624E+02 -0.85781191157E+02  0.17627644266E+04  0.17675357834E+04  0.79451367602E+02 0.  0.
          5    1    3    3  501    0  0.20775813109E+02 -0.27313738207E+02  0.12729098547E+03  0.13191951974E+03  0.47000000000E+01 0. -1.
        -11    1    4    4    0    0  0.37729348143E+02  0.83300191347E+02  0.39232443809E+03  0.40284102362E+03  0.00000000000E+00 0.  1.
         12    1    4    4    0    0 -0.40552561935E+02  0.95823285103E+02  0.52337642888E+03  0.53361924492E+03  0.00000000000E+00 0. -1.
         -5    1    5    5    0  502  0.38380245307E+02 -0.66028547086E+02  0.38734612502E+03  0.39483151194E+03  0.47000000000E+01 0.  1.
         11    1    6    6    0    0 -0.35798689475E+02 -0.93709889003E+02  0.11470907564E+04  0.11514687547E+04  0.00000000000E+00 0. -1.
        -12    1    6    6    0    0 -0.20534155149E+02  0.79286978468E+01  0.61567367016E+03  0.61606702875E+03  0.00000000000E+00 0.  1.
</event>
<event>
12    1  0.1032880E+000  0.2153025E+03  0.7818608E-02  0.1137646E+00
         21   -1    0    0  503  502  0.00000000000E+00  0.00000000000E+00  0.79869129959E+03  0.79869129959E+03  0.00000000000E+00 0. -1.
         21   -1    0    0  501  503 -0.00000000000E+00 -0.00000000000E+00 -0.59409114539E+02  0.59409114539E+02  0.00000000000E+00 0. -1.
          6    2    1    2  501    0  0.12209603499E+03  0.38152570700E+02  0.29870767915E+03  0.36821387799E+03  0.17318233729E+03 0.  0.
         24    2    3    3    0    0  0.26461790896E+02 -0.30960064497E+02  0.17925729208E+03  0.20024676824E+03  0.79415612155E+02 0.  0.
         -6    2    1    2    0  502 -0.12209603499E+03 -0.38152570700E+02  0.44057450590E+03  0.48988653614E+03  0.17181345299E+03 0.  0.
        -24    2    5    5    0    0 -0.10358749619E+03  0.33905070805E+02  0.32598770602E+03  0.35318578847E+03  0.81192939985E+02 0.  0.
          5    1    3    3  501    0  0.95634244094E+02  0.69112635197E+02  0.11945038706E+03  0.16796710975E+03  0.47000000000E+01 0. -1.
        -11    1    4    4    0    0  0.49124153839E+02 -0.14464247479E+02  0.15478687778E+03  0.16303795410E+03  0.00000000000E+00 0.  1.
         12    1    4    4    0    0 -0.22662362943E+02 -0.16495817018E+02  0.24470414309E+02  0.37208814140E+02  0.00000000000E+00 0. -1.
         -5    1    5    5    0  502 -0.18508538796E+02 -0.72057641505E+02  0.11458679988E+03  0.13670074767E+03  0.47000000000E+01 0.  1.
         11    1    6    6    0    0  0.13073227044E+02 -0.25154630041E+01  0.40720796391E+02  0.42841802929E+02  0.00000000000E+00 0. -1.
        -12    1    6    6    0    0 -0.11666072324E+03  0.36420533809E+02  0.28526690963E+03  0.31034398554E+03  0.00000000000E+00 0.  1.
</event>
<event>
12    1  0.1032880E+000  0.1781992E+03  0.7818608E-02  0.1170316E+00
         21   -1    0    0  503  502  0.00000000000E+00  0.00000000000E+00  0.73774871475E+03  0.73774871475E+03  0.00000000000E+00 0. -1.
         21   -1    0    0  501  503 -0.00000000000E+00 -0.00000000000E+00 -0.50559830079E+02  0.50559830079E+02  0.00000000000E+00 0. -1.
          6    2    1    2  501    0 -0.43533825839E+00 -0.44565549291E+02  0.18184613551E+03  0.25246692694E+03  0.16936721788E+03 0.  0.
         24    2    3    3    0    0  0.14281602667E+02  0.31871240593E+02  0.13321286903E+03  0.16056232527E+03  0.82552114874E+02 0.  0.
         -6    2    1    2    0  502  0.43533825839E+00  0.44565549291E+02  0.50534274916E+03  0.53584161790E+03  0.17253598940E+03 0.  0.
        -24    2    5    5    0    0  0.52412639240E+02  0.65499532386E+02  0.39988385517E+03  0.41632785389E+03  0.79903133878E+02 0.  0.
          5    1    3    3  501    0 -0.14716940925E+02 -0.76436789884E+02  0.48633266488E+02  0.91904601665E+02  0.47000000000E+01 0. -1.
        -13    1    4    4    0    0 -0.41401012399E+01 -0.12813215104E+02 -0.48277602656E+01  0.14304761052E+02  0.00000000000E+00 0.  1.
         14    1    4    4    0    0  0.18421703907E+02  0.44684455696E+02  0.13804062929E+03  0.14625756422E+03  0.00000000000E+00 0. -1.
         -5    1    5    5    0  502 -0.51977300981E+02 -0.20933983094E+02  0.10545889399E+03  0.11951376401E+03  0.47000000000E+01 0.  1.
         11    1    6    6    0    0  0.24757410039E+02  0.68371793623E+02  0.36259329502E+03  0.36981282983E+03  0.00000000000E+00 0. -1.
        -12    1    6    6    0    0  0.27655229200E+02 -0.28722612378E+01  0.37290560152E+02  0.46515024059E+02  0.00000000000E+00 0.  1.
</event>
<event>
12    1  0.1032880E+000  0.1960143E+03  0.7818608E-02  0.1153544E+00
         21   -1    0    0  501  502  0.00000000000E+00  0.00000000000E+00  0.38470301633E+03  0.38470301633E+03  0.00000000000E+00 0. -1.
         21   -1    0    0  502  503 -0.00000000000E+00 -0.00000000000E+00 -0.13026761624E+03  0.13026761624E+03  0.00000000000E+00 0. -1.
         -6    2    1    2    0  503  0.26048168981E+02 -0.86455849551E+02  0.25302641958E+03  0.31895130106E+03  0.17191405531E+03 0.  0.
        -24    2    3    3    0    0 -0.11806269145E+02 -0.10936108933E+03  0.13039304898E+03  0.18849578343E+03  0.80181527167E+02 0.  0.
          6    2    1    2  501    0 -0.26048168981E+02  0.86455849551E+02  0.14089805037E+01  0.19601933150E+03  0.17397836667E+03 0.  0.
         24    2    5    5    0    0  0.17151972883E+02  0.11117923396E+03  0.25733465244E+02  0.14042015389E+03  0.80003725821E+02 0.  0.
          5    1    5    5  501    0 -0.43200141865E+02 -0.24723384413E+02 -0.24324484741E+02  0.55599177619E+02  0.47000000000E+01 0. -1.
        -11    1    6    6    0    0 -0.21821069951E+02  0.85548082439E+01 -0.92615209996E+01  0.25201579497E+02  0.00000000000E+00 0.  1.
         12    1    6    6    0    0  0.38973042834E+02  0.10262442572E+03  0.34994986244E+02  0.11521857439E+03  0.00000000000E+00 0. -1.
         -5    1    3    3    0  503  0.37854438126E+02  0.22905239779E+02  0.12263337060E+03  0.13045551763E+03  0.47000000000E+01 0.  1.
         13    1    4    4    0    0  0.78703116173E+01 -0.88019206978E+02  0.46782824837E+02  0.99989775986E+02  0.00000000000E+00 0. -1.
        -14    1    4    4    0    0 -0.19676580762E+02 -0.21341882351E+02  0.83610224141E+02  0.88506007444E+02  0.00000000000E+00 0.  1.
</event>
<event>
12    1  0.1032880E+000  0.2211164E+03  0.7818608E-02  0.1133428E+00
         21   -1    0    0  503  502  0.00000000000E+00  0.00000000000E+00  0.85928084844E+03  0.85928084844E+03  0.00000000000E+00 0. -1.
         21   -1    0    0  501  503 -0.00000000000E+00 -0.00000000000E+00 -0.95159123897E+02  0.95159123897E+02  0.00000000000E+00 0. -1.
          6    2    1    2  501    0 -0.10857156128E+03 -0.84637082581E+02  0.78462563934E+02  0.23462487867E+03  0.17303537234E+03 0.  0.
         24    2    3    3    0    0 -0.13211340551E+03 -0.98880034125E+02  0.91121172309E+02  0.20397507501E+03  0.77920152184E+02 0.  0.
         -6    2    1    2    0  502  0.10857156128E+03  0.84637082581E+02  0.68565916061E+03  0.71981509367E+03  0.17045252970E+03 0.  0.
        -24    2    5    5    0    0  0.70619634548E+02  0.79538786238E+02  0.66013713268E+03  0.67355706433E+03  0.81145139555E+02 0.  0.
          5    1    3    3  501    0  0.23541844229E+02  0.14242951544E+02 -0.12658608375E+02  0.30649803659E+02  0.47000000000E+01 0. -1.
        -11    1    4    4    0    0 -0.20939836665E+02 -0.41725458409E+02 -0.40558584798E+01  0.46860864557E+02  0.00000000000E+00 0.  1.
         12    1    4    4    0    0 -0.11117356885E+03 -0.57154575716E+02  0.95177030789E+02  0.15711421045E+03  0.00000000000E+00 0. -1.
         -5    1    5    5    0  502  0.37951926735E+02  0.50982963435E+01  0.25522027934E+02  0.46258029339E+02  0.47000000000E+01 0.  1.
         11    1    6    6    0    0  0.31948434703E+02  0.86287009964E+02  0.51752391588E+03  0.52563975694E+03  0.00000000000E+00 0. -1.
        -12    1    6    6    0    0  0.38671199846E+02 -0.67482237262E+01  0.14261321679E+03  0.14791730739E+03  0.00000000000E+00 0.  1.
</event>
<event>
12    1  0.1032880E+000  0.2008271E+03  0.7818608E-02  0.1149989E+00
         21   -1    0    0  503  502  0.00000000000E+00  0.00000000000E+00  0.93403928005E+03  0.93403928005E+03  0.00000000000E+00 0.  1.
         21   -1    0    0  501  503 -0.00000000000E+00 -0.00000000000E+00 -0.42249203114E+02  0.42249203114E+02  0.00000000000E+00 0.  1.
          6    2    1    2  501    0 -0.50224051203E+02  0.91761550827E+02  0.45206668394E+03  0.49287543706E+03  0.16619046962E+03 0.  0.
         24    2    3    3    0    0 -0.28785683950E+02  0.13234098479E+02  0.35826933422E+03  0.36859270625E+03  0.80622021134E+02 0.  0.
         -6    2    1    2    0  502  0.50224051203E+02 -0.91761550827E+02  0.43972339299E+03  0.48341304610E+03  0.17143183273E+03 0.  0.
        -24    2    5    5    0    0  0.47891712261E+02 -0.11683264702E+03  0.24257946037E+03  0.28461209078E+03  0.78840117404E+02 0.  0.
          5    1    3    3  501    0 -0.21438367252E+02  0.78527452349E+02  0.93797349721E+02  0.12428273081E+03  0.47000000000E+01 0. -1.
        -11    1    4    4    0    0 -0.46766510542E+02  0.49597540280E+01  0.11125352608E+03  0.12078515113E+03  0.00000000000E+00 0.  1.
         12    1    4    4    0    0  0.17980826592E+02  0.82743444505E+01  0.24701580814E+03  0.24780755512E+03  0.00000000000E+00 0. -1.
         -5    1    5    5    0  502  0.23323389418E+01  0.25071096190E+02  0.19714393262E+03  0.19880095533E+03  0.47000000000E+01 0.  1.
         11    1    6    6    0    0  0.67917155922E+02 -0.68376321926E+02  0.15341928124E+03  0.18117819219E+03  0.00000000000E+00 0. -1.
        -12    1    6    6    0    0 -0.20025443661E+02 -0.48456325092E+02  0.89160179121E+02  0.10343389858E+03  0.00000000000E+00 0.  1.
</event>
<event>
12    1  0.1032880E+000  0.2360769E+03  0.7818608E-02  0.1122717E+00
         21   -1    0    0  501  502  0.00000000000E+00  0.00000000000E+00  0.76451186588E+02  0.76451186588E+02  0.00000000000E+00 0. -1.
         21   -1    0    0  502  503 -0.00000000000E+00 -0.00000000000E+00 -0.90350140070E+03  0.90350140070E+03  0.00000000000E+00 0.  1.
         -6    2    1    2    0  503  0.10106800335E+03  0.12425109451E+03 -0.19622841475E+03  0.30698188486E+03  0.17343359273E+03 0.  0.
        -24    2    3    3    0    0 -0.12846843524E+02  0.34387449922E+02 -0.53544277952E+02  0.10343110532E+03  0.80519971098E+02 0.  0.
          6    2    1    2  501    0 -0.10106800335E+03 -0.12425109451E+03 -0.63082179936E+03  0.67297070242E+03  0.17117344416E+03 0.  0.
         24    2    5    5    0    0 -0.18592859995E+02 -0.12216406576E+02 -0.15397225575E+03  0.17621976099E+03  0.82770849888E+02 0.  0.
          5    1    5    5  501    0 -0.82475143357E+02 -0.11203468794E+03 -0.47684954361E+03  0.49675094143E+03  0.47000000000E+01 0. -1.
        -11    1    6    6    0    0 -0.40481805576E+00  0.20747540173E+02 -0.12986876985E+03  0.13151624114E+03  0.00000000000E+00 0.  1.
         12    1    6    6    0    0 -0.18188041939E+02 -0.32963946749E+02 -0.24103485900E+02  0.44703519854E+02  0.00000000000E+00 0. -1.
         -5    1    3    3    0  503  0.11391484688E+03  0.89863644591E+02 -0.14268413680E+03  0.20355077954E+03  0.47000000000E+01 0.  1.
         11    1    4    4    0    0  0.33459765287E+01  0.52244841143E+02 -0.58831790710E+02  0.78752133832E+02  0.00000000000E+00 0. -1.
        -12    1    4    4    0    0 -0.16192820053E+02 -0.17857391221E+02  0.52875127584E+01  0.24678971487E+02  0.00000000000E+00 0.  1.
</event>
<event>
12    1  0.1032880E+000  0.2890212E+03  0.7818608E-02  0.1091132E+00
         21   -1    0    0  503  502  0.00000000000E+00  0.00000000000E+00  0.11155034028E+03  0.11155034028E+03  0.00000000000E+00 0.  1.
         21   -1    0    0  501  503 -0.00000000000E+00 -0.00000000000E+00 -0.77370337797E+03  0.77370337797E+03  0.00000000000E+00 0.  1.
          6    2    1    2  501    0 -0.97764861603E+02 -0.20955857331E+03 -0.41737509417E+03  0.50650642092E+03  0.16992357513E+03 0.  0.
         24    2    3    3    0    0 -0.80153505803E+02 -0.54442177858E+02 -0.14509225920E+03  0.19260948208E+03  0.81597265187E+02 0.  0.
         -6    2    1    2    0  502  0.97764861603E+02  0.20955857331E+03 -0.24477794352E+03  0.37874729733E+03  0.17337966949E+03 0.  0.
        -24    2    5    5    0    0  0.10584560411E+03  0.88868190615E+02 -0.18374521335E+03  0.24317978269E+03  0.79203889214E+02 0.  0.
          5    1    3    3  501    0 -0.17611355800E+02 -0.15511639546E+03 -0.27228283497E+03  0.31389693884E+03  0.47000000000E+01 0. -1.
        -11    1    4    4    0    0  0.11118283468E+02 -0.81523791283E+01 -0.53569809890E+02  0.55315477440E+02  0.00000000000E+00 0.  1.
         12    1    4    4    0    0 -0.91271789272E+02 -0.46289798730E+02 -0.91522449312E+02  0.13729400464E+03  0.00000000000E+00 0. -1.
         -5    1    5    5    0  502 -0.80807425067E+01  0.12069038270E+03 -0.61032730162E+02  0.13556751464E+03  0.47000000000E+01 0.  1.
         11    1    6    6    0    0  0.66942778993E+02  0.76623923266E+01 -0.60571175751E+02  0.90603064227E+02  0.00000000000E+00 0. -1.
        -12    1    6    6    0    0  0.38902825117E+02  0.81205798289E+02 -0.12317403760E+03  0.15257671846E+03  0.00000000000E+00 0.  1.
</event>
<event>
12    1  0.1032880E+000  0.2127451E+03  0.7818608E-02  0.1139503E+00
         21   -1    0    0  503  502  0.00000000000E+00  0.00000000000E+00  0.27927285409E+02  0.27927285409E+02  0.00000000000E+00 0. -1.
         21   -1    0    0  501  503 -0.00000000000E+00 -0.00000000000E+00 -0.28683177655E+04  0.28683177655E+04  0.00000000000E+00 0. -1.
          6    2    1    2  501    0 -0.44380491132E+02 -0.11681504658E+03 -0.23775545049E+04  0.23870538100E+04  0.17217748074E+03 0.  0.
         24    2    3    3    0    0 -0.68967587233E+02 -0.14017207480E+03 -0.21173535070E+04  0.21246100534E+04  0.79857790771E+02 0.  0.
         -6    2    1    2    0  502  0.44380491132E+02  0.11681504658E+03 -0.46283597521E+03  0.50919124094E+03  0.17159020021E+03 0.  0.
        -24    2    5    5    0    0  0.11572399418E+02 -0.76814570184E+01 -0.20034846809E+03  0.21679163136E+03  0.81646662839E+02 0.  0.
          5    1    3    3  501    0  0.24587096101E+02  0.23357028221E+02 -0.26020099793E+03  0.26244375661E+03  0.47000000000E+01 0. -1.
        -13    1    4    4    0    0 -0.34923409788E+01 -0.96842106311E+02 -0.11505347363E+04  0.11546084918E+04  0.00000000000E+00 0.  1.
         14    1    4    4    0    0 -0.65475246254E+02 -0.43329968491E+02 -0.96681877070E+03  0.97000156156E+03  0.00000000000E+00 0. -1.
         -5    1    5    5    0  502  0.32808091714E+02  0.12449650360E+03 -0.26248750712E+03  0.29239960958E+03  0.47000000000E+01 0.  1.
         11    1    6    6    0    0 -0.54502540344E+01 -0.19586977132E+02 -0.19401122469E+03  0.19507360213E+03  0.00000000000E+00 0. -1.
        -12    1    6    6    0    0  0.17022653453E+02  0.11905520114E+02 -0.63372433968E+01  0.21718029230E+02  0.00000000000E+00 0.  1.
</event>
<event>
12    1  0.1032880E+000  0.1929955E+03  0.7818608E-02  0.1155798E+00
         21   -1    0    0  503  502  0.00000000000E+00  0.00000000000E+00  0.15114552532E+03  0.15114552532E+03  0.00000000000E+00 0. -1.
         21   -1    0    0  501  503 -0.00000000000E+00 -0.00000000000E+00 -0.24770678223E+03  0.24770678223E+03  0.00000000000E+00 0. -1.
          6    2    1    2  501    0 -0.86058205218E+02 -0.80602190874E+01 -0.62939627209E+02  0.20299915239E+03  0.17255804061E+03 0.  0.
         24    2    3    3    0    0  0.10409197982E+02 -0.31869680863E+02 -0.28708873996E+02  0.97800840538E+02  0.87274148537E+02 0.  0.
         -6    2    1    2    0  502  0.86058205218E+02  0.80602190874E+01 -0.33621629707E+02  0.19585315517E+03  0.17250235531E+03 0.  0.
        -24    2    5    5    0    0 -0.36024404457E+01  0.45389429090E+02 -0.35628121871E+02  0.98597732125E+02  0.79868466005E+02 0.  0.
          5    1    3    3  501    0 -0.96467403200E+02  0.23809461776E+02 -0.34230753214E+02  0.10519831185E+03  0.47000000000E+01 0. -1.
        -13    1    4    4    0    0  0.79616320644E+01  0.25496368290E+02  0.10035313373E+02  0.28533487266E+02  0.00000000000E+00 0.  1.
         14    1    4    4    0    0  0.24475659176E+01 -0.57366049153E+02 -0.38744187369E+02  0.69267353271E+02  0.00000000000E+00 0. -1.
         -5    1    5    5    0  502  0.89660645664E+02 -0.37329210002E+02  0.20064921638E+01  0.97255423042E+02  0.47000000000E+01 0.  1.
         11    1    6    6    0    0 -0.37291821092E+02  0.64944394156E+01 -0.36841538439E+01  0.38031968831E+02  0.00000000000E+00 0. -1.
        -12    1    6    6    0    0  0.33689380646E+02  0.38894989674E+02 -0.31943968027E+02  0.60565763294E+02  0.00000000000E+00 0.  1.
</event>
<event>
12    1  0.1032880E+000  0.1889373E+03  0.7818608E-02  0.1159515E+00
         21   -1    0    0  503  502  0.00000000000E+00  0.00000000000E+00  0.68417339475E+03  0.68417339475E+03  0.00000000000E+00 0.  1.
         21   -1    0    0  501  503 -0.00000000000E+00 -0.00000000000E+00 -0.25440286054E+03  0.25440286054E+03  0.00000000000E+00 0.  1.
          6    2    1    2  501    0  0.75608979475E+02 -0.54575410884E+01  0.63345314916E+03  0.66102963715E+03  0.17306295524E+03 0.  0.
         24    2    3    3    0    0  0.48885864372E+02  0.63388714348E+02  0.38200915998E+03  0.39892259516E+03  0.82463821000E+02 0.  0.
         -6    2    1    2    0  502 -0.75608979475E+02  0.54575410884E+01 -0.20368261495E+03  0.27754661814E+03  0.17262391224E+03 0.  0.
        -24    2    5    5    0    0 -0.21734670346E+02  0.59275141692E+02 -0.16113992995E+03  0.19019248048E+03  0.78874357627E+02 0.  0.
          5    1    3    3  501    0  0.26723115103E+02 -0.68846255436E+02  0.25144398918E+03  0.26210704199E+03  0.47000000000E+01 0. -1.
        -11    1    4    4    0    0  0.45438052832E+00 -0.17095310027E+02  0.10592361217E+03  0.10729523616E+03  0.00000000000E+00 0.  1.
         12    1    4    4    0    0  0.48431483843E+02  0.80484024375E+02  0.27608554781E+03  0.29162735900E+03  0.00000000000E+00 0. -1.
         -5    1    5    5    0  502 -0.53874309128E+02 -0.53817600603E+02 -0.42542685000E+02  0.87354137657E+02  0.47000000000E+01 0.  1.
         13    1    6    6    0    0 -0.18477539598E+02 -0.15267231227E+02 -0.23156874578E+02  0.33327896111E+02  0.00000000000E+00 0. -1.
        -14    1    6    6    0    0 -0.32571307478E+01  0.74542372919E+02 -0.13798305537E+03  0.15686458437E+03  0.00000000000E+00 0.  1.
</event>
<event>
12    1  0.1032880E+000  0.2796569E+03  0.7818608E-02  0.1096089E+00
         21   -1    0    0  503  502  0.00000000000E+00  0.00000000000E+00  0.38889941110E+03  0.38889941110E+03  0.00000000000E+00 0.  1.
         21   -1    0    0  501  503 -0.00000000000E+00 -0.00000000000E+00 -0.21984382107E+03  0.21984382107E+03  0.00000000000E+00 0.  1.
          6    2    1    2  501    0 -0.57227387787E+02 -0.21090697819E+03  0.17578414208E+03  0.32900536810E+03  0.17201087252E+03 0.  0.
         24    2    3    3    0    0  0.34388665412E+02 -0.12802155819E+03  0.96644889965E+02  0.18221093606E+03  0.79300004989E+02 0.  0.
         -6    2    1    2    0  502  0.57227387787E+02  0.21090697819E+03 -0.67285520421E+01  0.27973786407E+03  0.17450292783E+03 0.  0.
        -24    2    5    5    0    0  0.79561440455E+02  0.14573038353E+03  0.49947268732E+02  0.19040121392E+03  0.78679890174E+02 0.  0.
          5    1    3    3  501    0 -0.91616053199E+02 -0.82885419998E+02  0.79139252115E+02  0.14679443204E+03  0.47000000000E+01 0. -1.
        -13    1    4    4    0    0  0.98000376990E+01  0.91951736178E+01  0.16969658448E+01  0.13545170720E+02  0.00000000000E+00 0.  1.
         14    1    4    4    0    0  0.24588627713E+02 -0.13721673181E+03  0.94947924121E+02  0.16866576534E+03  0.00000000000E+00 0. -1.
         -5    1    5    5    0  502 -0.22334052668E+02  0.65176594662E+02 -0.56675820774E+02  0.89336650154E+02  0.47000000000E+01 0.  1.
         11    1    6    6    0    0 -0.62279289133E+01  0.63700610908E+02  0.79574221773E+01  0.64497096805E+02  0.00000000000E+00 0. -1.
        -12    1    6    6    0    0  0.85789369368E+02  0.82029772623E+02  0.41989846554E+02  0.12590411712E+03  0.00000000000E+00 0.  1.
</event>
<event>
12    1  0.1032880E+000  0.2055880E+03  0.7818608E-02  0.1145447E+00
         21   -1    0    0  501  502  0.00000000000E+00  0.00000000000E+00  0.16762858407E+04  0.16762858407E+04  0.00000000000E+00 0.  1.
         21   -1    0    0  502  503 -0.00000000000E+00 -0.00000000000E+00 -0.85791406324E+02  0.85791406324E+02  0.00000000000E+00 0. -1.
         -6    2    1    2    0  503  0.40414844571E+02  0.10523872299E+03  0.15377558966E+04  0.15514379204E+04  0.17192403827E+03 0.  0.
        -24    2    3    3    0    0 -0.41427695847E+01  0.13089325799E+03  0.11711818160E+04  0.11812458315E+04  0.80775372202E+02 0.  0.
          6    2    1    2  501    0 -0.40414844571E+02 -0.10523872299E+03  0.52738537795E+02  0.21063932661E+03  0.16993829489E+03 0.  0.
         24    2    5    5    0    0 -0.13052959264E+02 -0.61755505918E+02 -0.37503352003E+02  0.10669149542E+03  0.77410926409E+02 0.  0.
          5    1    5    5  501    0 -0.27361885307E+02 -0.43483217075E+02  0.90241889798E+02  0.10394783119E+03  0.47000000000E+01 0. -1.
        -13    1    6    6    0    0  0.18352505936E+02 -0.35639486052E+01  0.13601456301E+02  0.23119598121E+02  0.00000000000E+00 0.  1.
         14    1    6    6    0    0 -0.31405465199E+02 -0.58191557313E+02 -0.51104808305E+02  0.83571897302E+02  0.00000000000E+00 0. -1.
         -5    1    3    3    0  503  0.44557614156E+02 -0.25654534999E+02  0.36657408060E+03  0.37019208894E+03  0.47000000000E+01 0.  1.
         11    1    4    4    0    0 -0.24208251890E+02  0.81800339474E+02  0.94880207529E+03  0.95262936816E+03  0.00000000000E+00 0. -1.
        -12    1    4    4    0    0  0.20065482305E+02  0.49092918518E+02  0.22237974068E+03  0.22861646330E+03  0.00000000000E+00 0.  1.
</event>
<event>
12    1  0.1032880E+000  0.2070521E+03  0.7818608E-02  0.1144220E+00
         21   -1    0    0  501  502  0.00000000000E+00  0.00000000000E+00  0.87627768906E+03  0.87627768906E+03  0.00000000000E+00 0.  1.
         21   -1    0    0  502  503 -0.00000000000E+00 -0.00000000000E+00 -0.53552122577E+02  0.53552122577E+02  0.00000000000E+00 0.  1.
         -6    2    1    2    0  503  0.10443023628E+03  0.46059235883E+02  0.55442113922E+03  0.59182208979E+03  0.17275259446E+03 0.  0.
        -24    2    3    3    0    0  0.51743373276E+02  0.21204147626E+02  0.50770251350E+03  0.51699962702E+03  0.79998622312E+02 0.  0.
          6    2    1    2  501    0 -0.10443023628E+03 -0.46059235883E+02  0.26830442727E+03  0.33800772185E+03  0.17098194898E+03 0.  0.
         24    2    5    5    0    0 -0.46839913743E+02  0.38395188732E+02  0.11443245056E+03  0.15321629807E+03  0.81928506731E+02 0.  0.
          5    1    5    5  501    0 -0.57590322540E+02 -0.84454424615E+02  0.15387197670E+03  0.18479142378E+03  0.47000000000E+01 0. -1.
        -13    1    6    6    0    0 -0.69356325243E+02  0.38257099883E+02  0.92565067877E+02  0.12182855714E+03  0.00000000000E+00 0.  1.
         14    1    6    6    0    0  0.22516411500E+02  0.13808884832E+00  0.21867382686E+02  0.31387740934E+02  0.00000000000E+00 0. -1.
         -5    1    3    3    0  503  0.52686863007E+02  0.24855088257E+02  0.46718625717E+02  0.74822462768E+02  0.47000000000E+01 0.  1.
         11    1    4    4    0    0  0.23173758016E+02 -0.30195718629E+02  0.23126725372E+03  0.23437864051E+03  0.00000000000E+00 0. -1.
        -12    1    4    4    0    0  0.28569615260E+02  0.51399866255E+02  0.27643525978E+03  0.28262098651E+03  0.00000000000E+00 0.  1.
</event>
<event>
12    1  0.1032880E+000  0.1937903E+03  0.7818608E-02  0.1155346E+00
         21   -1    0    0  503  502  0.00000000000E+00  0.00000000000E+00  0.30311950241E+03  0.30311950241E+03  0.00000000000E+00 0. -1.
         21   -1    0    0  501  503 -0.00000000000E+00 -0.00000000000E+00 -0.39358144584E+03  0.39358144584E+03  0.00000000000E+00 0. -1.
          6    2    1    2  501    0  0.59725094530E+02  0.65236696855E+02 -0.33403225488E+03  0.38617642255E+03  0.17242902454E+03 0.  0.
         24    2    3    3    0    0  0.59083138558E+02  0.91359856050E+02 -0.33154076378E+03  0.35950941894E+03  0.86546540664E+02 0.  0.
         -6    2    1    2    0  502 -0.59725094530E+02 -0.65236696855E+02  0.24357031145E+03  0.31052452570E+03  0.17110251577E+03 0.  0.
        -24    2    5    5    0    0 -0.41177604175E+02  0.27598572225E+02  0.92557735386E+02  0.13222902740E+03  0.80376022743E+02 0.  0.
          5    1    3    3  501    0  0.64195597263E+00 -0.26123159195E+02 -0.24914911006E+01  0.26667003613E+02  0.47000000000E+01 0. -1.
        -11    1    4    4    0    0 -0.95649735342E+01  0.45671222355E+02 -0.61750863800E+02  0.77398439585E+02  0.00000000000E+00 0.  1.
         12    1    4    4    0    0  0.68648112092E+02  0.45688633695E+02 -0.26978989998E+03  0.28211097936E+03  0.00000000000E+00 0. -1.
         -5    1    5    5    0  502 -0.18547490355E+02 -0.92835269080E+02  0.15101257607E+03  0.17829549830E+03  0.47000000000E+01 0. -1.
         13    1    6    6    0    0 -0.63633194028E+02  0.11861145000E+02  0.50847433156E+02  0.82312402477E+02  0.00000000000E+00 0. -1.
        -14    1    6    6    0    0  0.22455589853E+02  0.15737427225E+02  0.41710302230E+02  0.49916624920E+02  0.00000000000E+00 0.  1.
</event>
<event>
12    1  0.1032880E+000  0.3386912E+03  0.7818608E-02  0.1067395E+00
         21   -1    0    0  501  502  0.00000000000E+00  0.00000000000E+00  0.11703775107E+03  0.11703775107E+03  0.00000000000E+00 0.  1.
         21   -1    0    0  502  503 -0.00000000000E+00 -0.00000000000E+00 -0.11386567925E+04  0.11386567925E+04  0.00000000000E+00 0. -1.
         -6    2    1    2    0  503 -0.62905039219E+02 -0.28492305909E+03 -0.27548623863E+03  0.43628870883E+03  0.17122200858E+03 0.  0.
        -24    2    3    3    0    0 -0.29269282290E+02 -0.12607138411E+03 -0.54676292273E+02  0.16216402699E+03  0.80975242731E+02 0.  0.
          6    2    1    2  501    0  0.62905039219E+02  0.28492305909E+03 -0.74613280277E+03  0.81940583471E+03  0.17196967474E+03 0.  0.
         24    2    5    5    0    0  0.81279853223E+02  0.23971635564E+03 -0.70922408778E+03  0.75804116190E+03  0.86932449377E+02 0.  0.
          5    1    5    5  501    0 -0.18374814005E+02  0.45206703451E+02 -0.36908714995E+02  0.61364672811E+02  0.47000000000E+01 0. -1.
        -13    1    6    6    0    0  0.48932478032E+02  0.92693450200E+02 -0.18499505032E+03  0.21262556704E+03  0.00000000000E+00 0.  1.
         14    1    6    6    0    0  0.32347375191E+02  0.14702290544E+03 -0.52422903746E+03  0.54541559486E+03  0.00000000000E+00 0. -1.
         -5    1    3    3    0  503 -0.33635756929E+02 -0.15885167498E+03 -0.22080994636E+03  0.27412468185E+03  0.47000000000E+01 0.  1.
         11    1    4    4    0    0  0.11646686049E+02 -0.49515558043E+01  0.12463368128E+02  0.17762284366E+02  0.00000000000E+00 0. -1.
        -12    1    4    4    0    0 -0.40915968339E+02 -0.12111982830E+03 -0.67139660401E+02  0.14440174262E+03  0.00000000000E+00 0.  1.
</event>
<event>
12    1  0.1032880E+000  0.2543857E+03  0.7818608E-02  0.1110646E+00
         21   -1    0    0  503  502  0.00000000000E+00  0.00000000000E+00  0.41337839347E+03  0.41337839347E+03  0.00000000000E+00 0. -1.
         21   -1    0    0  501  503 -0.00000000000E+00 -0.00000000000E+00 -0.20517218457E+03  0.20517218457E+03  0.00000000000E+00 0. -1.
          6    2    1    2  501    0 -0.18497593986E+03  0.24627004923E+02  0.25525674932E+03  0.36037212770E+03  0.17288572716E+03 0.  0.
         24    2    3    3    0    0 -0.17193609758E+03  0.17894951101E+02  0.12163070971E+03  0.22586054271E+03  0.79603418804E+02 0.  0.
         -6    2    1    2    0  502  0.18497593986E+03 -0.24627004923E+02 -0.47050540419E+02  0.25817845034E+03  0.17210395454E+03 0.  0.
        -24    2    5    5    0    0  0.65264896791E+02 -0.60626554430E+02 -0.57927133661E+02  0.13261136995E+03  0.79341897959E+02 0.  0.
          5    1    3    3  501    0 -0.13039842280E+02  0.67320538220E+01  0.13362603961E+03  0.13451158499E+03  0.47000000000E+01 0. -1.
        -11    1    4    4    0    0 -0.72388476163E+02 -0.25428221435E+02  0.25500643426E+02  0.80851522816E+02  0.00000000000E+00 0.  1.
         12    1    4    4    0    0 -0.99547621414E+02  0.43323172536E+02  0.96130066285E+02  0.14500901990E+03  0.00000000000E+00 0. -1.
         -5    1    5    5    0  502  0.11971104307E+03  0.35999549507E+02  0.10876593242E+02  0.12556708039E+03  0.47000000000E+01 0.  1.
         11    1    6    6    0    0 -0.52605337460E+01  0.11353759615E+02 -0.22588151000E+02  0.25822580008E+02  0.00000000000E+00 0. -1.
        -12    1    6    6    0    0  0.70525430537E+02 -0.71980314045E+02 -0.35338982661E+02  0.10678878995E+03  0.00000000000E+00 0.  1.
</event>
<event>
12    1  0.1032880E+000  0.3257102E+03  0.7818608E-02  0.1073120E+00
         21   -1    0    0  503  502  0.00000000000E+00  0.00000000000E+00  0.38047138591E+03  0.38047138591E+03  0.00000000000E+00 0. -1.
         21   -1    0    0  501  503 -0.00000000000E+00 -0.00000000000E+00 -0.43101118421E+03  0.43101118421E+03  0.00000000000E+00 0.  1.
          6    2    1    2  501    0 -0.19968883307E+03 -0.19073526405E+03 -0.26676161996E+03  0.42053625481E+03  0.17156167615E+03 0.  0.
         24    2    3    3    0    0 -0.35527020068E+02 -0.32597371417E+02 -0.50104382362E+02  0.10602211755E+03  0.80034258287E+02 0.  0.
         -6    2    1    2    0  502  0.19968883307E+03  0.19073526405E+03  0.21622182166E+03  0.39094631531E+03  0.17271819329E+03 0.  0.
        -24    2    5    5    0    0  0.97253006502E+02  0.25263970537E+02  0.62348598582E+02  0.14280743017E+03  0.80063717658E+02 0.  0.
          5    1    3    3  501    0 -0.16416181300E+03 -0.15813789263E+03 -0.21665723760E+03  0.31451413726E+03  0.47000000000E+01 0. -1.
        -13    1    4    4    0    0 -0.59759314680E+02 -0.34548450017E+02 -0.39157390478E+02  0.79360395152E+02  0.00000000000E+00 0.  1.
         14    1    4    4    0    0  0.24232294612E+02  0.19510786000E+01 -0.10946991884E+02  0.26661722397E+02  0.00000000000E+00 0. -1.
         -5    1    5    5    0  502  0.10243582656E+03  0.16547129351E+03  0.15387322308E+03  0.24813888515E+03  0.47000000000E+01 0.  1.
         13    1    6    6    0    0  0.92953615249E+02 -0.64906156737E+01  0.59677034024E+02  0.11065193658E+03  0.00000000000E+00 0. -1.
        -14    1    6    6    0    0  0.42993912531E+01  0.31754586210E+02  0.26715645577E+01  0.32155493585E+02  0.00000000000E+00 0.  1.
</event>
<event>
12    1  0.1032880E+000  0.2248975E+03  0.7818608E-02  0.1130348E+00
         21   -1    0    0  503  502  0.00000000000E+00  0.00000000000E+00  0.68937385643E+02  0.68937385643E+02  0.00000000000E+00 0. -1.
         21   -1    0    0  501  503 -0.00000000000E+00 -0.00000000000E+00 -0.78634325332E+03  0.78634325332E+03  0.00000000000E+00 0. -1.
          6    2    1    2  501    0 -0.10503209767E+03 -0.99384797701E+02 -0.24658033544E+03  0.33349949145E+03  0.17178757061E+03 0.  0.
         24    2    3    3    0    0 -0.74351552344E+02 -0.83349050752E+01 -0.19678454085E+03  0.22518010275E+03  0.79901809609E+02 0.  0.
         -6    2    1    2    0  502  0.10503209767E+03  0.99384797701E+02 -0.47082553223E+03  0.52178114751E+03  0.17224925122E+03 0.  0.
        -24    2    5    5    0    0 -0.87236410060E+01  0.69618104870E+02 -0.24875830263E+03  0.27045990180E+03  0.79656028757E+02 0.  0.
          5    1    3    3  501    0 -0.30680545322E+02 -0.91049892626E+02 -0.49795794592E+02  0.10831938870E+03  0.47000000000E+01 0. -1.
        -13    1    4    4    0    0 -0.61750125342E+02  0.30327276528E+02 -0.12294692370E+03  0.14088565480E+03  0.00000000000E+00 0.  1.
         14    1    4    4    0    0 -0.12601427002E+02 -0.38662181603E+02 -0.73837617153E+02  0.84294447953E+02  0.00000000000E+00 0. -1.
         -5    1    5    5    0  502  0.11375573867E+03  0.29766692831E+02 -0.22206722960E+03  0.25132124571E+03  0.47000000000E+01 0.  1.
         11    1    6    6    0    0  0.31803241513E+02  0.92405786165E+01 -0.87759320675E+02  0.93800494825E+02  0.00000000000E+00 0. -1.
        -12    1    6    6    0    0 -0.40526882519E+02  0.60377526254E+02 -0.16099898195E+03  0.17665940697E+03  0.00000000000E+00 0.  1.
</event>
<event>
12    1  0.1032880E+000  0.2257436E+03  0.7818608E-02  0.1129808E+00
         21   -1    0    0  503  502  0.00000000000E+00  0.00000000000E+00  0.21505214948E+03  0.21505214948E+03  0.00000000000E+00 0. -1.
         21   -1    0    0  501  503 -0.00000000000E+00 -0.00000000000E+00 -0.33943922403E+03  0.33943922403E+03  0.00000000000E+00 0. -1.
          6    2    1    2  501    0  0.11862552719E+03  0.84869105954E+02 -0.21518339770E+03  0.31187188408E+03  0.17229450538E+03 0.  0.
         24    2    3    3    0    0  0.36617698105E+02  0.92818316215E+02 -0.73316980517E+02  0.14774801531E+03  0.80610177745E+02 0.  0.
         -6    2    1    2    0  502 -0.11862552719E+03 -0.84869105954E+02  0.90796323156E+02  0.24261948943E+03  0.17130517654E+03 0.  0.
        -24    2    5    5    0    0 -0.14441378075E+03 -0.29631424895E+02  0.71400314647E+02  0.17847488267E+03  0.70865488097E+02 0.  0.
          5    1    3    3  501    0  0.82007829083E+02 -0.79492102608E+01 -0.14186641718E+03  0.16412386877E+03  0.47000000000E+01 0. -1.
        -13    1    4    4    0    0  0.27536707315E+02  0.79869784990E+02 -0.90900594107E+02  0.12409823050E+03  0.00000000000E+00 0.  1.
         14    1    4    4    0    0  0.90809907901E+01  0.12948531225E+02  0.17583613590E+02  0.23649784809E+02  0.00000000000E+00 0. -1.
         -5    1    5    5    0  502  0.25788253558E+02 -0.55237681059E+02  0.19396008508E+02  0.64144606760E+02  0.47000000000E+01 0.  1.
         11    1    6    6    0    0 -0.36733540800E+02 -0.26915387176E+02 -0.58638146351E+01  0.45914871323E+02  0.00000000000E+00 0. -1.
        -12    1    6    6    0    0 -0.10768023995E+03 -0.27160377192E+01  0.77264129282E+02  0.13256001135E+03  0.00000000000E+00 0.  1.
</event>
<event>
12    1  0.1032880E+000  0.2262481E+03  0.7818608E-02  0.1129489E+00
         21   -1    0    0  503  502  0.00000000000E+00  0.00000000000E+00  0.15166566971E+04  0.15166566971E+04  0.00000000000E+00 0. -1.
         21   -1    0    0  501  503 -0.00000000000E+00 -0.00000000000E+00 -0.33668763706E+02  0.33668763706E+02  0.00000000000E+00 0. -1.
          6    2    1    2  501    0 -0.14740841466E+03 -0.12261617358E+02  0.77443330077E+03  0.80652585402E+03  0.16987474176E+03 0.  0.
         24    2    3    3    0    0 -0.16973324154E+03  0.30278088007E+01  0.54613165074E+03  0.57657825596E+03  0.73240455996E+02 0.  0.
         -6    2    1    2    0  502  0.14740841466E+03  0.12261617358E+02  0.70855463259E+03  0.74379960675E+03  0.17119754573E+03 0.  0.
        -24    2    5    5    0    0  0.96339679995E+02  0.59417958362E+02  0.59174853254E+03  0.60779412463E+03  0.80221845270E+02 0.  0.
          5    1    3    3  501    0  0.22324826882E+02 -0.15289426159E+02  0.22830165004E+03  0.22994759807E+03  0.47000000000E+01 0. -1.
        -13    1    4    4    0    0 -0.10759948744E+03 -0.31143881683E+02  0.29232418300E+03  0.31305114443E+03  0.00000000000E+00 0.  1.
         14    1    4    4    0    0 -0.62133754104E+02  0.34171690484E+02  0.25380746774E+03  0.26352711153E+03  0.00000000000E+00 0. -1.
         -5    1    5    5    0  502  0.51068734667E+02 -0.47156341003E+02  0.11680610006E+03  0.13600548212E+03  0.47000000000E+01 0.  1.
         11    1    6    6    0    0  0.38980993307E+02  0.58627270285E+02  0.43938400299E+03  0.44498873777E+03  0.00000000000E+00 0. -1.
        -12    1    6    6    0    0  0.57358686688E+02  0.79068807683E+00  0.15236452955E+03  0.16280538686E+03  0.00000000000E+00 0.  1.
</event>
<event>
12    1  0.1287852E+000  0.4598196E+03  0.7818608E-02  0.1024842E+00
         21   -1    0    0  501  502  0.00000000000E+00  0.00000000000E+00  0.10588762439E+04  0.10588762439E+04  0.00000000000E+00 0.  1.
         21   -1    0    0  502  503 -0.00000000000E+00 -0.00000000000E+00 -0.41152372383E+03  0.41152372383E+03  0.00000000000E+00 0. -1.
         -6    2    1    2    0  503 -0.22513718638E+03  0.36201244268E+03  0.85125487898E+03  0.96750653757E+03  0.17232025389E+03 0.  0.
        -24    2    3    3    0    0 -0.15138699959E+03  0.17243483171E+03  0.34451124635E+03  0.42143881297E+03  0.79188884224E+02 0.  0.
          6    2    1    2  501    0  0.22513718638E+03 -0.36201244268E+03 -0.20390235894E+03  0.50289343013E+03  0.17200543229E+03 0.  0.
         24    2    5    5    0    0  0.52788845483E+02 -0.78251590481E+02 -0.47508989891E+02  0.13587143115E+03  0.85404730914E+02 0.  0.
          5    1    5    5  501    0  0.17234834090E+03 -0.28376085220E+03 -0.15639336905E+03  0.36702199898E+03  0.47000000000E+01 0. -1.
        -11    1    6    6    0    0  0.11040378331E+02 -0.24438308982E+02 -0.60824181887E+02  0.66473317969E+02  0.00000000000E+00 0.  1.
         12    1    6    6    0    0  0.41748467153E+02 -0.53813281500E+02  0.13315191997E+02  0.69398113183E+02  0.00000000000E+00 0. -1.
         -5    1    3    3    0  503 -0.73750186784E+02  0.18957761097E+03  0.50674363264E+03  0.54606772460E+03  0.47000000000E+01 0.  1.
         13    1    4    4    0    0 -0.93334980264E+02  0.13385565948E+03  0.29074693240E+03  0.33341045997E+03  0.00000000000E+00 0. -1.
        -14    1    4    4    0    0 -0.58052019331E+02  0.38579172231E+02  0.53764313952E+02  0.88028353007E+02  0.00000000000E+00 0.  1.
</event>
<event>
12    1  0.1032880E+000  0.2078582E+03  0.7818608E-02  0.1143566E+00
         21   -1    0    0  503  502  0.00000000000E+00  0.00000000000E+00  0.30007471483E+02  0.30007471483E+02  0.00000000000E+00 0.  1.
         21   -1    0    0  501  503 -0.00000000000E+00 -0.00000000000E+00 -0.18017495633E+04  0.18017495633E+04  0.00000000000E+00 0.  1.
          6    2    1    2  501    0  0.75711488134E+02  0.87811729773E+02 -0.12995580170E+04  0.13158473293E+04  0.17076306735E+03 0.  0.
         24    2    3    3    0    0  0.59504147932E+02  0.11937511455E+03 -0.12067381504E+04  0.12163659603E+04  0.74417902796E+02 0.  0.
         -6    2    1    2    0  502 -0.75711488134E+02 -0.87811729773E+02 -0.47218407484E+03  0.51590970550E+03  0.17251635974E+03 0.  0.
        -24    2    5    5    0    0 -0.10343667229E+03 -0.30367581511E+02 -0.38593586761E+03  0.40853485157E+03  0.79579493955E+02 0.  0.
          5    1    3    3  501    0  0.16207340203E+02 -0.31563384779E+02 -0.92819866622E+02  0.99481368983E+02  0.47000000000E+01 0. -1.
        -11    1    4    4    0    0  0.10048833289E+02  0.44395580192E+02 -0.71808812837E+03  0.71952936472E+03  0.00000000000E+00 0.  1.
         12    1    4    4    0    0  0.49455314643E+02  0.74979534359E+02 -0.48865002203E+03  0.49683659563E+03  0.00000000000E+00 0. -1.
         -5    1    5    5    0  502  0.27725184158E+02 -0.57444148262E+02 -0.86248207226E+02  0.10737485393E+03  0.47000000000E+01 0.  1.
         13    1    6    6    0    0 -0.63992121091E+02 -0.47042721797E+02 -0.32150840672E+03  0.33117316442E+03  0.00000000000E+00 0. -1.
        -14    1    6    6    0    0 -0.39444551202E+02  0.16675140286E+02 -0.64427460887E+02  0.77361687154E+02  0.00000000000E+00 0.  1.
</event>
<event>
12    1  0.1032880E+000  0.6290798E+03  0.7818608E-02  0.9846886E-01
         21   -1    0    0  503  502  0.00000000000E+00  0.00000000000E+00  0.91403927977E+03  0.91403927977E+03  0.00000000000E+00 0.  1.
         21   -1    0    0  501  503 -0.00000000000E+00 -0.00000000000E+00 -0.64682347837E+03  0.64682347837E+03  0.00000000000E+00 0.  1.
          6    2    1    2  501    0  0.16421277535E+03 -0.58251779527E+03 -0.31520172845E+03  0.70362879039E+03  0.17160573315E+03 0.  0.
         24    2    3    3    0    0  0.21063216292E+02 -0.15029388708E+03 -0.11243758942E+03  0.20518652779E+03  0.80170992865E+02 0.  0.
         -6    2    1    2    0  502 -0.16421277535E+03  0.58251779527E+03  0.58241752986E+03  0.85723396775E+03  0.17130989165E+03 0.  0.
        -24    2    5    5    0    0 -0.75631371227E+02  0.18568708694E+03  0.14680148304E+03  0.26132734211E+03  0.80879575559E+02 0.  0.
          5    1    3    3  501    0  0.14314955906E+03 -0.43222390819E+03 -0.20276413903E+03  0.49844226260E+03  0.47000000000E+01 0. -1.
        -11    1    4    4    0    0 -0.23689956396E+01 -0.64786942303E+02 -0.37699819240E+01  0.64939762834E+02  0.00000000000E+00 0.  1.
         12    1    4    4    0    0  0.23432211931E+02 -0.85506944781E+02 -0.10866760750E+03  0.14024676496E+03  0.00000000000E+00 0. -1.
         -5    1    5    5    0  502 -0.88581404126E+02  0.39683070833E+03  0.43561604681E+03  0.59590662563E+03  0.47000000000E+01 0.  1.
         11    1    6    6    0    0 -0.70279559898E+01  0.12212907323E+03  0.75843761881E+02  0.14393463416E+03  0.00000000000E+00 0. -1.
        -12    1    6    6    0    0 -0.68603415237E+02  0.63558013708E+02  0.70957721164E+02  0.11739270796E+03  0.00000000000E+00 0.  1.
</event>
<event>
12    1  0.1032880E+000  0.1823075E+03  0.7818608E-02  0.1166229E+00
         21   -1    0    0  503  502  0.00000000000E+00  0.00000000000E+00  0.41669742247E+02  0.41669742247E+02  0.00000000000E+00 0.  1.
         21   -1    0    0  501  503 -0.00000000000E+00 -0.00000000000E+00 -0.79712261699E+03  0.79712261699E+03  0.00000000000E+00 0.  1.
          6    2    1    2  501    0  0.32708770390E+02  0.40639324901E+02 -0.33085319352E+03  0.37775635496E+03  0.17468431431E+03 0.  0.
         24    2    3    3    0    0  0.51104958514E+02 -0.15309345424E+02 -0.29183449104E+03  0.30695224073E+03  0.78779534724E+02 0.  0.
         -6    2    1    2    0  502 -0.32708770390E+02 -0.40639324901E+02 -0.42459968122E+03  0.46103600427E+03  0.17189499571E+03 0.  0.
        -24    2    5    5    0    0 -0.64544382052E+02 -0.43750732683E+02 -0.16905749273E+03  0.20345672108E+03  0.82061547880E+02 0.  0.
          5    1    3    3  501    0 -0.18396188124E+02  0.55948670325E+02 -0.39018702481E+02  0.70804114230E+02  0.47000000000E+01 0. -1.
        -11    1    4    4    0    0 -0.13160372930E+02 -0.22641233302E+02 -0.47941753098E+02  0.54628129670E+02  0.00000000000E+00 0.  1.
         12    1    4    4    0    0  0.64265331444E+02  0.73318878781E+01 -0.24389273794E+03  0.25232411106E+03  0.00000000000E+00 0. -1.
         -5    1    5    5    0  502  0.31835611661E+02  0.31114077818E+01 -0.25554218849E+03  0.25757928319E+03  0.47000000000E+01 0.  1.
         11    1    6    6    0    0 -0.70372481875E+01 -0.12791802501E+02  0.66209379253E+01  0.16030904288E+02  0.00000000000E+00 0. -1.
        -12    1    6    6    0    0 -0.57507133864E+02 -0.30958930181E+02 -0.17567843066E+03  0.18742581679E+03  0.00000000000E+00 0.  1.
</event>
<event>
12    1  0.1032880E+000  0.2478009E+03  0.7818608E-02  0.1115187E+00
         21   -1    0    0  503  502  0.00000000000E+00  0.00000000000E+00  0.64203872733E+03  0.64203872733E+03  0.00000000000E+00 0.  1.
         21   -1    0    0  501  503 -0.00000000000E+00 -0.00000000000E+00 -0.13119301637E+03  0.13119301637E+03  0.00000000000E+00 0.  1.
          6    2    1    2  501    0 -0.21763448953E+01  0.17438993628E+03  0.49788573548E+02  0.24980173413E+03  0.17177141195E+03 0.  0.
         24    2    3    3    0    0 -0.41881451305E+02  0.10214469505E+03 -0.24893724195E+02  0.13846707667E+03  0.79786208876E+02 0.  0.
         -6    2    1    2    0  502  0.21763448953E+01 -0.17438993628E+03  0.46105713741E+03  0.52343000958E+03  0.17603608896E+03 0.  0.
        -24    2    5    5    0    0  0.60095170879E+02 -0.12937148988E+03  0.38069333993E+03  0.41451866552E+03  0.80931409475E+02 0.  0.
          5    1    3    3  501    0  0.39705106409E+02  0.72245241235E+02  0.74682297743E+02  0.11133465746E+03  0.47000000000E+01 0. -1.
        -11    1    4    4    0    0 -0.56458062603E+02  0.34383618064E+02 -0.46848866450E+01  0.66269858812E+02  0.00000000000E+00 0.  1.
         12    1    4    4    0    0  0.14576611299E+02  0.67761076982E+02 -0.20208837550E+02  0.72197217854E+02  0.00000000000E+00 0. -1.
         -5    1    5    5    0  502 -0.57918825983E+02 -0.45018446398E+02  0.80363797485E+02  0.10891134406E+03  0.47000000000E+01 0.  1.
         11    1    6    6    0    0  0.28510925958E+02 -0.25774969042E+02  0.34043046978E+02  0.51343460885E+02  0.00000000000E+00 0. -1.
        -12    1    6    6    0    0  0.31584244921E+02 -0.10359652084E+03  0.34665029295E+03  0.36317520463E+03  0.00000000000E+00 0.  1.
</event>
<event>
12    1  0.1032880E+000  0.2228622E+03  0.7818608E-02  0.1131945E+00
         21   -1    0    0  503  502  0.00000000000E+00  0.00000000000E+00  0.15409266429E+03  0.15409266429E+03  0.00000000000E+00 0. -1.
         21   -1    0    0  501  503 -0.00000000000E+00 -0.00000000000E+00 -0.35099652270E+03  0.35099652270E+03  0.00000000000E+00 0. -1.
          6    2    1    2  501    0  0.90839612310E+02 -0.10791087907E+03 -0.17217791743E+03  0.28085958627E+03  0.17129004338E+03 0.  0.
         24    2    3    3    0    0 -0.10628076580E+02 -0.45426086536E+02 -0.11293210873E+03  0.14769729042E+03  0.82971941434E+02 0.  0.
         -6    2    1    2    0  502 -0.90839612310E+02  0.10791087907E+03 -0.24725940978E+02  0.22422960072E+03  0.17254259965E+03 0.  0.
        -24    2    5    5    0    0 -0.70052493069E+02  0.11938170326E+03 -0.69138874833E+02  0.17365013030E+03  0.78834262107E+02 0.  0.
          5    1    3    3  501    0  0.10146768889E+03 -0.62484792534E+02 -0.59245808701E+02  0.13316229585E+03  0.47000000000E+01 0. -1.
        -11    1    4    4    0    0  0.27613765341E+02 -0.47711828100E+02 -0.80138586117E+02  0.97268348201E+02  0.00000000000E+00 0.  1.
         12    1    4    4    0    0 -0.38241841921E+02  0.22857415635E+01 -0.32793522616E+02  0.50428942221E+02  0.00000000000E+00 0. -1.
         -5    1    5    5    0  502 -0.20787119241E+02 -0.11470824191E+02  0.44412933855E+02  0.50579470416E+02  0.47000000000E+01 0.  1.
         11    1    6    6    0    0 -0.16923969911E+02  0.85259546962E+02 -0.68226780102E+02  0.11050115216E+03  0.00000000000E+00 0. -1.
        -12    1    6    6    0    0 -0.53128523158E+02  0.34122156299E+02 -0.91209473072E+00  0.63148978141E+02  0.00000000000E+00 0.  1.
</event>
<event>
12    1  0.1032880E+000  0.5036771E+03  0.7818608E-02  0.1012859E+00
         21   -1    0    0  503  502  0.00000000000E+00  0.00000000000E+00  0.34922242267E+03  0.34922242267E+03  0.00000000000E+00 0. -1.
         21   -1    0    0  501  503 -0.00000000000E+00 -0.00000000000E+00 -0.94604879445E+03  0.94604879445E+03  0.00000000000E+00 0. -1.
          6    2    1    2  501    0  0.45472992026E+03  0.13054494344E+03  0.14054975590E+02  0.50387315656E+03  0.17282746578E+03 0.  0.
         24    2    3    3    0    0  0.42510387630E+03  0.15727488315E+03  0.30592078379E+02  0.46042482028E+03  0.74876200139E+02 0.  0.
         -6    2    1    2    0  502 -0.45472992026E+03 -0.13054494344E+03 -0.61088134736E+03  0.79139806056E+03  0.17121211131E+03 0.  0.
        -24    2    5    5    0    0 -0.17897287068E+03 -0.11319811451E+03 -0.27595755999E+03  0.35718740176E+03  0.81149020263E+02 0.  0.
          5    1    3    3  501    0  0.29626043955E+02 -0.26729939712E+02 -0.16537102790E+02  0.43448336287E+02  0.47000000000E+01 0. -1.
        -13    1    4    4    0    0  0.15281043696E+03  0.19570140290E+02  0.36082753554E+01  0.15410074524E+03  0.00000000000E+00 0.  1.
         14    1    4    4    0    0  0.27229343935E+03  0.13770474286E+03  0.26983803024E+02  0.30632407503E+03  0.00000000000E+00 0. -1.
         -5    1    5    5    0  502 -0.27575704958E+03 -0.17346828927E+02 -0.33492378737E+03  0.43421065880E+03  0.47000000000E+01 0.  1.
         13    1    6    6    0    0 -0.67375516064E+01 -0.36326775317E+02 -0.32419823716E+02  0.49153577453E+02  0.00000000000E+00 0. -1.
        -14    1    6    6    0    0 -0.17223531908E+03 -0.76871339192E+02 -0.24353773627E+03  0.30803382430E+03  0.00000000000E+00 0.  1.
</event>
<event>
12    1  0.1032880E+000  0.2227116E+03  0.7818608E-02  0.1131968E+00
         21   -1    0    0  501  502  0.00000000000E+00  0.00000000000E+00  0.97017003864E+02  0.97017003864E+02  0.00000000000E+00 0. -1.
         21   -1    0    0  502  503 -0.00000000000E+00 -0.00000000000E+00 -0.70844897925E+03  0.70844897925E+03  0.00000000000E+00 0. -1.
         -6    2    1    2    0  503  0.32040082123E+02  0.13704423255E+03 -0.51855679686E+03  0.56416480049E+03  0.17196825872E+03 0.  0.
        -24    2    3    3    0    0 -0.24896949094E+02  0.14073402203E+03 -0.37373347474E+03  0.40843643218E+03  0.81961490664E+02 0.  0.
          6    2    1    2  501    0 -0.32040082123E+02 -0.13704423255E+03 -0.92875178527E+02  0.24130118262E+03  0.17260583249E+03 0.  0.
         24    2    5    5    0    0  0.43564598731E+02 -0.83032766380E+02 -0.80487829013E+02  0.14744574765E+03  0.80434093060E+02 0.  0.
          5    1    5    5  501    0 -0.75604680854E+02 -0.54011466172E+02 -0.12387349515E+02  0.93855434969E+02  0.47000000000E+01 0. -1.
        -13    1    6    6    0    0  0.33113642368E+02 -0.37115724208E+02 -0.86691489266E+02  0.99947509251E+02  0.00000000000E+00 0.  1.
         14    1    6    6    0    0  0.10450956363E+02 -0.45917042172E+02  0.62036602532E+01  0.47498238402E+02  0.00000000000E+00 0. -1.
         -5    1    3    3    0  503  0.56937031217E+02 -0.36897894826E+01 -0.14482332212E+03  0.15572836832E+03  0.47000000000E+01 0.  1.
         11    1    4    4    0    0  0.23071588482E+02  0.93701986884E+01 -0.57447880795E+02  0.62612760891E+02  0.00000000000E+00 0. -1.
        -12    1    4    4    0    0 -0.47968537575E+02  0.13136382335E+03 -0.31628559395E+03  0.34582367129E+03  0.00000000000E+00 0.  1.
</event>
<event>
12    1  0.1032880E+000  0.1856408E+03  0.7818608E-02  0.1163057E+00
         21   -1    0    0  501  502  0.00000000000E+00  0.00000000000E+00  0.42987720670E+02  0.42987720670E+02  0.00000000000E+00 0. -1.
         21   -1    0    0  502  503 -0.00000000000E+00 -0.00000000000E+00 -0.89306997888E+03  0.89306997888E+03  0.00000000000E+00 0. -1.
         -6    2    1    2    0  503 -0.54021756865E+02 -0.30360541882E+02 -0.26912586278E+03  0.32694222865E+03  0.17499250880E+03 0.  0.
        -24    2    3    3    0    0 -0.34286075762E+02 -0.18043330343E+02 -0.28486233830E+03  0.29846526479E+03  0.80211381629E+02 0.  0.
          6    2    1    2  501    0  0.54021756865E+02  0.30360541882E+02 -0.58095639543E+03  0.60911547091E+03  0.17225333316E+03 0.  0.
         24    2    5    5    0    0  0.88111782415E+02  0.34303627531E+02 -0.28306297834E+03  0.30921506125E+03  0.80925146486E+02 0.  0.
          5    1    5    5  501    0 -0.34090025551E+02 -0.39430856499E+01 -0.29789341709E+03  0.29990040966E+03  0.47000000000E+01 0. -1.
        -11    1    6    6    0    0  0.26274711322E+02 -0.75300309790E+01 -0.17937494632E+03  0.18144540002E+03  0.00000000000E+00 0.  1.
         12    1    6    6    0    0  0.61837071094E+02  0.41833658510E+02 -0.10368803202E+03  0.12776966123E+03  0.00000000000E+00 0. -1.
         -5    1    3    3    0  503 -0.19735681103E+02 -0.12317211539E+02  0.15736475520E+02  0.28476963856E+02  0.47000000000E+01 0.  1.
         13    1    4    4    0    0  0.14868666772E+02  0.99740119968E+00 -0.85727972068E+01  0.17192001416E+02  0.00000000000E+00 0. -1.
        -14    1    4    4    0    0 -0.49154742534E+02 -0.19040731542E+02 -0.27628954110E+03  0.28127326338E+03  0.00000000000E+00 0.  1.
</event>
<event>
12    1  0.1032880E+000  0.1861364E+03  0.7818608E-02  0.1162009E+00
         21   -1    0    0  501  502  0.00000000000E+00  0.00000000000E+00  0.29888957997E+03  0.29888957997E+03  0.00000000000E+00 0. -1.
         21   -1    0    0  502  503 -0.00000000000E+00 -0.00000000000E+00 -0.11626191424E+03  0.11626191424E+03  0.00000000000E+00 0. -1.
         -6    2    1    2    0  503 -0.72690254684E+02 -0.21468673789E+02  0.79351319004E+02  0.20234470037E+03  0.17000579066E+03 0.  0.
        -24    2    3    3    0    0  0.21220322099E+02 -0.58513462052E+01  0.62678187481E+02  0.10558117073E+03  0.82062708369E+02 0.  0.
          6    2    1    2  501    0  0.72690254684E+02  0.21468673789E+02  0.10327634673E+03  0.21280679384E+03  0.16992925183E+03 0.  0.
         24    2    5    5    0    0  0.61948012201E+02 -0.16950604742E+02  0.12822675214E+03  0.16551990911E+03  0.82642973874E+02 0.  0.
          5    1    5    5  501    0  0.10742242483E+02  0.38419278530E+02 -0.24950405417E+02  0.47286884723E+02  0.47000000000E+01 0. -1.
        -13    1    6    6    0    0  0.17236768155E+02  0.19588829864E+02  0.13571753492E+01  0.26127961206E+02  0.00000000000E+00 0.  1.
         14    1    6    6    0    0  0.44711244046E+02 -0.36539434605E+02  0.12686957679E+03  0.13939194791E+03  0.00000000000E+00 0. -1.
         -5    1    3    3    0  503 -0.93910576784E+02 -0.15617327584E+02  0.16673131523E+02  0.96763529635E+02  0.47000000000E+01 0.  1.
         13    1    4    4    0    0  0.15488347845E+02  0.37720388477E+02  0.26209539404E+02  0.48473256354E+02  0.00000000000E+00 0. -1.
        -14    1    4    4    0    0  0.57319742548E+01 -0.43571734682E+02  0.36468648078E+02  0.57107914379E+02  0.00000000000E+00 0.  1.
</event>
<event>
12    1  0.1032880E+000  0.1792069E+03  0.7818608E-02  0.1170106E+00
         21   -1    0    0  503  502  0.00000000000E+00  0.00000000000E+00  0.33708130290E+03  0.33708130290E+03  0.00000000000E+00 0. -1.
         21   -1    0    0  501  503 -0.00000000000E+00 -0.00000000000E+00 -0.92328165428E+02  0.92328165428E+02  0.00000000000E+00 0. -1.
          6    2    1    2  501    0 -0.36009221566E+02  0.42665256026E+02  0.11201505572E+03  0.21133498451E+03  0.17028832860E+03 0.  0.
         24    2    3    3    0    0  0.37778387276E+02  0.28163428512E+02  0.98938519706E+02  0.13486276724E+03  0.78605025629E+02 0.  0.
         -6    2    1    2    0  502  0.36009221566E+02 -0.42665256026E+02  0.13273808175E+03  0.21807448382E+03  0.16376841588E+03 0.  0.
        -24    2    5    5    0    0 -0.31021590477E+02 -0.55059927398E+02  0.96720288366E+02  0.14083376217E+03  0.80531979389E+02 0.  0.
          5    1    3    3  501    0 -0.73787608842E+02  0.14501827514E+02  0.13076536018E+02  0.76472217270E+02  0.47000000000E+01 0. -1.
        -11    1    4    4    0    0 -0.18831015620E+02 -0.11915955158E+02  0.24341563244E+02  0.33001649016E+02  0.00000000000E+00 0.  1.
         12    1    4    4    0    0  0.56609402896E+02  0.40079383671E+02  0.74596956462E+02  0.10186111822E+03  0.00000000000E+00 0. -1.
         -5    1    5    5    0  502  0.67030812043E+02  0.12394671372E+02  0.36017793383E+02  0.77240721655E+02  0.47000000000E+01 0.  1.
         13    1    6    6    0    0 -0.44115102286E+02  0.99304577789E+00  0.34019942098E+02  0.55717904213E+02  0.00000000000E+00 0. -1.
        -14    1    6    6    0    0  0.13093511809E+02 -0.56052973176E+02  0.62700346268E+02  0.85115857956E+02  0.00000000000E+00 0.  1.
</event>
<event>
12    1  0.1032880E+000  0.2639138E+03  0.7818608E-02  0.1104910E+00
         21   -1    0    0  503  502  0.00000000000E+00  0.00000000000E+00  0.50736632461E+03  0.50736632461E+03  0.00000000000E+00 0. -1.
         21   -1    0    0  501  503 -0.00000000000E+00 -0.00000000000E+00 -0.13700589119E+03  0.13700589119E+03  0.00000000000E+00 0.  1.
          6    2    1    2  501    0  0.11790484260E+03 -0.16205059227E+03  0.19240329306E+03  0.32660299137E+03  0.17172227704E+03 0.  0.
         24    2    3    3    0    0  0.15097758340E+02 -0.70898120385E+02  0.14725213373E+03  0.18190058333E+03  0.78422863678E+02 0.  0.
         -6    2    1    2    0  502 -0.11790484260E+03  0.16205059227E+03  0.17795714036E+03  0.31776922442E+03  0.17072372366E+03 0.  0.
        -24    2    5    5    0    0 -0.44735935495E+02  0.15822212885E+03  0.16386144856E+03  0.24300877614E+03  0.71882855933E+02 0.  0.
          5    1    3    3  501    0  0.10280708426E+03 -0.91152471882E+02  0.45151159335E+02  0.14470240804E+03  0.47000000000E+01 0. -1.
        -11    1    4    4    0    0 -0.85625794525E+01  0.13265553240E+02  0.85796038268E+01  0.17969481670E+02  0.00000000000E+00 0.  1.
         12    1    4    4    0    0  0.23660337793E+02 -0.84163673626E+02  0.13867252990E+03  0.16393110166E+03  0.00000000000E+00 0. -1.
         -5    1    5    5    0  502 -0.73168907104E+02  0.38284634194E+01  0.14095691796E+02  0.74760448274E+02  0.47000000000E+01 0.  1.
         11    1    6    6    0    0 -0.37588845976E+01  0.65931456117E+02  0.11067392313E+03  0.12887902615E+03  0.00000000000E+00 0. -1.
        -12    1    6    6    0    0 -0.40977050898E+02  0.92290672731E+02  0.53187525429E+02  0.11412975000E+03  0.00000000000E+00 0.  1.
</event>
<event>
12    1  0.1032880E+000  0.2730327E+03  0.7818608E-02  0.1099853E+00
         21   -1    0    0  503  502  0.00000000000E+00  0.00000000000E+00  0.87058333407E+02  0.87058333407E+02  0.00000000000E+00 0. -1.
         21   -1    0    0  501  503 -0.00000000000E+00 -0.00000000000E+00 -0.86440404570E+03  0.86440404570E+03  0.00000000000E+00 0. -1.
          6    2    1    2  501    0  0.19739038875E+03  0.69545963012E+02 -0.32520720742E+03  0.42328048958E+03  0.17206695952E+03 0.  0.
         24    2    3    3    0    0  0.18751671048E+03  0.44143637391E+02 -0.18011108012E+03  0.27557218302E+03  0.79930278640E+02 0.  0.
         -6    2    1    2    0  502 -0.19739038875E+03 -0.69545963012E+02 -0.45213850487E+03  0.52818188953E+03  0.17534900710E+03 0.  0.
        -24    2    5    5    0    0 -0.13592401519E+03  0.40463477785E+01 -0.17957458689E+03  0.23920589974E+03  0.80502915339E+02 0.  0.
          5    1    3    3  501    0  0.98736782771E+01  0.25402325621E+02 -0.14509612729E+03  0.14770830656E+03  0.47000000000E+01 0. -1.
        -11    1    4    4    0    0  0.35963350666E+02  0.80086153331E+01 -0.85981734524E+02  0.93543354560E+02  0.00000000000E+00 0.  1.
         12    1    4    4    0    0  0.15155335981E+03  0.36135022058E+02 -0.94129345598E+02  0.18202882846E+03  0.00000000000E+00 0. -1.
         -5    1    5    5    0  502 -0.61466373564E+02 -0.73592310790E+02 -0.27256391799E+03  0.28897598979E+03  0.47000000000E+01 0.  1.
         11    1    6    6    0    0 -0.14584756347E+03  0.85336929798E+01 -0.17319046356E+03  0.22658171231E+03  0.00000000000E+00 0. -1.
        -12    1    6    6    0    0  0.99235482822E+01 -0.44873452013E+01 -0.63841233246E+01  0.12624187423E+02  0.00000000000E+00 0.  1.
</event>
<event>
12    1  0.1032880E+000  0.1871062E+03  0.7818608E-02  0.1161112E+00
         21   -1    0    0  503  502  0.00000000000E+00  0.00000000000E+00  0.19685685216E+03  0.19685685216E+03  0.00000000000E+00 0. -1.
         21   -1    0    0  501  503 -0.00000000000E+00 -0.00000000000E+00 -0.24123377526E+03  0.24123377526E+03  0.00000000000E+00 0. -1.
          6    2    1    2  501    0  0.41846880353E+02  0.60718528559E+02  0.90156066718E+02  0.20763920704E+03  0.17189538338E+03 0.  0.
         24    2    3    3    0    0  0.78593307737E+02  0.59286360305E+02  0.10787200363E+03  0.16655033443E+03  0.80067872409E+02 0.  0.
         -6    2    1    2    0  502 -0.41846880353E+02 -0.60718528559E+02 -0.13453298981E+03  0.23045142038E+03  0.17196171290E+03 0.  0.
        -24    2    5    5    0    0 -0.22253181691E+02 -0.84982909725E+01 -0.14450315262E+03  0.17359756926E+03  0.93206919751E+02 0.  0.
          5    1    3    3  501    0 -0.36746427384E+02  0.14321682537E+01 -0.17715936916E+02  0.41088872608E+02  0.47000000000E+01 0. -1.
        -11    1    4    4    0    0  0.47627399622E+02  0.71091122874E+02  0.47987440796E+02  0.98107652201E+02  0.00000000000E+00 0.  1.
         12    1    4    4    0    0  0.30965908114E+02 -0.11804762569E+02  0.59884562838E+02  0.68442682231E+02  0.00000000000E+00 0. -1.
         -5    1    5    5    0  502 -0.19593698663E+02 -0.52220237586E+02  0.99701628147E+01  0.56853851122E+02  0.47000000000E+01 0.  1.
         11    1    6    6    0    0  0.30248920070E+02 -0.57847273927E+01 -0.10026807339E+03  0.10489111868E+03  0.00000000000E+00 0. -1.
        -12    1    6    6    0    0 -0.52502101760E+02 -0.27135635797E+01 -0.44235079237E+02  0.68706450582E+02  0.00000000000E+00 0.  1.
</event>
<event>
12    1  0.1032880E+000  0.2337232E+03  0.7818608E-02  0.1124414E+00
         21   -1    0    0  501  502  0.00000000000E+00  0.00000000000E+00  0.10606371016E+03  0.10606371016E+03  0.00000000000E+00 0. -1.
         21   -1    0    0  502  503 -0.00000000000E+00 -0.00000000000E+00 -0.55841615969E+03  0.55841615969E+03  0.00000000000E+00 0. -1.
         -6    2    1    2    0  503 -0.87589946927E+02  0.13193720302E+03 -0.12777977191E+03  0.26451242290E+03  0.16899623492E+03 0.  0.
        -24    2    3    3    0    0 -0.73245063354E+02  0.15372265705E+03 -0.69250333105E+02  0.20026161046E+03  0.79458224180E+02 0.  0.
          6    2    1    2  501    0  0.87589946927E+02 -0.13193720302E+03 -0.32457267762E+03  0.39996744695E+03  0.17189273172E+03 0.  0.
         24    2    5    5    0    0  0.11177794552E+03 -0.84220973356E+02 -0.15668186653E+03  0.22369688135E+03  0.76834926744E+02 0.  0.
          5    1    5    5  501    0 -0.24187998592E+02 -0.47716229659E+02 -0.16789081109E+03  0.17627056560E+03  0.47000000000E+01 0. -1.
        -11    1    6    6    0    0  0.11424834697E+03 -0.93127201769E+02 -0.15570198339E+03  0.21440258424E+03  0.00000000000E+00 0.  1.
         12    1    6    6    0    0 -0.24704014469E+01  0.89062284133E+01 -0.97988313660E+00  0.92942971127E+01  0.00000000000E+00 0. -1.
         -5    1    3    3    0  503 -0.14344883573E+02 -0.21785454039E+02 -0.58529438809E+02  0.64250812444E+02  0.47000000000E+01 0.  1.
         11    1    4    4    0    0 -0.28501882044E+02  0.39928407368E+01  0.12839581023E+01  0.28808828606E+02  0.00000000000E+00 0. -1.
        -12    1    4    4    0    0 -0.44743181310E+02  0.14972981632E+03 -0.70534291207E+02  0.17145278185E+03  0.00000000000E+00 0.  1.
</event>
<event>
12    1  0.1032880E+000  0.2263714E+03  0.7818608E-02  0.1129542E+00
         21   -1    0    0  501  502  0.00000000000E+00  0.00000000000E+00  0.10256096525E+03  0.10256096525E+03  0.00000000000E+00 0.  1.
         21   -1    0    0  502  503 -0.00000000000E+00 -0.00000000000E+00 -0.71698783964E+03  0.71698783964E+03  0.00000000000E+00 0.  1.
         -6    2    1    2    0  503  0.14411059821E+03 -0.21703621053E+02 -0.80412578156E+02  0.24022947731E+03  0.17321982380E+03 0.  0.
        -24    2    3    3    0    0  0.82598122521E+02 -0.53634460763E+02  0.82398600840E+01  0.12760306834E+03  0.80718910619E+02 0.  0.
          6    2    1    2  501    0 -0.14411059821E+03  0.21703621053E+02 -0.53401429623E+03  0.57931932758E+03  0.17088213202E+03 0.  0.
         24    2    5    5    0    0 -0.12151911099E+03  0.59803436493E+02 -0.27802374820E+03  0.31948241351E+03  0.80177694078E+02 0.  0.
          5    1    5    5  501    0 -0.22591487221E+02 -0.38099815440E+02 -0.25599054803E+03  0.25983691406E+03  0.47000000000E+01 0. -1.
        -13    1    6    6    0    0 -0.62523051001E+02  0.13401269408E+02 -0.55598931468E+02  0.84734686572E+02  0.00000000000E+00 0.  1.
         14    1    6    6    0    0 -0.58996059989E+02  0.46402167085E+02 -0.22242481674E+03  0.23474772694E+03  0.00000000000E+00 0. -1.
         -5    1    3    3    0  503  0.61512475690E+02  0.31930839710E+02 -0.88652438240E+02  0.11262640896E+03  0.47000000000E+01 0.  1.
         13    1    4    4    0    0  0.48938822258E+02  0.11955551518E+02 -0.10666715306E+02  0.51494876945E+02  0.00000000000E+00 0. -1.
        -14    1    4    4    0    0  0.33659300263E+02 -0.65590012281E+02  0.18906575390E+02  0.76108191400E+02  0.00000000000E+00 0.  1.
</event>
<event>
12    1  0.1032880E+000  0.2158463E+03  0.7818608E-02  0.1137096E+00
         21   -1    0    0  503  502  0.00000000000E+00  0.00000000000E+00  0.13123196097E+03  0.13123196097E+03  0.00000000000E+00 0. -1.
         21   -1    0    0  501  503 -0.00000000000E+00 -0.00000000000E+00 -0.76936908188E+03  0.76936908188E+03  0.00000000000E+00 0. -1.
          6    2    1    2  501    0 -0.12375316306E+03 -0.38968486057E+02 -0.64993452696E+03  0.68483905848E+03  0.17250002438E+03 0.  0.
         24    2    3    3    0    0 -0.68757141597E+02 -0.72854945350E+02 -0.56261563420E+03  0.57612138037E+03  0.73103389081E+02 0.  0.
         -6    2    1    2    0  502  0.12375316306E+03  0.38968486057E+02  0.11797406056E+02  0.21576198436E+03  0.17199031029E+03 0.  0.
        -24    2    5    5    0    0  0.14710099485E+02 -0.13289790606E+02  0.39454683819E+02  0.91631681025E+02  0.80291265596E+02 0.  0.
          5    1    3    3  501    0 -0.54996021461E+02  0.33886459293E+02 -0.87318892766E+02  0.10871767811E+03  0.47000000000E+01 0. -1.
        -13    1    4    4    0    0 -0.10700425016E+02  0.13481414495E+02 -0.13189237523E+03  0.13301069986E+03  0.00000000000E+00 0.  1.
         14    1    4    4    0    0 -0.58056716581E+02 -0.86336359845E+02 -0.43072325897E+03  0.44311068051E+03  0.00000000000E+00 0. -1.
         -5    1    5    5    0  502  0.10904306357E+03  0.52258276663E+02 -0.27657277762E+02  0.12413030334E+03  0.47000000000E+01 0.  1.
         11    1    6    6    0    0  0.45724246064E+01 -0.19213665472E+02 -0.21710375368E+02  0.29349828045E+02  0.00000000000E+00 0. -1.
        -12    1    6    6    0    0  0.10137674879E+02  0.59238748662E+01  0.61165059186E+02  0.62281852980E+02  0.00000000000E+00 0.  1.
</event>
<event>
12    1  0.1032880E+000  0.2050563E+03  0.7818608E-02  0.1146250E+00
         21   -1    0    0  501  502  0.00000000000E+00  0.00000000000E+00  0.16367777433E+04  0.16367777433E+04  0.00000000000E+00 0.  1.
         21   -1    0    0  502  503 -0.00000000000E+00 -0.00000000000E+00 -0.25753943299E+02  0.25753943299E+02  0.00000000000E+00 0.  1.
         -6    2    1    2    0  503 -0.46203346661E+02  0.10001657310E+03  0.68383630678E+03  0.71293980801E+03  0.16885796173E+03 0.  0.
        -24    2    3    3    0    0  0.35164883809E+02  0.46400038320E+02  0.42198778626E+03  0.43350777794E+03  0.80410006664E+02 0.  0.
          6    2    1    2  501    0  0.46203346661E+02 -0.10001657310E+03  0.92718749324E+03  0.94959187861E+03  0.17294514784E+03 0.  0.
         24    2    5    5    0    0  0.65625005280E+02 -0.79552715542E+02  0.90224644214E+03  0.91164301407E+03  0.80056647977E+02 0.  0.
          5    1    5    5  501    0 -0.19421658619E+02 -0.20463857557E+02  0.24941051103E+02  0.37948864538E+02  0.47000000000E+01 0. -1.
        -11    1    6    6    0    0  0.45461767306E+02 -0.36046032358E+02  0.21391149224E+03  0.22163983227E+03  0.00000000000E+00 0.  1.
         12    1    6    6    0    0  0.20163237974E+02 -0.43506683184E+02  0.68833494990E+03  0.69000318181E+03  0.00000000000E+00 0. -1.
         -5    1    3    3    0  503 -0.81368230470E+02  0.53616534779E+02  0.26184852052E+03  0.27943203007E+03  0.47000000000E+01 0.  1.
         13    1    4    4    0    0  0.44924814008E+02 -0.65122035352E+01  0.20150692770E+03  0.20655674673E+03  0.00000000000E+00 0. -1.
        -14    1    4    4    0    0 -0.97599301990E+01  0.52912241855E+02  0.22048085857E+03  0.22695103122E+03  0.00000000000E+00 0.  1.
</event>
<event>
12    1  0.1032880E+000  0.1881279E+03  0.7818608E-02  0.1160236E+00
         21   -1    0    0  501  502  0.00000000000E+00  0.00000000000E+00  0.24365823933E+03  0.24365823933E+03  0.00000000000E+00 0.  1.
         21   -1    0    0  502  503 -0.00000000000E+00 -0.00000000000E+00 -0.14556841443E+03  0.14556841443E+03  0.00000000000E+00 0.  1.
         -6    2    1    2    0  503  0.35096280426E+02  0.64111294954E+02  0.36848114385E+02  0.19138165906E+03  0.17299464978E+03 0.  0.
        -24    2    3    3    0    0 -0.20986516766E+02 -0.65310437107E+01 -0.20479755418E+02  0.84404115582E+02  0.78876776857E+02 0.  0.
          6    2    1    2  501    0 -0.35096280426E+02 -0.64111294954E+02  0.61241710511E+02  0.19784499469E+03  0.17334961142E+03 0.  0.
         24    2    5    5    0    0 -0.35172335869E+02 -0.11069193175E+03  0.48578398641E+02  0.14934539701E+03  0.80339217251E+02 0.  0.
          5    1    5    5  501    0  0.76055443746E-01  0.46580636791E+02  0.12663311870E+02  0.48499597687E+02  0.47000000000E+01 0. -1.
        -11    1    6    6    0    0 -0.46813745304E+02 -0.31108489617E+02  0.16628231834E+01  0.56231929156E+02  0.00000000000E+00 0.  1.
         12    1    6    6    0    0  0.11641409435E+02 -0.79583442129E+02  0.46915575458E+02  0.93113467851E+02  0.00000000000E+00 0. -1.
         -5    1    3    3    0  503  0.56082797191E+02  0.70642338665E+02  0.57327869803E+02  0.10697754348E+03  0.47000000000E+01 0.  1.
         13    1    4    4    0    0 -0.47671093986E+02  0.11154365533E+02 -0.61969556462E+01  0.49349319464E+02  0.00000000000E+00 0. -1.
        -14    1    4    4    0    0  0.26684577220E+02 -0.17685409244E+02 -0.14282799772E+02  0.35054796118E+02  0.00000000000E+00 0.  1.
</event>
<event>
12    1  0.1032880E+000  0.2755514E+03  0.7818608E-02  0.1098643E+00
         21   -1    0    0  503  502  0.00000000000E+00  0.00000000000E+00  0.17795588955E+03  0.17795588955E+03  0.00000000000E+00 0. -1.
         21   -1    0    0  501  503 -0.00000000000E+00 -0.00000000000E+00 -0.42321146800E+03  0.42321146800E+03  0.00000000000E+00 0. -1.
          6    2    1    2  501    0 -0.14217112384E+03  0.15964315284E+03 -0.14262915014E+03  0.30712528252E+03  0.16817936850E+03 0.  0.
         24    2    3    3    0    0 -0.94556869051E+02  0.11423283977E+03 -0.26652062344E+02  0.17370118917E+03  0.86438576599E+02 0.  0.
         -6    2    1    2    0  502  0.14217112384E+03 -0.15964315284E+03 -0.10262642830E+03  0.29404207503E+03  0.17386774685E+03 0.  0.
        -24    2    5    5    0    0  0.24845125458E+02 -0.45445604825E+02  0.87177710157E+01  0.95986298558E+02  0.80341687326E+02 0.  0.
          5    1    3    3  501    0 -0.47614254794E+02  0.45410313072E+02 -0.11597708780E+03  0.13342409335E+03  0.47000000000E+01 0. -1.
        -13    1    4    4    0    0 -0.33795092749E+02  0.10342598778E+03 -0.26490428790E+02  0.11198565114E+03  0.00000000000E+00 0.  1.
         14    1    4    4    0    0 -0.60761776302E+02  0.10806851988E+02 -0.16163355401E+00  0.61715538033E+02  0.00000000000E+00 0. -1.
         -5    1    5    5    0  502  0.11732599839E+03 -0.11419754802E+03 -0.11134419932E+03  0.19805577647E+03  0.47000000000E+01 0.  1.
         11    1    6    6    0    0 -0.13293520739E+02 -0.22647470989E+02 -0.27968730275E+02  0.38365029767E+02  0.00000000000E+00 0. -1.
        -12    1    6    6    0    0  0.38138646197E+02 -0.22798133836E+02  0.36686501290E+02  0.57621268791E+02  0.00000000000E+00 0.  1.
</event>
<event>
12    1  0.1032880E+000  0.3416926E+03  0.7818608E-02  0.1066211E+00
         21   -1    0    0  503  502  0.00000000000E+00  0.00000000000E+00  0.82091274027E+03  0.82091274027E+03  0.00000000000E+00 0.  1.
         21   -1    0    0  501  503 -0.00000000000E+00 -0.00000000000E+00 -0.15990415717E+03  0.15990415717E+03  0.00000000000E+00 0.  1.
          6    2    1    2  501    0  0.22435801014E+03 -0.19152600700E+03  0.49542821363E+03  0.60111875232E+03  0.16992913655E+03 0.  0.
         24    2    3    3    0    0  0.19215287476E+03 -0.16565552534E+03  0.30214479287E+03  0.40341436868E+03  0.84185489519E+02 0.  0.
         -6    2    1    2    0  502 -0.22435801014E+03  0.19152600700E+03  0.16558036947E+03  0.37969814512E+03  0.17243866905E+03 0.  0.
        -24    2    5    5    0    0 -0.16198491335E+03  0.75202468606E+02  0.15012342815E+03  0.24672229836E+03  0.80251637917E+02 0.  0.
          5    1    3    3  501    0  0.32205135379E+02 -0.25870481660E+02  0.19328342076E+03  0.19770438363E+03  0.47000000000E+01 0. -1.
        -11    1    4    4    0    0  0.93893399097E+02 -0.13420300340E+03  0.19528050446E+03  0.25487426692E+03  0.00000000000E+00 0.  1.
         12    1    4    4    0    0  0.98259475667E+02 -0.31452521943E+02  0.10686428841E+03  0.14854010176E+03  0.00000000000E+00 0. -1.
         -5    1    5    5    0  502 -0.62373096795E+02  0.11632353840E+03  0.15456941315E+02  0.13297584677E+03  0.47000000000E+01 0.  1.
         11    1    6    6    0    0 -0.63231985350E+02  0.36946468910E+02  0.14513198685E+02  0.74658947704E+02  0.00000000000E+00 0. -1.
        -12    1    6    6    0    0 -0.98752927999E+02  0.38255999696E+02  0.13561022947E+03  0.17206335065E+03  0.00000000000E+00 0.  1.
</event>
<event>
12    1  0.1032880E+000  0.1834460E+03  0.7818608E-02  0.1164800E+00
         21   -1    0    0  501  502  0.00000000000E+00  0.00000000000E+00  0.30126835641E+03  0.30126835641E+03  0.00000000000E+00 0. -1.
         21   -1    0    0  502  503 -0.00000000000E+00 -0.00000000000E+00 -0.11836130007E+03  0.11836130007E+03  0.00000000000E+00 0. -1.
         -6    2    1    2    0  503  0.56272224602E+02 -0.43625680675E+01  0.38687574802E+02  0.18628075553E+03  0.17325760062E+03 0.  0.
        -24    2    3    3    0    0 -0.12460307068E+02 -0.28157853366E+02 -0.25424480077E+02  0.89209533772E+02  0.79773509201E+02 0.  0.
          6    2    1    2  501    0 -0.56272224602E+02  0.43625680675E+01  0.14421948154E+03  0.23334890096E+03  0.17454757363E+03 0.  0.
         24    2    5    5    0    0  0.92916780951E+01 -0.36547375673E+02  0.12207461270E+03  0.15282105453E+03  0.83845200771E+02 0.  0.
          5    1    5    5  501    0 -0.65563902697E+02  0.40909943741E+02  0.22144868842E+02  0.80527846424E+02  0.47000000000E+01 0. -1.
        -13    1    6    6    0    0 -0.32676435493E+01  0.18983768328E+02  0.79308736063E+02  0.81614561018E+02  0.00000000000E+00 0.  1.
         14    1    6    6    0    0  0.12559321644E+02 -0.55531144001E+02  0.42765876637E+02  0.71206493516E+02  0.00000000000E+00 0. -1.
         -5    1    3    3    0  503  0.68732531670E+02  0.23795285298E+02  0.64112054879E+02  0.97071221755E+02  0.47000000000E+01 0.  1.
         13    1    4    4    0    0  0.42506040280E+01  0.12031426909E+02  0.21628852729E+02  0.25112350317E+02  0.00000000000E+00 0. -1.
        -14    1    4    4    0    0 -0.16710911096E+02 -0.40189280275E+02 -0.47053332806E+02  0.64097183455E+02  0.00000000000E+00 0.  1.
</event>
<event>
12    1  0.1032880E+000  0.2130320E+03  0.7818608E-02  0.1139355E+00
         21   -1    0    0  501  502  0.00000000000E+00  0.00000000000E+00  0.12127077304E+04  0.12127077304E+04  0.00000000000E+00 0.  1.
         21   -1    0    0  502  503 -0.00000000000E+00 -0.00000000000E+00 -0.46412108383E+02  0.46412108383E+02  0.00000000000E+00 0. -1.
         -6    2    1    2    0  503 -0.11257665991E+03 -0.55098884728E+02  0.30281634605E+03  0.36974979453E+03  0.17119515083E+03 0.  0.
        -24    2    3    3    0    0 -0.53067488192E+01 -0.43587438850E+02  0.78734828631E+02  0.12100501839E+03  0.80715641773E+02 0.  0.
          6    2    1    2  501    0  0.11257665991E+03  0.55098884728E+02  0.86347927593E+03  0.88937004421E+03  0.17225917720E+03 0.  0.
         24    2    5    5    0    0  0.59848319894E+02  0.54790594518E+02  0.79265973902E+03  0.80095132622E+03  0.81423181413E+02 0.  0.
          5    1    5    5  501    0  0.52728340013E+02  0.30829021042E+00  0.70819536914E+02  0.88418717996E+02  0.47000000000E+01 0. -1.
        -11    1    6    6    0    0 -0.13645123934E+02 -0.43645675810E+01  0.22925958145E+03  0.22970675773E+03  0.00000000000E+00 0.  1.
         12    1    6    6    0    0  0.73493443827E+02  0.59155162099E+02  0.56340015756E+03  0.57124456849E+03  0.00000000000E+00 0. -1.
         -5    1    3    3    0  503 -0.10726991109E+03 -0.11511445878E+02  0.22408151742E+03  0.24874477614E+03  0.47000000000E+01 0.  1.
         11    1    4    4    0    0 -0.40867819074E+02 -0.85808024412E+01  0.31657752565E+02  0.52402500931E+02  0.00000000000E+00 0. -1.
        -12    1    4    4    0    0  0.35561070255E+02 -0.35006636409E+02  0.47077076066E+02  0.68602517455E+02  0.00000000000E+00 0.  1.
</event>
<event>
12    1  0.1032880E+000  0.1807753E+03  0.7818608E-02  0.1167156E+00
         21   -1    0    0  503  502  0.00000000000E+00  0.00000000000E+00  0.43783423567E+03  0.43783423567E+03  0.00000000000E+00 0. -1.
         21   -1    0    0  501  503 -0.00000000000E+00 -0.00000000000E+00 -0.13722201368E+03  0.13722201368E+03  0.00000000000E+00 0. -1.
          6    2    1    2  501    0 -0.56511925492E+02 -0.48206936212E+01 -0.44234011065E+02  0.18569954538E+03  0.17120407883E+03 0.  0.
         24    2    3    3    0    0 -0.94748434348E+02  0.58659657064E+00 -0.62975774144E+02  0.14251837958E+03  0.85836649988E+02 0.  0.
         -6    2    1    2    0  502  0.56511925492E+02  0.48206936212E+01  0.34484623306E+03  0.38935670398E+03  0.17164755072E+03 0.  0.
        -24    2    5    5    0    0  0.65117383441E+02 -0.53892635694E+02  0.26881884920E+03  0.29279811015E+03  0.79513959864E+02 0.  0.
          5    1    3    3  501    0  0.38236508855E+02 -0.54072901918E+01  0.18741763079E+02  0.43181165802E+02  0.47000000000E+01 0. -1.
        -11    1    4    4    0    0  0.18288420548E+01  0.43949941929E+01 -0.43705197486E+02  0.43963677332E+02  0.00000000000E+00 0.  1.
         12    1    4    4    0    0 -0.96577276403E+02 -0.38083976222E+01 -0.19270576658E+02  0.98554702245E+02  0.00000000000E+00 0. -1.
         -5    1    5    5    0  502 -0.86054579489E+01  0.58713329315E+02  0.76027383853E+02  0.96558593824E+02  0.47000000000E+01 0.  1.
         13    1    6    6    0    0 -0.16762119747E+01 -0.48676653693E+02  0.12443658014E+03  0.13362892194E+03  0.00000000000E+00 0. -1.
        -14    1    6    6    0    0  0.66793595416E+02 -0.52159820008E+01  0.14438226906E+03  0.15916918821E+03  0.00000000000E+00 0.  1.
</event>
<event>
12    1  0.1032880E+000  0.2301532E+03  0.7818608E-02  0.1126789E+00
         21   -1    0    0  503  502  0.00000000000E+00  0.00000000000E+00  0.50501179547E+02  0.50501179547E+02  0.00000000000E+00 0. -1.
         21   -1    0    0  501  503 -0.00000000000E+00 -0.00000000000E+00 -0.10980352533E+04  0.10980352533E+04  0.00000000000E+00 0. -1.
          6    2    1    2  501    0 -0.71918020233E+02 -0.13500812463E+03 -0.39592055978E+03  0.45795585430E+03  0.17196243625E+03 0.  0.
         24    2    3    3    0    0  0.99328890464E+01 -0.12257041249E+03 -0.27342351873E+03  0.31003059243E+03  0.78970749937E+02 0.  0.
         -6    2    1    2    0  502  0.71918020233E+02  0.13500812463E+03 -0.65161351397E+03  0.69058057855E+03  0.17000578968E+03 0.  0.
        -24    2    5    5    0    0 -0.55958611351E+01  0.53759081124E+02 -0.45346372275E+03  0.46277531382E+03  0.74901874263E+02 0.  0.
          5    1    3    3  501    0 -0.81850909279E+02 -0.12437712137E+02 -0.12249704105E+03  0.14792526187E+03  0.47000000000E+01 0. -1.
        -11    1    4    4    0    0  0.11907474555E+02 -0.10233114844E+03 -0.13345848767E+03  0.16859602552E+03  0.00000000000E+00 0.  1.
         12    1    4    4    0    0 -0.19745855084E+01 -0.20239264053E+02 -0.13996503105E+03  0.14143456690E+03  0.00000000000E+00 0. -1.
         -5    1    5    5    0  502  0.77513881368E+02  0.81249043502E+02 -0.19814979123E+03  0.22780526473E+03  0.47000000000E+01 0.  1.
         11    1    6    6    0    0 -0.58842239693E+01  0.38416536134E+01 -0.47374925763E+00  0.70432118075E+01  0.00000000000E+00 0. -1.
        -12    1    6    6    0    0  0.28836283420E+00  0.49917427510E+02 -0.45298997349E+03  0.45573210201E+03  0.00000000000E+00 0.  1.
</event>
<event>
12    1  0.1032880E+000  0.1942586E+03  0.7818608E-02  0.1154892E+00
         21   -1    0    0  501  502  0.00000000000E+00  0.00000000000E+00  0.34671852962E+02  0.34671852962E+02  0.00000000000E+00 0.  1.
         21   -1    0    0  502  503 -0.00000000000E+00 -0.00000000000E+00 -0.14223570612E+04  0.14223570612E+04  0.00000000000E+00 0.  1.
         -6    2    1    2    0  503  0.89132730701E+02  0.11081930911E+02 -0.10484099439E+04  0.10660760884E+04  0.17113551044E+03 0.  0.
        -24    2    3    3    0    0  0.59484823479E+02  0.38049890691E+02 -0.98703295848E+03  0.99262206472E+03  0.77963221065E+02 0.  0.
          6    2    1    2  501    0 -0.89132730701E+02 -0.11081930911E+02 -0.33927526430E+03  0.39095282572E+03  0.17224678254E+03 0.  0.
         24    2    5    5    0    0 -0.13438253996E+02 -0.51938335153E+01 -0.28780897958E+03  0.29910952462E+03  0.80155701048E+02 0.  0.
          5    1    5    5  501    0 -0.75694476704E+02 -0.58880973953E+01 -0.51466284717E+02  0.91843301100E+02  0.47000000000E+01 0. -1.
        -11    1    6    6    0    0 -0.42612377572E+02 -0.21510674557E+02 -0.18127875358E+03  0.18745802288E+03  0.00000000000E+00 0.  1.
         12    1    6    6    0    0  0.29174123575E+02  0.16316841041E+02 -0.10653022601E+03  0.11165150174E+03  0.00000000000E+00 0. -1.
         -5    1    3    3    0  503  0.29647907222E+02 -0.26967959780E+02 -0.61376985453E+02  0.73454023720E+02  0.47000000000E+01 0.  1.
         11    1    4    4    0    0  0.65126464946E+02  0.16108502470E+02 -0.43672879296E+03  0.44185176121E+03  0.00000000000E+00 0. -1.
        -12    1    4    4    0    0 -0.56416414672E+01  0.21941388220E+02 -0.55030416552E+03  0.55077030351E+03  0.00000000000E+00 0.  1.
</event>
<event>
12    1  0.1032880E+000  0.2475638E+03  0.7818608E-02  0.1114917E+00
         21   -1    0    0  501  502  0.00000000000E+00  0.00000000000E+00  0.49324991423E+03  0.49324991423E+03  0.00000000000E+00 0. -1.
         21   -1    0    0  502  503 -0.00000000000E+00 -0.00000000000E+00 -0.12420365239E+03  0.12420365239E+03  0.00000000000E+00 0. -1.
         -6    2    1    2    0  503  0.10637389281E+03  0.14323258735E+03  0.17371835073E+03  0.30211119299E+03  0.17106176780E+03 0.  0.
        -24    2    3    3    0    0  0.80128862100E+02  0.14283896692E+02  0.10135957957E+03  0.15186323719E+03  0.78511236095E+02 0.  0.
          6    2    1    2  501    0 -0.10637389281E+03 -0.14323258735E+03  0.19532791111E+03  0.31534237363E+03  0.17162995250E+03 0.  0.
         24    2    5    5    0    0 -0.12352284390E+03 -0.15737718810E+03  0.19789193032E+03  0.29247710634E+03  0.79725587784E+02 0.  0.
          5    1    5    5  501    0  0.17148951089E+02  0.14144600745E+02 -0.25640192138E+01  0.22865267289E+02  0.47000000000E+01 0. -1.
        -11    1    6    6    0    0 -0.87309457814E+02 -0.48368923473E+02  0.10368291611E+03  0.14391887046E+03  0.00000000000E+00 0.  1.
         12    1    6    6    0    0 -0.36213386084E+02 -0.10900826463E+03  0.94209014210E+02  0.14855823588E+03  0.00000000000E+00 0. -1.
         -5    1    3    3    0  503  0.26245030710E+02  0.12894869066E+03  0.72358771160E+02  0.15024795581E+03  0.47000000000E+01 0.  1.
         13    1    4    4    0    0  0.43464874135E+02 -0.18089921180E+02  0.98442278905E+01  0.48097290513E+02  0.00000000000E+00 0. -1.
        -14    1    4    4    0    0  0.36663987964E+02  0.32373817872E+02  0.91515351676E+02  0.10376594667E+03  0.00000000000E+00 0.  1.
</event>
<event>
12    1  0.1032880E+000  0.2369181E+03  0.7818608E-02  0.1122283E+00
         21   -1    0    0  503  502  0.00000000000E+00  0.00000000000E+00  0.22266120907E+03  0.22266120907E+03  0.00000000000E+00 0. -1.
         21   -1    0    0  501  503 -0.00000000000E+00 -0.00000000000E+00 -0.25485358074E+03  0.25485358074E+03  0.00000000000E+00 0. -1.
          6    2    1    2  501    0  0.16244987056E+03 -0.17732221341E+02 -0.50704338871E+02  0.23987453224E+03  0.16812040066E+03 0.  0.
         24    2    3    3    0    0  0.32212267412E+02  0.23839445949E+02  0.99887806800E+01  0.90222330263E+02  0.80214361455E+02 0.  0.
         -6    2    1    2    0  502 -0.16244987056E+03  0.17732221341E+02  0.18511967199E+02  0.23764025758E+03  0.17153952015E+03 0.  0.
        -24    2    5    5    0    0 -0.72608133207E+02  0.46748268749E+02 -0.41637113967E+02  0.12559798545E+03  0.81141007215E+02 0.  0.
          5    1    3    3  501    0  0.13023760315E+03 -0.41571667290E+02 -0.60693119551E+02  0.14965220197E+03  0.47000000000E+01 0. -1.
        -11    1    4    4    0    0  0.78426029055E+01  0.19996118447E+02  0.43555960248E+02  0.48564110683E+02  0.00000000000E+00 0.  1.
         12    1    4    4    0    0  0.24369664506E+02  0.38433275022E+01 -0.33567179568E+02  0.41658219580E+02  0.00000000000E+00 0. -1.
         -5    1    5    5    0  502 -0.89841737351E+02 -0.29016047408E+02  0.60149081165E+02  0.11204227212E+03  0.47000000000E+01 0.  1.
         11    1    6    6    0    0  0.11624571316E+02 -0.88361804675E+01  0.35449800179E+01  0.15025831986E+02  0.00000000000E+00 0. -1.
        -12    1    6    6    0    0 -0.84232704523E+02  0.55584449216E+02 -0.45182093985E+02  0.11057215347E+03  0.00000000000E+00 0.  1.
</event>
<event>
12    1  0.1032880E+000  0.3216149E+03  0.7818608E-02  0.1075279E+00
         21   -1    0    0  501  502  0.00000000000E+00  0.00000000000E+00  0.35257215083E+03  0.35257215083E+03  0.00000000000E+00 0.  1.
         21   -1    0    0  502  503 -0.00000000000E+00 -0.00000000000E+00 -0.29106835765E+03  0.29106835765E+03  0.00000000000E+00 0.  1.
         -6    2    1    2    0  503  0.84180443209E+02  0.25735641720E+03  0.15718159004E+02  0.31878287918E+03  0.16750161504E+03 0.  0.
        -24    2    3    3    0    0 -0.29573556075E+01  0.20000613113E+03  0.20244130246E+02  0.21426194486E+03  0.74075351934E+02 0.  0.
          6    2    1    2  501    0 -0.84180443209E+02 -0.25735641720E+03  0.45785634183E+02  0.32485762930E+03  0.17354389223E+03 0.  0.
         24    2    5    5    0    0  0.20806391371E+02 -0.85985087303E+02  0.20164578721E+02  0.12220300531E+03  0.81857333884E+02 0.  0.
          5    1    5    5  501    0 -0.10498683458E+03 -0.17137132989E+03  0.25621055462E+02  0.20265462400E+03  0.47000000000E+01 0. -1.
        -13    1    6    6    0    0  0.48616852664E+02 -0.77063527859E+02  0.18301240054E+02  0.92937188878E+02  0.00000000000E+00 0.  1.
         14    1    6    6    0    0 -0.27810461293E+02 -0.89215594438E+01  0.18633386671E+01  0.29265816429E+02  0.00000000000E+00 0. -1.
         -5    1    3    3    0  503  0.87137798816E+02  0.57350286064E+02 -0.45259712420E+01  0.10452093431E+03  0.47000000000E+01 0.  1.
         11    1    4    4    0    0  0.32780754631E+02  0.91045044687E+02  0.23363954504E+02  0.99547237060E+02  0.00000000000E+00 0. -1.
        -12    1    4    4    0    0 -0.35738110239E+02  0.10896108644E+03 -0.31198242579E+01  0.11471470780E+03  0.00000000000E+00 0.  1.
</event>
<event>
12    1  0.1032880E+000  0.1810209E+03  0.7818608E-02  0.1166948E+00
         21   -1    0    0  501  502  0.00000000000E+00  0.00000000000E+00  0.66009687920E+02  0.66009687920E+02  0.00000000000E+00 0.  1.
         21   -1    0    0  502  503 -0.00000000000E+00 -0.00000000000E+00 -0.63969372796E+03  0.63969372796E+03  0.00000000000E+00 0.  1.
         -6    2    1    2    0  503  0.57119203187E+02 -0.13249963017E+02 -0.45435800856E+03  0.48889178524E+03  0.17069215810E+03 0.  0.
        -24    2    3    3    0    0 -0.15477323090E+02 -0.24330958091E+02 -0.35616399316E+03  0.36618400741E+03  0.80039953813E+02 0.  0.
          6    2    1    2  501    0 -0.57119203187E+02  0.13249963017E+02 -0.11932603148E+03  0.21681163064E+03  0.17126125219E+03 0.  0.
         24    2    5    5    0    0 -0.29442828789E+02 -0.29747511791E+02 -0.12155557290E+02  0.97974073122E+02  0.87746035843E+02 0.  0.
          5    1    5    5  501    0 -0.27676374398E+02  0.42997474808E+02 -0.10717047419E+03  0.11883755752E+03  0.47000000000E+01 0. -1.
        -13    1    6    6    0    0  0.25801647040E+02 -0.34632536515E+01 -0.24288442354E+02  0.35604038364E+02  0.00000000000E+00 0.  1.
         14    1    6    6    0    0 -0.55244475830E+02 -0.26284258140E+02  0.12132885064E+02  0.62370034757E+02  0.00000000000E+00 0. -1.
         -5    1    3    3    0  503  0.72596526277E+02  0.11080995074E+02 -0.98194015403E+02  0.12270777783E+03  0.47000000000E+01 0.  1.
         13    1    4    4    0    0  0.11453090235E+02 -0.18152186841E+02 -0.21494170155E+02  0.30375557833E+02  0.00000000000E+00 0. -1.
        -14    1    4    4    0    0 -0.26930413325E+02 -0.61787712499E+01 -0.33466982300E+03  0.33580844957E+03  0.00000000000E+00 0.  1.
</event>
<event>
12    1  0.1032880E+000  0.3052206E+03  0.7818608E-02  0.1083148E+00
         21   -1    0    0  503  502  0.00000000000E+00  0.00000000000E+00  0.99510843928E+02  0.99510843928E+02  0.00000000000E+00 0. -1.
         21   -1    0    0  501  503 -0.00000000000E+00 -0.00000000000E+00 -0.92564644709E+03  0.92564644709E+03  0.00000000000E+00 0. -1.
          6    2    1    2  501    0 -0.16588522677E+03  0.18422081229E+03 -0.38900466419E+03  0.49201279412E+03  0.17116291850E+03 0.  0.
         24    2    3    3    0    0 -0.17862979959E+02  0.32535390831E+02 -0.13689529892E+03  0.16261899531E+03  0.79542297298E+02 0.  0.
         -6    2    1    2    0  502  0.16588522677E+03 -0.18422081229E+03 -0.43713093897E+03  0.53314449690E+03  0.17805723974E+03 0.  0.
        -24    2    5    5    0    0  0.46448414006E+02 -0.56436941543E+02 -0.27510470169E+03  0.29467340550E+03  0.76205219500E+02 0.  0.
          5    1    3    3  501    0 -0.14802224681E+03  0.15168542146E+03 -0.25210936526E+03  0.32939379880E+03  0.47000000000E+01 0. -1.
        -11    1    4    4    0    0 -0.28547630913E+02  0.26162185659E+02 -0.17356204817E+02  0.42434243658E+02  0.00000000000E+00 0.  1.
         12    1    4    4    0    0  0.10684650954E+02  0.63732051715E+01 -0.11953909411E+03  0.12018475165E+03  0.00000000000E+00 0. -1.
         -5    1    5    5    0  502  0.11943681277E+03 -0.12778387075E+03 -0.16202623728E+03  0.23847109140E+03  0.47000000000E+01 0.  1.
         11    1    6    6    0    0 -0.10168830736E+02  0.86447114128E+01 -0.12585199135E+02  0.18344573891E+02  0.00000000000E+00 0. -1.
        -12    1    6    6    0    0  0.56617244742E+02 -0.65081652956E+02 -0.26251950256E+03  0.27632883161E+03  0.00000000000E+00 0.  1.
</event>
<event>
12    1  0.1032880E+000  0.1920738E+03  0.7818608E-02  0.1157935E+00
         21   -1    0    0  503  502  0.00000000000E+00  0.00000000000E+00  0.72445826080E+02  0.72445826080E+02  0.00000000000E+00 0.  1.
         21   -1    0    0  501  503 -0.00000000000E+00 -0.00000000000E+00 -0.52053006776E+03  0.52053006776E+03  0.00000000000E+00 0.  1.
          6    2    1    2  501    0  0.52951137020E+02  0.48744384318E+02 -0.16010977281E+03  0.25005497036E+03  0.17808006890E+03 0.  0.
         24    2    3    3    0    0 -0.65078766587E+01 -0.20270201139E+02 -0.12969330339E+03  0.15390072487E+03  0.80074007388E+02 0.  0.
         -6    2    1    2    0  502 -0.52951137020E+02 -0.48744384318E+02 -0.28797446887E+03  0.34292092348E+03  0.17171379421E+03 0.  0.
        -24    2    5    5    0    0 -0.97207580909E+02 -0.33083663648E+02 -0.25182912051E+03  0.28348636110E+03  0.80017300646E+02 0.  0.
          5    1    3    3  501    0  0.59459013679E+02  0.69014585458E+02 -0.30416469421E+02  0.96154245489E+02  0.47000000000E+01 0. -1.
        -13    1    4    4    0    0 -0.26182406953E+02  0.19298166952E+02 -0.27613663699E+02  0.42666756432E+02  0.00000000000E+00 0.  1.
         14    1    4    4    0    0  0.19674530294E+02 -0.39568368091E+02 -0.10207963969E+03  0.11123396844E+03  0.00000000000E+00 0. -1.
         -5    1    5    5    0  502  0.44256443889E+02 -0.15660720671E+02 -0.36145348357E+02  0.59434562381E+02  0.47000000000E+01 0.  1.
         13    1    6    6    0    0 -0.58393100772E+02 -0.48366330657E+01 -0.53209715237E+02  0.79148095572E+02  0.00000000000E+00 0. -1.
        -14    1    6    6    0    0 -0.38814480138E+02 -0.28247030582E+02 -0.19861940528E+03  0.20433826553E+03  0.00000000000E+00 0.  1.
</event>
<event>
12    1  0.1032880E+000  0.1780001E+03  0.7818608E-02  0.1170317E+00
         21   -1    0    0  503  502  0.00000000000E+00  0.00000000000E+00  0.97350135587E+02  0.97350135587E+02  0.00000000000E+00 0.  1.
         21   -1    0    0  501  503 -0.00000000000E+00 -0.00000000000E+00 -0.33945249027E+03  0.33945249027E+03  0.00000000000E+00 0.  1.
          6    2    1    2  501    0 -0.29117169084E+02  0.24747829868E+02 -0.17229163218E+03  0.24772656424E+03  0.17384987631E+03 0.  0.
         24    2    3    3    0    0 -0.78907409379E+02 -0.19333398394E+02 -0.11194744682E+03  0.15780585794E+03  0.75962480236E+02 0.  0.
         -6    2    1    2    0  502  0.29117169084E+02 -0.24747829868E+02 -0.69810722509E+02  0.18907606162E+03  0.17151080282E+03 0.  0.
        -24    2    5    5    0    0  0.57371779694E+02 -0.65946752947E+01  0.13260742905E+02  0.99349708705E+02  0.79746513841E+02 0.  0.
          5    1    3    3  501    0  0.49790240295E+02  0.44081228263E+02 -0.60344185358E+02  0.89920706293E+02  0.47000000000E+01 0. -1.
        -13    1    4    4    0    0 -0.28255498165E+02 -0.23966875473E+02 -0.98436526763E+02  0.10517858193E+03  0.00000000000E+00 0.  1.
         14    1    4    4    0    0 -0.50651911214E+02  0.46334770791E+01 -0.13510920057E+02  0.52627276010E+02  0.00000000000E+00 0. -1.
         -5    1    5    5    0  502 -0.28254610611E+02 -0.18153154574E+02 -0.83071465414E+02  0.89726352917E+02  0.47000000000E+01 0.  1.
         13    1    6    6    0    0  0.61539613894E+01  0.31852867095E+02 -0.48332399745E+01  0.32799948043E+02  0.00000000000E+00 0. -1.
        -14    1    6    6    0    0  0.51217818305E+02 -0.38447542390E+02  0.18093982880E+02  0.66549760662E+02  0.00000000000E+00 0.  1.
</event>
<event>
12    1  0.1032880E+000  0.2286287E+03  0.7818608E-02  0.1127653E+00
         21   -1    0    0  503  502  0.00000000000E+00  0.00000000000E+00  0.15112569715E+04  0.15112569715E+04  0.00000000000E+00 0. -1.
         21   -1    0    0  501  503 -0.00000000000E+00 -0.00000000000E+00 -0.38215864020E+02  0.38215864020E+02  0.00000000000E+00 0. -1.
          6    2    1    2  501    0 -0.70735181561E+02  0.13208170995E+03  0.97684129224E+03  0.10032397516E+04  0.17269060476E+03 0.  0.
         24    2    3    3    0    0 -0.56148994624E+02  0.15910056237E+03  0.90544552644E+03  0.92537948825E+03  0.89609694719E+02 0.  0.
         -6    2    1    2    0  502  0.70735181561E+02 -0.13208170995E+03  0.49619981526E+03  0.54623308393E+03  0.17235800330E+03 0.  0.
        -24    2    5    5    0    0 -0.16637949821E+02 -0.28544127158E+02  0.25110436726E+03  0.26614744744E+03  0.81789192148E+02 0.  0.
          5    1    3    3  501    0 -0.14586186937E+02 -0.27018852425E+02  0.71395765803E+02  0.77860263358E+02  0.47000000000E+01 0. -1.
        -13    1    4    4    0    0 -0.73374873481E+01  0.13363745703E+03  0.70032601785E+03  0.71300023837E+03  0.00000000000E+00 0.  1.
         14    1    4    4    0    0 -0.48811507276E+02  0.25463105345E+02  0.20511950859E+03  0.21237924988E+03  0.00000000000E+00 0. -1.
         -5    1    5    5    0  502  0.87373131382E+02 -0.10353758279E+03  0.24509544800E+03  0.28008563649E+03  0.47000000000E+01 0.  1.
         13    1    6    6    0    0 -0.42564409613E+02 -0.36481052335E+02  0.12252577787E+03  0.13474109391E+03  0.00000000000E+00 0. -1.
        -14    1    6    6    0    0  0.25926459792E+02  0.79369251773E+01  0.12857858939E+03  0.13140635353E+03  0.00000000000E+00 0.  1.
</event>
<event>
12    1  0.1032880E+000  0.1914818E+03  0.7818608E-02  0.1158596E+00
         21   -1    0    0  503  502  0.00000000000E+00  0.00000000000E+00  0.24664406950E+02  0.24664406950E+02  0.00000000000E+00 0.  1.
         21   -1    0    0  501  503 -0.00000000000E+00 -0.00000000000E+00 -0.14417442955E+04  0.14417442955E+04  0.00000000000E+00 0.  1.
          6    2    1    2  501    0  0.81375683339E+02  0.24673324236E+02 -0.67847594294E+03  0.70497865017E+03  0.17156490688E+03 0.  0.
         24    2    3    3    0    0  0.16085535597E+02  0.56545814245E+02 -0.53383143295E+03  0.54304414710E+03  0.80403814182E+02 0.  0.
         -6    2    1    2    0  502 -0.81375683339E+02 -0.24673324236E+02 -0.73860394565E+03  0.76143005232E+03  0.16434464179E+03 0.  0.
        -24    2    5    5    0    0 -0.80595540534E+02 -0.55478597947E+02 -0.36094337666E+03  0.38248524251E+03  0.80257856961E+02 0.  0.
          5    1    3    3  501    0  0.65290147742E+02 -0.31872490008E+02 -0.14464450999E+03  0.16193450306E+03  0.47000000000E+01 0. -1.
        -11    1    4    4    0    0  0.29225192317E+02  0.72929113581E+02 -0.42703732466E+03  0.43420461090E+03  0.00000000000E+00 0.  1.
         12    1    4    4    0    0 -0.13139656720E+02 -0.16383299336E+02 -0.10679410828E+03  0.10883953620E+03  0.00000000000E+00 0. -1.
         -5    1    5    5    0  502 -0.78014280530E+00  0.30805273710E+02 -0.37766056899E+03  0.37894480981E+03  0.47000000000E+01 0.  1.
         11    1    6    6    0    0 -0.68260142562E+02  0.12603268150E+01 -0.18393243136E+03  0.19619422721E+03  0.00000000000E+00 0. -1.
        -12    1    6    6    0    0 -0.12335397972E+02 -0.56738924762E+02 -0.17701094530E+03  0.18629101530E+03  0.00000000000E+00 0.  1.
</event>
<event>
12    1  0.1032880E+000  0.1862777E+03  0.7818608E-02  0.1162184E+00
         21   -1    0    0  503  502  0.00000000000E+00  0.00000000000E+00  0.33150968000E+02  0.33150968000E+02  0.00000000000E+00 0. -1.
         21   -1    0    0  501  503 -0.00000000000E+00 -0.00000000000E+00 -0.12001643871E+04  0.12001643871E+04  0.00000000000E+00 0. -1.
          6    2    1    2  501    0 -0.77872734167E+01  0.70962712618E+02 -0.80763748637E+03  0.82853093039E+03  0.17055452210E+03 0.  0.
         24    2    3    3    0    0 -0.63545421085E+01  0.22744716959E+02 -0.16771948014E+03  0.18678006555E+03  0.78735420953E+02 0.  0.
         -6    2    1    2    0  502  0.77872734167E+01 -0.70962712618E+02 -0.35937593276E+03  0.40478442474E+03  0.17205528547E+03 0.  0.
        -24    2    5    5    0    0 -0.55141045649E+02 -0.41672101990E+02 -0.28178034929E+03  0.30056792995E+03  0.78509975628E+02 0.  0.
          5    1    3    3  501    0 -0.14327313082E+01  0.48217995660E+02 -0.63991800623E+03  0.64175086484E+03  0.47000000000E+01 0. -1.
        -11    1    4    4    0    0 -0.30736774728E+02  0.40981910014E+02 -0.94726704048E+02  0.10769129365E+03  0.00000000000E+00 0.  1.
         12    1    4    4    0    0  0.24382232620E+02 -0.18237193055E+02 -0.72992776090E+02  0.79088771892E+02  0.00000000000E+00 0. -1.
         -5    1    5    5    0  502  0.62928319066E+02 -0.29290610629E+02 -0.77595583475E+02  0.10421649479E+03  0.47000000000E+01 0.  1.
         11    1    6    6    0    0 -0.21828336115E+02 -0.31118687817E+02 -0.36123468497E+02  0.52438096507E+02  0.00000000000E+00 0. -1.
        -12    1    6    6    0    0 -0.33312709534E+02 -0.10553414173E+02 -0.24565688079E+03  0.24812983345E+03  0.00000000000E+00 0.  1.
</event>
<event>
12    1  0.1032880E+000  0.1876175E+03  0.7818608E-02  0.1160647E+00
         21   -1    0    0  501  502  0.00000000000E+00  0.00000000000E+00  0.16077615135E+04  0.16077615135E+04  0.00000000000E+00 0.  1.
         21   -1    0    0  502  503 -0.00000000000E+00 -0.00000000000E+00 -0.22503237546E+02  0.22503237546E+02  0.00000000000E+00 0.  1.
         -6    2    1    2    0  503  0.62535693204E+02  0.42735664520E+02  0.92799093030E+03  0.94676686243E+03  0.17164869685E+03 0.  0.
        -24    2    3    3    0    0  0.45122864016E+02  0.39892600118E+02  0.92226394909E+03  0.92763108575E+03  0.79379764768E+02 0.  0.
          6    2    1    2  501    0 -0.62535693204E+02 -0.42735664520E+02  0.65726734562E+03  0.68349788858E+03  0.17155742517E+03 0.  0.
         24    2    5    5    0    0  0.18723862823E+02 -0.32200814675E+00  0.18555422959E+03  0.20293843594E+03  0.80018434962E+02 0.  0.
          5    1    5    5  501    0 -0.81259556027E+02 -0.42413656374E+02  0.47171311602E+03  0.48055945264E+03  0.47000000000E+01 0. -1.
        -11    1    6    6    0    0  0.24508827500E+02 -0.15873560073E+02  0.18396703928E+03  0.18627003000E+03  0.00000000000E+00 0.  1.
         12    1    6    6    0    0 -0.57849646773E+01  0.15551551926E+02  0.15871903181E+01  0.16668405945E+02  0.00000000000E+00 0. -1.
         -5    1    3    3    0  503  0.17412829188E+02  0.28430644024E+01  0.57269812144E+01  0.19135776686E+02  0.47000000000E+01 0.  1.
         11    1    4    4    0    0  0.33583899478E+02 -0.15859151923E+02  0.22480983605E+03  0.22785708983E+03  0.00000000000E+00 0. -1.
        -12    1    4    4    0    0  0.11538964538E+02  0.55751752041E+02  0.69745411304E+03  0.69977399591E+03  0.00000000000E+00 0.  1.
</event>
<event>
12    1  0.1032880E+000  0.2579197E+03  0.7818608E-02  0.1108435E+00
         21   -1    0    0  503  502  0.00000000000E+00  0.00000000000E+00  0.46704657689E+03  0.46704657689E+03  0.00000000000E+00 0.  1.
         21   -1    0    0  501  503 -0.00000000000E+00 -0.00000000000E+00 -0.16624239451E+03  0.16624239451E+03  0.00000000000E+00 0.  1.
          6    2    1    2  501    0  0.55519332135E+02 -0.18407056037E+03  0.30184495307E+02  0.25944733075E+03  0.17157344270E+03 0.  0.
         24    2    3    3    0    0  0.38305668093E+02 -0.83954915338E+02 -0.46966443721E+02  0.13180012160E+03  0.81545528397E+02 0.  0.
         -6    2    1    2    0  502 -0.55519332135E+02  0.18407056037E+03  0.27061968707E+03  0.37384164065E+03  0.17192495404E+03 0.  0.
        -24    2    5    5    0    0  0.44645498704E+01  0.14491582708E+03  0.11445607693E+03  0.20196865741E+03  0.81673838425E+02 0.  0.
          5    1    3    3  501    0  0.17213664042E+02 -0.10011564503E+03  0.77150939028E+02  0.12764720914E+03  0.47000000000E+01 0. -1.
        -13    1    4    4    0    0 -0.17812705228E+02 -0.39792143169E+02 -0.41481333459E+02  0.60178136819E+02  0.00000000000E+00 0.  1.
         14    1    4    4    0    0  0.56118373321E+02 -0.44162772170E+02 -0.54851102620E+01  0.71621984785E+02  0.00000000000E+00 0. -1.
         -5    1    5    5    0  502 -0.59983882006E+02  0.39154733280E+02  0.15616361014E+03  0.17187298325E+03  0.47000000000E+01 0.  1.
         11    1    6    6    0    0 -0.17436293158E+02  0.10437576952E+03  0.37495212158E+02  0.11226850189E+03  0.00000000000E+00 0. -1.
        -12    1    6    6    0    0  0.21900843028E+02  0.40540057562E+02  0.76960864773E+02  0.89700155513E+02  0.00000000000E+00 0.  1.
</event>
<event>
12    1  0.1032880E+000  0.5312995E+03  0.7818608E-02  0.1005931E+00
         21   -1    0    0  501  502  0.00000000000E+00  0.00000000000E+00  0.82221637584E+03  0.82221637584E+03  0.00000000000E+00 0.  1.
         21   -1    0    0  502  503 -0.00000000000E+00 -0.00000000000E+00 -0.35047387526E+03  0.35047387526E+03  0.00000000000E+00 0.  1.
         -6    2    1    2    0  503  0.39814722635E+03 -0.30610192930E+03  0.32044128653E+03  0.62026716969E+03  0.17271114240E+03 0.  0.
        -24    2    3    3    0    0  0.27969542426E+03 -0.14101867019E+03  0.24265834516E+03  0.40265377896E+03  0.71632377745E+02 0.  0.
          6    2    1    2  501    0 -0.39814722635E+03  0.30610192930E+03  0.15130121405E+03  0.55242308141E+03  0.17337704153E+03 0.  0.
         24    2    5    5    0    0 -0.14066806542E+03  0.12007414633E+03  0.11685151044E+03  0.23287539103E+03  0.79820843198E+02 0.  0.
          5    1    5    5  501    0 -0.25747916093E+03  0.18602778297E+03  0.34449703612E+02  0.31954769038E+03  0.47000000000E+01 0. -1.
        -11    1    6    6    0    0 -0.33700365177E+02  0.33377330859E+02 -0.66717549439E+01  0.47898571402E+02  0.00000000000E+00 0.  1.
         12    1    6    6    0    0 -0.10696770025E+03  0.86696815475E+02  0.12352326539E+03  0.18497681963E+03  0.00000000000E+00 0. -1.
         -5    1    3    3    0  503  0.11845180209E+03 -0.16508325911E+03  0.77782941369E+02  0.21761339073E+03  0.47000000000E+01 0.  1.
         11    1    4    4    0    0  0.12660582562E+03 -0.10060066294E+03  0.14053028966E+03  0.21423886383E+03  0.00000000000E+00 0. -1.
        -12    1    4    4    0    0  0.15308959864E+03 -0.40418007248E+02  0.10212805550E+03  0.18841491513E+03  0.00000000000E+00 0.  1.
</event>
<event>
12    1  0.1032880E+000  0.1789899E+03  0.7818608E-02  0.1169267E+00
         21   -1    0    0  503  502  0.00000000000E+00  0.00000000000E+00  0.12087685163E+04  0.12087685163E+04  0.00000000000E+00 0.  1.
         21   -1    0    0  501  503 -0.00000000000E+00 -0.00000000000E+00 -0.32817110207E+02  0.32817110207E+02  0.00000000000E+00 0.  1.
          6    2    1    2  501    0  0.36144941305E+02  0.14222786506E+02  0.30689880779E+03  0.35429209342E+03  0.17270571732E+03 0.  0.
         24    2    3    3    0    0 -0.34887968859E+02 -0.18923338484E+02  0.17921792638E+03  0.20439600472E+03  0.89907722138E+02 0.  0.
         -6    2    1    2    0  502 -0.36144941305E+02 -0.14222786506E+02  0.86905259829E+03  0.88729353308E+03  0.17472449974E+03 0.  0.
        -24    2    5    5    0    0  0.24070639970E+02  0.42973733955E+02  0.52798279634E+03  0.53622650531E+03  0.79667397666E+02 0.  0.
          5    1    3    3  501    0  0.71032910164E+02  0.33146124990E+02  0.12768088141E+03  0.14989608869E+03  0.47000000000E+01 0. -1.
        -13    1    4    4    0    0  0.10888798523E+01 -0.15075488096E+02  0.16472867618E+03  0.16542065396E+03  0.00000000000E+00 0.  1.
         14    1    4    4    0    0 -0.35976848711E+02 -0.38478503880E+01  0.14489250203E+02  0.38975350764E+02  0.00000000000E+00 0. -1.
         -5    1    5    5    0  502 -0.60215581275E+02 -0.57196520461E+02  0.34106980195E+03  0.35106702777E+03  0.47000000000E+01 0.  1.
         11    1    6    6    0    0 -0.68686860342E+01  0.78278906868E+01  0.39681667928E+03  0.39695331171E+03  0.00000000000E+00 0. -1.
        -12    1    6    6    0    0  0.30939326004E+02  0.35145843268E+02  0.13116611706E+03  0.13927319360E+03  0.00000000000E+00 0.  1.
</event>
<event>
12    1  0.1032880E+000  0.1865641E+03  0.7818608E-02  0.1161689E+00
         21   -1    0    0  503  502  0.00000000000E+00  0.00000000000E+00  0.98636784850E+03  0.98636784850E+03  0.00000000000E+00 0.  1.
         21   -1    0    0  501  503 -0.00000000000E+00 -0.00000000000E+00 -0.61483879724E+02  0.61483879724E+02  0.00000000000E+00 0.  1.
          6    2    1    2  501    0 -0.72733623414E+02 -0.46825476267E+00  0.80519922617E+03  0.82653008074E+03  0.17180157542E+03 0.  0.
         24    2    3    3    0    0  0.27270192115E+02  0.97211764426E+01  0.34462104468E+03  0.35508661765E+03  0.80527491898E+02 0.  0.
         -6    2    1    2    0  502  0.72733623414E+02  0.46825476267E+00  0.11968474261E+03  0.22132164748E+03  0.17137221126E+03 0.  0.
        -24    2    5    5    0    0 -0.21088997036E+02  0.18441647076E+02  0.49668095762E+02  0.10278832822E+03  0.85520059277E+02 0.  0.
          5    1    3    3  501    0 -0.10000381553E+03 -0.10189431205E+02  0.46057818149E+03  0.47144346309E+03  0.47000000000E+01 0. -1.
        -13    1    4    4    0    0  0.87583227494E+01  0.12928798719E+02  0.72918785148E+01  0.17234661180E+02  0.00000000000E+00 0.  1.
         14    1    4    4    0    0  0.18511869366E+02 -0.32076222765E+01  0.33732916616E+03  0.33785195647E+03  0.00000000000E+00 0. -1.
         -5    1    5    5    0  502  0.93822620450E+02 -0.17973392313E+02  0.70016646851E+02  0.11853331926E+03  0.47000000000E+01 0.  1.
         11    1    6    6    0    0 -0.20672330307E+02 -0.27008049400E+02 -0.18805671073E+01  0.34063418874E+02  0.00000000000E+00 0. -1.
        -12    1    6    6    0    0 -0.41666672867E+00  0.45449696476E+02  0.51548662870E+02  0.68724909346E+02  0.00000000000E+00 0.  1.
</event>
<event>
12    1  0.1032880E+000  0.1942712E+03  0.7818608E-02  0.1154809E+00
         21   -1    0    0  503  502  0.00000000000E+00  0.00000000000E+00  0.25292922210E+02  0.25292922210E+02  0.00000000000E+00 0.  1.
         21   -1    0    0  501  503 -0.00000000000E+00 -0.00000000000E+00 -0.14920979000E+04  0.14920979000E+04  0.00000000000E+00 0.  1.
          6    2    1    2  501    0 -0.46365553036E+02  0.71807716179E+02 -0.69084339821E+03  0.71763912496E+03  0.17445687205E+03 0.  0.
         24    2    3    3    0    0  0.74105041125E+00 -0.23621205940E+02 -0.22591234972E+03  0.24066042406E+03  0.79514397590E+02 0.  0.
         -6    2    1    2    0  502  0.46365553036E+02 -0.71807716179E+02 -0.77596157960E+03  0.79975169727E+03  0.17372475835E+03 0.  0.
        -24    2    5    5    0    0 -0.12115573814E+02 -0.99403131090E+02 -0.55828491500E+03  0.57262448747E+03  0.78670119701E+02 0.  0.
          5    1    3    3  501    0 -0.47106603447E+02  0.95428922119E+02 -0.46493104848E+03  0.47697870090E+03  0.47000000000E+01 0. -1.
        -11    1    4    4    0    0 -0.17956680460E+02 -0.11303807372E+02 -0.21446773129E+03  0.21551479346E+03  0.00000000000E+00 0.  1.
         12    1    4    4    0    0  0.18697730872E+02 -0.12317398568E+02 -0.11444618435E+02  0.25145630602E+02  0.00000000000E+00 0. -1.
         -5    1    5    5    0  502  0.58481126850E+02  0.27595414911E+02 -0.21767666460E+03  0.22712720981E+03  0.47000000000E+01 0.  1.
         13    1    6    6    0    0 -0.43685477193E+02 -0.61617400904E+02 -0.27956965802E+03  0.28959336784E+03  0.00000000000E+00 0. -1.
        -14    1    6    6    0    0  0.31569903378E+02 -0.37785730185E+02 -0.27871525698E+03  0.28303111963E+03  0.00000000000E+00 0.  1.
</event>
<event>
12    1  0.1032880E+000  0.2550537E+03  0.7818608E-02  0.1110292E+00
         21   -1    0    0  501  502  0.00000000000E+00  0.00000000000E+00  0.59957763745E+02  0.59957763745E+02  0.00000000000E+00 0. -1.
         21   -1    0    0  502  503 -0.00000000000E+00 -0.00000000000E+00 -0.12371625251E+04  0.12371625251E+04  0.00000000000E+00 0. -1.
         -6    2    1    2    0  503 -0.14638984978E+03 -0.11872517484E+03 -0.35917515908E+03  0.44052151937E+03  0.17183352080E+03 0.  0.
        -24    2    3    3    0    0 -0.14402312789E+03 -0.30357093218E+02 -0.22872231217E+03  0.28286824637E+03  0.77693849466E+02 0.  0.
          6    2    1    2  501    0  0.14638984978E+03  0.11872517484E+03 -0.81802960230E+03  0.85659876950E+03  0.17047981231E+03 0.  0.
         24    2    5    5    0    0  0.95186429884E+02  0.11266717317E+03 -0.39289731841E+03  0.42832544743E+03  0.85674020296E+02 0.  0.
          5    1    5    5  501    0  0.51203419901E+02  0.60580016665E+01 -0.42513228389E+03  0.42827332207E+03  0.47000000000E+01 0. -1.
        -13    1    6    6    0    0  0.72035048437E+02  0.92471090242E+02 -0.37472568612E+03  0.39263123993E+03  0.00000000000E+00 0.  1.
         14    1    6    6    0    0  0.23151381447E+02  0.20196082929E+02 -0.18171632298E+02  0.35694207499E+02  0.00000000000E+00 0. -1.
         -5    1    3    3    0  503 -0.23667218974E+01 -0.88368081620E+02 -0.13045284691E+03  0.15765327300E+03  0.47000000000E+01 0.  1.
         11    1    4    4    0    0 -0.39004769586E+02  0.24086452792E+02 -0.44169834662E+02  0.63659277035E+02  0.00000000000E+00 0. -1.
        -12    1    4    4    0    0 -0.10501835830E+03 -0.54443546009E+02 -0.18455247751E+03  0.21920896934E+03  0.00000000000E+00 0.  1.
</event>
<event>
12    1  0.1372407E+000  0.2217825E+03  0.7818608E-02  0.1134276E+00
         21   -1    0    0  501  502  0.00000000000E+00  0.00000000000E+00  0.61983929552E+03  0.61983929552E+03  0.00000000000E+00 0.  1.
         21   -1    0    0  502  503 -0.00000000000E+00 -0.00000000000E+00 -0.34206066625E+03  0.34206066625E+03  0.00000000000E+00 0.  1.
         -6    2    1    2    0  503 -0.70941703234E+02 -0.11966416794E+03  0.56228304755E+03  0.60116426251E+03  0.16088507267E+03 0.  0.
        -24    2    3    3    0    0 -0.11330892060E+03 -0.79430220910E+02  0.41159860102E+03  0.43948048464E+03  0.67687639446E+02 0.  0.
          6    2    1    2  501    0  0.70941703234E+02  0.11966416794E+03 -0.28450441829E+03  0.36073569926E+03  0.17272881157E+03 0.  0.
         24    2    5    5    0    0  0.14742722548E+01 -0.21889913430E+01 -0.12553778720E+03  0.14868288462E+03  0.79623482737E+02 0.  0.
          5    1    5    5  501    0  0.69467430979E+02  0.12185315929E+03 -0.15896663109E+03  0.21205281464E+03  0.47000000000E+01 0. -1.
        -13    1    6    6    0    0 -0.24486257475E+02  0.26482954034E+02 -0.35131865294E+02  0.50350487769E+02  0.00000000000E+00 0.  1.
         14    1    6    6    0    0  0.25960529730E+02 -0.28671945377E+02 -0.90405921905E+02  0.98332396854E+02  0.00000000000E+00 0. -1.
         -5    1    3    3    0  503  0.42367217363E+02 -0.40233947034E+02  0.15068444653E+03  0.16168377788E+03  0.47000000000E+01 0.  1.
         13    1    4    4    0    0 -0.46133220647E+02 -0.73262139316E+02  0.23368823236E+03  0.24921036305E+03  0.00000000000E+00 0. -1.
        -14    1    4    4    0    0 -0.67175699950E+02 -0.61680815934E+01  0.17791036866E+03  0.19027012159E+03  0.00000000000E+00 0.  1.
</event>
<event>
12    1  0.1032880E+000  0.2299214E+03  0.7818608E-02  0.1126807E+00
         21   -1    0    0  503  502  0.00000000000E+00  0.00000000000E+00  0.41766049665E+03  0.41766049665E+03  0.00000000000E+00 0.  1.
         21   -1    0    0  501  503 -0.00000000000E+00 -0.00000000000E+00 -0.13638264652E+03  0.13638264652E+03  0.00000000000E+00 0.  1.
          6    2    1    2  501    0  0.93342848643E+02  0.11989713231E+03  0.64847506192E+02  0.23828065238E+03  0.17170981483E+03 0.  0.
         24    2    3    3    0    0  0.10509048045E+03  0.33601898408E+02  0.67432363341E+02  0.15102444496E+03  0.78026679347E+02 0.  0.
         -6    2    1    2    0  502 -0.93342848643E+02 -0.11989713231E+03  0.21643034394E+03  0.31576249080E+03  0.17255621429E+03 0.  0.
        -24    2    5    5    0    0 -0.10499322243E+03 -0.56151019625E+02  0.78056399575E+02  0.16289412726E+03  0.79152899006E+02 0.  0.
          5    1    3    3  501    0 -0.11747631810E+02  0.86295233902E+02 -0.25848571491E+01  0.87256207423E+02  0.47000000000E+01 0. -1.
        -13    1    4    4    0    0  0.24416369796E+01 -0.19344212340E+02  0.12182907620E+02  0.22990941265E+02  0.00000000000E+00 0.  1.
         14    1    4    4    0    0  0.10264884347E+03  0.52946110748E+02  0.55249455721E+02  0.12803350369E+03  0.00000000000E+00 0. -1.
         -5    1    5    5    0  502  0.11650373786E+02 -0.63746112686E+02  0.13837394436E+03  0.15286836353E+03  0.47000000000E+01 0.  1.
         11    1    6    6    0    0 -0.25425127297E+01 -0.38179078113E+02  0.28293289886E+02  0.47587988286E+02  0.00000000000E+00 0. -1.
        -12    1    6    6    0    0 -0.10245070970E+03 -0.17971941511E+02  0.49763109690E+02  0.11530613898E+03  0.00000000000E+00 0.  1.
</event>
<event>
12    1  0.1032880E+000  0.1943511E+03  0.7818608E-02  0.1154608E+00
         21   -1    0    0  501  502  0.00000000000E+00  0.00000000000E+00  0.33844367964E+03  0.33844367964E+03  0.00000000000E+00 0.  1.
         21   -1    0    0  502  503 -0.00000000000E+00 -0.00000000000E+00 -0.12426719777E+03  0.12426719777E+03  0.00000000000E+00 0.  1.
         -6    2    1    2    0  503  0.63353317808E+02 -0.59322393832E+02  0.18105356326E+03  0.26561765128E+03  0.17389524035E+03 0.  0.
        -24    2    3    3    0    0  0.45742108731E+01  0.27399999794E+02  0.10970467919E+03  0.13877716001E+03  0.80326210603E+02 0.  0.
          6    2    1    2  501    0 -0.63353317808E+02  0.59322393832E+02  0.33122918609E+02  0.19709322613E+03  0.17382699089E+03 0.  0.
         24    2    5    5    0    0  0.11791140321E+02 -0.22569996762E+02  0.21730959301E+02  0.85267826679E+02  0.78421501710E+02 0.  0.
          5    1    5    5  501    0 -0.75144458130E+02  0.81892390594E+02  0.11391959307E+02  0.11182539945E+03  0.47000000000E+01 0. -1.
        -13    1    6    6    0    0  0.13019873930E+02 -0.26538678857E+01 -0.28376480624E+02  0.31333445143E+02  0.00000000000E+00 0.  1.
         14    1    6    6    0    0 -0.12287336085E+01 -0.19916128877E+02  0.50107439926E+02  0.53934381536E+02  0.00000000000E+00 0. -1.
         -5    1    3    3    0  503  0.58779106935E+02 -0.86722393626E+02  0.71348884064E+02  0.12684049127E+03  0.47000000000E+01 0.  1.
         11    1    4    4    0    0  0.63174573918E+01 -0.24203614901E+02  0.67838661838E+02  0.72303591074E+02  0.00000000000E+00 0. -1.
        -12    1    4    4    0    0 -0.17432465187E+01  0.51603614695E+02  0.41866017356E+02  0.66473568937E+02  0.00000000000E+00 0.  1.
</event>
<event>
12    1  0.1032880E+000  0.2868180E+03  0.7818608E-02  0.1092414E+00
         21   -1    0    0  501  502  0.00000000000E+00  0.00000000000E+00  0.22592461721E+03  0.22592461721E+03  0.00000000000E+00 0. -1.
         21   -1    0    0  502  503 -0.00000000000E+00 -0.00000000000E+00 -0.36046637723E+03  0.36046637723E+03  0.00000000000E+00 0. -1.
         -6    2    1    2    0  503  0.23101672953E+03  0.32148926701E+01 -0.71633873953E+02  0.29562813219E+03  0.16995739404E+03 0.  0.
        -24    2    3    3    0    0  0.19764008810E+03  0.26618744892E+02 -0.10820545833E+03  0.24066167628E+03  0.80246241121E+02 0.  0.
          6    2    1    2  501    0 -0.23101672953E+03 -0.32148926701E+01 -0.62907886074E+02  0.29076286225E+03  0.16494415745E+03 0.  0.
         24    2    5    5    0    0 -0.22286669542E+03  0.63381142211E+01 -0.97520039953E+02  0.25364448146E+03  0.71523626599E+02 0.  0.
          5    1    5    5  501    0 -0.81500341128E+01 -0.95530068912E+01  0.34612153878E+02  0.37118380794E+02  0.47000000000E+01 0. -1.
        -13    1    6    6    0    0 -0.98941887544E+02  0.36114453982E+02 -0.30544889205E+02  0.10966649969E+03  0.00000000000E+00 0.  1.
         14    1    6    6    0    0 -0.12392480787E+03 -0.29776339761E+02 -0.66975150748E+02  0.14397798177E+03  0.00000000000E+00 0. -1.
         -5    1    3    3    0  503  0.33376641431E+02 -0.23403852221E+02  0.36571584374E+02  0.54966455914E+02  0.47000000000E+01 0.  1.
         11    1    4    4    0    0  0.11318430354E+02  0.18220424186E+02 -0.33430060358E+02  0.39719764082E+02  0.00000000000E+00 0. -1.
        -12    1    4    4    0    0  0.18632165775E+03  0.83983207055E+01 -0.74775397969E+02  0.20094191220E+03  0.00000000000E+00 0.  1.
</event>
<event>
12    1  0.1032880E+000  0.1839070E+03  0.7818608E-02  0.1165540E+00
         21   -1    0    0  501  502  0.00000000000E+00  0.00000000000E+00  0.42212946574E+03  0.42212946574E+03  0.00000000000E+00 0.  1.
         21   -1    0    0  502  503 -0.00000000000E+00 -0.00000000000E+00 -0.10707675353E+03  0.10707675353E+03  0.00000000000E+00 0.  1.
         -6    2    1    2    0  503 -0.29175082301E+02 -0.60616776932E+02  0.16494657570E+02  0.17855156677E+03  0.16456916235E+03 0.  0.
        -24    2    3    3    0    0  0.20655186959E+02 -0.63388722992E+02  0.60171365668E+02  0.11206484442E+03  0.67031105890E+02 0.  0.
          6    2    1    2  501    0  0.29175082301E+02  0.60616776932E+02  0.29855805464E+03  0.35065465250E+03  0.17116131062E+03 0.  0.
         24    2    5    5    0    0  0.10807921768E+02 -0.99511128785E+01  0.25033015611E+03  0.26310352540E+03  0.79639451293E+02 0.  0.
          5    1    5    5  501    0  0.18367160532E+02  0.70567889811E+02  0.48227898534E+02  0.87551127094E+02  0.47000000000E+01 0. -1.
        -13    1    6    6    0    0  0.23290275791E+02 -0.28366831007E+02  0.23017810671E+03  0.23308598168E+03  0.00000000000E+00 0.  1.
         14    1    6    6    0    0 -0.12482354023E+02  0.18415718128E+02  0.20152049395E+02  0.30017543720E+02  0.00000000000E+00 0. -1.
         -5    1    3    3    0  503 -0.49830269260E+02  0.27719460595E+01 -0.43676708098E+02  0.66486722357E+02  0.47000000000E+01 0.  1.
         13    1    4    4    0    0 -0.86356041836E+01 -0.48320831482E+02  0.70927532775E+01  0.49596205135E+02  0.00000000000E+00 0. -1.
        -14    1    4    4    0    0  0.29290791142E+02 -0.15067891510E+02  0.53078612391E+02  0.62468639281E+02  0.00000000000E+00 0.  1.
</event>
<event>
12    1  0.1032880E+000  0.1876410E+03  0.7818608E-02  0.1161792E+00
         21   -1    0    0  501  502  0.00000000000E+00  0.00000000000E+00  0.16401365909E+03  0.16401365909E+03  0.00000000000E+00 0. -1.
         21   -1    0    0  502  503 -0.00000000000E+00 -0.00000000000E+00 -0.21659231558E+03  0.21659231558E+03  0.00000000000E+00 0. -1.
         -6    2    1    2    0  503 -0.12895971349E+02 -0.69852890098E+02 -0.62541737426E+02  0.19778932096E+03  0.17367617636E+03 0.  0.
        -24    2    3    3    0    0 -0.17786920943E+02  0.27188569514E+02 -0.33528381565E+02  0.96276607028E+02  0.84198811284E+02 0.  0.
          6    2    1    2  501    0  0.12895971349E+02  0.69852890098E+02  0.99630809346E+01  0.18281665371E+03  0.16815746656E+03 0.  0.
         24    2    5    5    0    0 -0.42240363422E+02  0.70821333039E+02 -0.22905312128E+02  0.11844760403E+03  0.81885725631E+02 0.  0.
          5    1    5    5  501    0  0.55136334771E+02 -0.96844294026E+00  0.32868393063E+02  0.64369049677E+02  0.47000000000E+01 0. -1.
        -13    1    6    6    0    0 -0.54778094159E+02  0.12566026406E+02 -0.60817031080E+01  0.56529034417E+02  0.00000000000E+00 0.  1.
         14    1    6    6    0    0  0.12537730737E+02  0.58255306632E+02 -0.16823609020E+02  0.61918569616E+02  0.00000000000E+00 0. -1.
         -5    1    3    3    0  503  0.48909495936E+01 -0.97041459613E+02 -0.29013355861E+02  0.10151271393E+03  0.47000000000E+01 0.  1.
         11    1    4    4    0    0 -0.51674191403E+02  0.15537728204E+02 -0.24848562162E+02  0.59406178941E+02  0.00000000000E+00 0. -1.
        -12    1    4    4    0    0  0.33887270460E+02  0.11650841310E+02 -0.86798194038E+01  0.36870428087E+02  0.00000000000E+00 0.  1.
</event>
<event>
12    1  0.1032880E+000  0.2182958E+03  0.7818608E-02  0.1135914E+00
         21   -1    0    0  503  502  0.00000000000E+00  0.00000000000E+00  0.20315262929E+03  0.20315262929E+03  0.00000000000E+00 0.  1.
         21   -1    0    0  501  503 -0.00000000000E+00 -0.00000000000E+00 -0.27237860940E+03  0.27237860940E+03  0.00000000000E+00 0.  1.
          6    2    1    2  501    0 -0.10454208555E+03  0.77508346823E+02 -0.12776778252E+03  0.24952197301E+03  0.17029391441E+03 0.  0.
         24    2    3    3    0    0 -0.39311471565E+02  0.29280016526E+02 -0.14129373277E+03  0.16714451144E+03  0.74636838225E+02 0.  0.
         -6    2    1    2    0  502  0.10454208555E+03 -0.77508346823E+02  0.58541802413E+02  0.22600926568E+03  0.17526110255E+03 0.  0.
        -24    2    5    5    0    0  0.11055400793E+03 -0.11004083154E+03  0.74172413350E+02  0.18911872799E+03  0.77027093286E+02 0.  0.
          5    1    3    3  501    0 -0.65230613984E+02  0.48228330297E+02  0.13525950254E+02  0.82377461567E+02  0.47000000000E+01 0. -1.
        -11    1    4    4    0    0 -0.47613377260E+02  0.82338302554E+00 -0.41916928301E+02  0.63440842774E+02  0.00000000000E+00 0.  1.
         12    1    4    4    0    0  0.83019056949E+01  0.28456633500E+02 -0.99376804471E+02  0.10370366867E+03  0.00000000000E+00 0. -1.
         -5    1    5    5    0  502 -0.60119223789E+01  0.32532484721E+02 -0.15630610937E+02  0.36890537690E+02  0.47000000000E+01 0.  1.
         13    1    6    6    0    0  0.26684144970E+02 -0.80883510571E+02  0.36693527886E+02  0.92739424539E+02  0.00000000000E+00 0. -1.
        -14    1    6    6    0    0  0.83869862958E+02 -0.29157320973E+02  0.37478885464E+02  0.96379303455E+02  0.00000000000E+00 0.  1.
</event>
<event>
12    1  0.1032880E+000  0.2103058E+03  0.7818608E-02  0.1141445E+00
         21   -1    0    0  501  502  0.00000000000E+00  0.00000000000E+00  0.13561884464E+04  0.13561884464E+04  0.00000000000E+00 0.  1.
         21   -1    0    0  502  503 -0.00000000000E+00 -0.00000000000E+00 -0.49230655530E+02  0.49230655530E+02  0.00000000000E+00 0.  1.
         -6    2    1    2    0  503 -0.54381815594E+02 -0.10759877852E+03  0.24342253356E+03  0.32129006435E+03  0.17157475514E+03 0.  0.
        -24    2    3    3    0    0 -0.95219109988E+02 -0.67832625993E+02  0.13685902246E+03  0.20034832881E+03  0.87983616486E+02 0.  0.
          6    2    1    2  501    0  0.54381815594E+02  0.10759877852E+03  0.10635352573E+04  0.10841290375E+04  0.17231844814E+03 0.  0.
         24    2    5    5    0    0  0.28729070415E+01  0.10301196170E+03  0.44894552839E+03  0.46734963500E+03  0.79018200591E+02 0.  0.
          5    1    5    5  501    0  0.51508908552E+02  0.45868168155E+01  0.61458972888E+03  0.61677940254E+03  0.47000000000E+01 0. -1.
        -11    1    6    6    0    0  0.16228681409E+02  0.37055088705E+02  0.58361415117E+02  0.71010594095E+02  0.00000000000E+00 0.  1.
         12    1    6    6    0    0 -0.13355774367E+02  0.65956872996E+02  0.39058411327E+03  0.39633904090E+03  0.00000000000E+00 0. -1.
         -5    1    3    3    0  503  0.40837294394E+02 -0.39766152524E+02  0.10656351109E+03  0.12094173554E+03  0.47000000000E+01 0.  1.
         11    1    4    4    0    0 -0.33188954051E+02 -0.15849438673E+02 -0.49092883896E+01  0.37105423994E+02  0.00000000000E+00 0. -1.
        -12    1    4    4    0    0 -0.62030155937E+02 -0.51983187321E+02  0.14176831085E+03  0.16324290481E+03  0.00000000000E+00 0.  1.
</event>
<event>
12    1  0.1032880E+000  0.2973470E+03  0.7818608E-02  0.1086649E+00
         21   -1    0    0  501  502  0.00000000000E+00  0.00000000000E+00  0.71583336751E+02  0.71583336751E+02  0.00000000000E+00 0.  1.
         21   -1    0    0  502  503 -0.00000000000E+00 -0.00000000000E+00 -0.13413810071E+04  0.13413810071E+04  0.00000000000E+00 0.  1.
         -6    2    1    2    0  503  0.17998636558E+03 -0.16208789394E+03 -0.43438007604E+03  0.52640411879E+03  0.17247512476E+03 0.  0.
        -24    2    3    3    0    0  0.19608224324E+03 -0.16983159804E+03 -0.36892706381E+03  0.45839508233E+03  0.82023504455E+02 0.  0.
          6    2    1    2  501    0 -0.17998636558E+03  0.16208789394E+03 -0.83541759435E+03  0.88656022510E+03  0.17146107029E+03 0.  0.
         24    2    5    5    0    0 -0.88730600608E+02  0.13295365948E+03 -0.36638949704E+03  0.40782662035E+03  0.80817656893E+02 0.  0.
          5    1    5    5  501    0 -0.91255764974E+02  0.29134234456E+02 -0.46902809730E+03  0.47873360475E+03  0.47000000000E+01 0. -1.
        -13    1    6    6    0    0 -0.76960685480E+02  0.14087606319E+03 -0.30330157212E+03  0.34316301657E+03  0.00000000000E+00 0.  1.
         14    1    6    6    0    0 -0.11769915128E+02 -0.79224037068E+01 -0.63087924923E+02  0.64663603779E+02  0.00000000000E+00 0. -1.
         -5    1    3    3    0  503 -0.16095877657E+02  0.77437041035E+01 -0.65453012226E+02  0.68009036460E+02  0.47000000000E+01 0.  1.
         13    1    4    4    0    0  0.19003812638E+03 -0.13541199431E+03 -0.34313794022E+03  0.41496330404E+03  0.00000000000E+00 0. -1.
        -14    1    4    4    0    0  0.60441168580E+01 -0.34419603731E+02 -0.25789123589E+02  0.43431778286E+02  0.00000000000E+00 0.  1.
</event>
<event>
12    1  0.1032880E+000  0.4300714E+03  0.7818608E-02  0.1033873E+00
         21   -1    0    0  503  502  0.00000000000E+00  0.00000000000E+00  0.13487581844E+03  0.13487581844E+03  0.00000000000E+00 0. -1.
         21   -1    0    0  501  503 -0.00000000000E+00 -0.00000000000E+00 -0.14285951494E+04  0.14285951494E+04  0.00000000000E+00 0.  1.
          6    2    1    2  501    0 -0.14387804319E+03  0.36650557102E+03 -0.80496030968E+03  0.91243577419E+03  0.17190321972E+03 0.  0.
         24    2    3    3    0    0 -0.12169473112E+03  0.16590556400E+03 -0.33424049463E+03  0.40025250969E+03  0.78428945619E+02 0.  0.
         -6    2    1    2    0  502  0.14387804319E+03 -0.36650557102E+03 -0.48875902132E+03  0.65103519370E+03  0.17301507914E+03 0.  0.
        -24    2    5    5    0    0  0.76146441672E+02 -0.33378272414E+03 -0.43166509149E+03  0.55648276710E+03  0.78288769028E+02 0.  0.
          5    1    3    3  501    0 -0.22183312069E+02  0.20060000702E+03 -0.47071981505E+03  0.51218326450E+03  0.47000000000E+01 0. -1.
        -11    1    4    4    0    0 -0.32506314740E+02  0.73411404824E+02 -0.19449471210E+03  0.21041408673E+03  0.00000000000E+00 0.  1.
         12    1    4    4    0    0 -0.89188416382E+02  0.92494159180E+02 -0.13974578253E+03  0.18983842296E+03  0.00000000000E+00 0. -1.
         -5    1    5    5    0  502  0.67731601520E+02 -0.32722846886E+02 -0.57093929831E+02  0.94552426602E+02  0.47000000000E+01 0.  1.
         11    1    6    6    0    0  0.19782984593E+02 -0.91116905742E+02 -0.66880585948E+02  0.11474611003E+03  0.00000000000E+00 0. -1.
        -12    1    6    6    0    0  0.56363457079E+02 -0.24266581839E+03 -0.36478450554E+03  0.44173665706E+03  0.00000000000E+00 0.  1.
</event>
<event>
12    1  0.1032880E+000  0.2011421E+03  0.7818608E-02  0.1148844E+00
         21   -1    0    0  501  502  0.00000000000E+00  0.00000000000E+00  0.14459456019E+03  0.14459456019E+03  0.00000000000E+00 0.  1.
         21   -1    0    0  502  503 -0.00000000000E+00 -0.00000000000E+00 -0.28338842374E+03  0.28338842374E+03  0.00000000000E+00 0.  1.
         -6    2    1    2    0  503  0.59662463723E+02  0.85282337383E+02 -0.43873507293E+02  0.20556888365E+03  0.17175853585E+03 0.  0.
        -24    2    3    3    0    0 -0.21761373108E+02 -0.11777362889E+00 -0.27198603285E+02  0.86307982312E+02  0.78966654735E+02 0.  0.
          6    2    1    2  501    0 -0.59662463723E+02 -0.85282337383E+02 -0.94920356255E+02  0.22241410028E+03  0.17212051396E+03 0.  0.
         24    2    5    5    0    0 -0.10128333582E+03 -0.39589676600E+02 -0.81847167080E+02  0.15906495254E+03  0.82322802185E+02 0.  0.
          5    1    5    5  501    0  0.41620872101E+02 -0.45692660783E+02 -0.13073189175E+02  0.63349147738E+02  0.47000000000E+01 0. -1.
        -11    1    6    6    0    0 -0.39811461126E+02 -0.56970596894E+01 -0.79191742843E+02  0.88818585108E+02  0.00000000000E+00 0.  1.
         12    1    6    6    0    0 -0.61471874698E+02 -0.33892616910E+02 -0.26554242369E+01  0.70246367435E+02  0.00000000000E+00 0. -1.
         -5    1    3    3    0  503  0.81423836831E+02  0.85400111012E+02 -0.16674904008E+02  0.11926090134E+03  0.47000000000E+01 0.  1.
         13    1    4    4    0    0 -0.21591288915E+02  0.32671941428E+01 -0.54544222015E+02  0.58753131574E+02  0.00000000000E+00 0. -1.
        -14    1    4    4    0    0 -0.17008419267E+00 -0.33849677717E+01  0.27345618730E+02  0.27554850738E+02  0.00000000000E+00 0.  1.
</event>
<event>
12    1  0.1032880E+000  0.2744776E+03  0.7818608E-02  0.1098745E+00
         21   -1    0    0  503  502  0.00000000000E+00  0.00000000000E+00  0.11162478630E+03  0.11162478630E+03  0.00000000000E+00 0.  1.
         21   -1    0    0  501  503 -0.00000000000E+00 -0.00000000000E+00 -0.74247285501E+03  0.74247285501E+03  0.00000000000E+00 0.  1.
          6    2    1    2  501    0  0.49679706050E+02 -0.20812830495E+03 -0.44425375673E+03  0.52220098692E+03  0.17189242523E+03 0.  0.
         24    2    3    3    0    0 -0.11146022888E+02 -0.18856293605E+03 -0.37799928219E+03  0.43003636053E+03  0.79797239044E+02 0.  0.
         -6    2    1    2    0  502 -0.49679706050E+02  0.20812830495E+03 -0.18659431198E+03  0.33189665440E+03  0.17190836926E+03 0.  0.
        -24    2    5    5    0    0 -0.50798003631E+02  0.17326932711E+03 -0.70412527445E+02  0.21050186051E+03  0.82160893160E+02 0.  0.
          5    1    3    3  501    0  0.60825728938E+02 -0.19565368905E+02 -0.66254474539E+02  0.92164626390E+02  0.47000000000E+01 0. -1.
        -11    1    4    4    0    0 -0.34495305178E+00 -0.10799758877E+02 -0.95347944227E+02  0.95958242234E+02  0.00000000000E+00 0.  1.
         12    1    4    4    0    0 -0.10801069836E+02 -0.17776317717E+03 -0.28265133797E+03  0.33407811829E+03  0.00000000000E+00 0. -1.
         -5    1    5    5    0  502  0.11182975812E+01  0.34858977842E+02 -0.11618178454E+03  0.12139479389E+03  0.47000000000E+01 0.  1.
         13    1    6    6    0    0 -0.31399353322E+02  0.16695391658E+03 -0.80216553126E+02  0.18786757316E+03  0.00000000000E+00 0. -1.
        -14    1    6    6    0    0 -0.19398650309E+02  0.63154105310E+01  0.98040256809E+01  0.22634287343E+02  0.00000000000E+00 0.  1.
</event>
<event>
12    1  0.1032880E+000  0.1897719E+03  0.7818608E-02  0.1158755E+00
         21   -1    0    0  501  502  0.00000000000E+00  0.00000000000E+00  0.34081738702E+02  0.34081738702E+02  0.00000000000E+00 0.  1.
         21   -1    0    0  502  503 -0.00000000000E+00 -0.00000000000E+00 -0.11096470895E+04  0.11096470895E+04  0.00000000000E+00 0.  1.
         -6    2    1    2    0  503  0.21154977358E+02 -0.76196894603E+02 -0.66576336809E+03  0.69228190620E+03  0.17251050853E+03 0.  0.
        -24    2    3    3    0    0  0.22499578196E+02 -0.85746168677E+02 -0.67058023177E+03  0.68052228195E+03  0.74659845494E+02 0.  0.
          6    2    1    2  501    0 -0.21154977358E+02  0.76196894603E+02 -0.40980198268E+03  0.45144692197E+03  0.17208474231E+03 0.  0.
         24    2    5    5    0    0  0.46236222736E+02  0.69217153588E+01 -0.21258020403E+03  0.23176728185E+03  0.79624313841E+02 0.  0.
          5    1    5    5  501    0 -0.67391200094E+02  0.69275179245E+02 -0.19722177866E+03  0.21967964013E+03  0.47000000000E+01 0. -1.
        -11    1    6    6    0    0  0.44252740214E+01 -0.33663288489E+02 -0.72809127908E+02  0.80336599061E+02  0.00000000000E+00 0.  1.
         12    1    6    6    0    0  0.41810948714E+02  0.40585003848E+02 -0.13977107612E+03  0.15143068279E+03  0.00000000000E+00 0. -1.
         -5    1    3    3    0  503 -0.13446008380E+01  0.95492740738E+01  0.48168636831E+01  0.11759624250E+02  0.47000000000E+01 0.  1.
         13    1    4    4    0    0  0.12427547744E+02 -0.15707440792E+02 -0.30160126760E+02  0.36204984261E+02  0.00000000000E+00 0. -1.
        -14    1    4    4    0    0  0.10072030452E+02 -0.70038727885E+02 -0.64042010501E+03  0.64431729769E+03  0.00000000000E+00 0.  1.
</event>
<event>
12    1  0.1032880E+000  0.2633375E+03  0.7818608E-02  0.1105220E+00
         21   -1    0    0  503  502  0.00000000000E+00  0.00000000000E+00  0.11383530375E+03  0.11383530375E+03  0.00000000000E+00 0. -1.
         21   -1    0    0  501  503 -0.00000000000E+00 -0.00000000000E+00 -0.73857278825E+03  0.73857278825E+03  0.00000000000E+00 0.  1.
          6    2    1    2  501    0 -0.10077838076E+03  0.17224739940E+03 -0.49167691867E+03  0.55775696111E+03  0.17181730613E+03 0.  0.
         24    2    3    3    0    0 -0.25428464854E+02  0.10217012854E+03 -0.38771479881E+03  0.41140585560E+03  0.88581436066E+02 0.  0.
         -6    2    1    2    0  502  0.10077838076E+03 -0.17224739940E+03 -0.13306056583E+03  0.29465113089E+03  0.17113949317E+03 0.  0.
        -24    2    5    5    0    0  0.11993336059E+03 -0.10175111213E+03 -0.50675571884E+02  0.18444216120E+03  0.81936545195E+02 0.  0.
          5    1    3    3  501    0 -0.75349915904E+02  0.70077270864E+02 -0.10396211986E+03  0.14635110551E+03  0.47000000000E+01 0. -1.
        -13    1    4    4    0    0 -0.52156660628E+02  0.37542947937E+02 -0.23143018550E+03  0.24018684591E+03  0.00000000000E+00 0.  1.
         14    1    4    4    0    0  0.26728195774E+02  0.64627180602E+02 -0.15628461331E+03  0.17121900969E+03  0.00000000000E+00 0. -1.
         -5    1    5    5    0  502 -0.19154979837E+02 -0.70496287274E+02 -0.82384993949E+02  0.11020896969E+03  0.47000000000E+01 0.  1.
         11    1    6    6    0    0  0.45966808296E+02 -0.24937006764E+02 -0.57328972465E+02  0.77597763210E+02  0.00000000000E+00 0. -1.
        -12    1    6    6    0    0  0.73966552299E+02 -0.76814105365E+02  0.66534005819E+01  0.10684439799E+03  0.00000000000E+00 0.  1.
</event>
<event>
12    1  0.1032880E+000  0.2388127E+03  0.7818608E-02  0.1120628E+00
         21   -1    0    0  503  502  0.00000000000E+00  0.00000000000E+00  0.11131840122E+04  0.11131840122E+04  0.00000000000E+00 0.  1.
         21   -1    0    0  501  503 -0.00000000000E+00 -0.00000000000E+00 -0.10923582479E+03  0.10923582479E+03  0.00000000000E+00 0.  1.
          6    2    1    2  501    0  0.16462147032E+03 -0.33854241597E+01  0.94743930738E+03  0.97701247031E+03  0.17262802896E+03 0.  0.
         24    2    3    3    0    0  0.58506955463E+02  0.42552115276E+02  0.63146536266E+03  0.64051258690E+03  0.79209364240E+02 0.  0.
         -6    2    1    2    0  502 -0.16462147032E+03  0.33854241597E+01  0.56508880003E+02  0.24540736665E+03  0.17297350230E+03 0.  0.
        -24    2    5    5    0    0 -0.83159935489E+02 -0.28356791265E+02 -0.30609435650E+02  0.12189525866E+03  0.78751724114E+02 0.  0.
          5    1    3    3  501    0  0.10611451486E+03 -0.45937539435E+02  0.31597394472E+03  0.33649988341E+03  0.47000000000E+01 0. -1.
        -13    1    4    4    0    0 -0.16929751554E+02  0.23875985764E+02  0.15248631313E+03  0.15526994196E+03  0.00000000000E+00 0.  1.
         14    1    4    4    0    0  0.75436707016E+02  0.18676129512E+02  0.47897904953E+03  0.48524264494E+03  0.00000000000E+00 0. -1.
         -5    1    5    5    0  502 -0.81461534834E+02  0.31742215425E+02  0.87118315652E+02  0.12351210799E+03  0.47000000000E+01 0.  1.
         11    1    6    6    0    0 -0.92656583833E+02 -0.52058744708E+01 -0.21457003195E+02  0.95250966623E+02  0.00000000000E+00 0. -1.
        -12    1    6    6    0    0  0.94966483435E+01 -0.23150916794E+02 -0.91524324543E+01  0.26644292034E+02  0.00000000000E+00 0.  1.
</event>
<event>
12    1  0.1032880E+000  0.2799871E+03  0.7818608E-02  0.1095706E+00
         21   -1    0    0  503  502  0.00000000000E+00  0.00000000000E+00  0.12211668177E+03  0.12211668177E+03  0.00000000000E+00 0. -1.
         21   -1    0    0  501  503 -0.00000000000E+00 -0.00000000000E+00 -0.64202768412E+03  0.64202768412E+03  0.00000000000E+00 0. -1.
          6    2    1    2  501    0 -0.53269798379E+01  0.21987995170E+03 -0.26739963469E+03  0.38711022523E+03  0.17313633925E+03 0.  0.
         24    2    3    3    0    0  0.55917829713E+02  0.17852444139E+03 -0.17141616977E+03  0.26588266867E+03  0.79450049648E+02 0.  0.
         -6    2    1    2    0  502  0.53269798379E+01 -0.21987995170E+03 -0.25251136766E+03  0.37703414066E+03  0.17325467540E+03 0.  0.
        -24    2    5    5    0    0  0.77563421575E+01 -0.28685909211E+02 -0.79336535245E+02  0.11901732673E+03  0.83593038031E+02 0.  0.
          5    1    3    3  501    0 -0.61244809551E+02  0.41355510314E+02 -0.95983464925E+02  0.12122755656E+03  0.47000000000E+01 0. -1.
        -11    1    4    4    0    0  0.27694627256E+02  0.58495532362E+02 -0.14512365840E+02  0.66327433596E+02  0.00000000000E+00 0.  1.
         12    1    4    4    0    0  0.28223202457E+02  0.12002890903E+03 -0.15690380393E+03  0.19955523507E+03  0.00000000000E+00 0. -1.
         -5    1    5    5    0  502 -0.24293623196E+01 -0.19119404249E+03 -0.17317483241E+03  0.25801681392E+03  0.47000000000E+01 0.  1.
         11    1    6    6    0    0 -0.18431918999E+02 -0.28844109109E+02 -0.85513372091E+02  0.92110016147E+02  0.00000000000E+00 0. -1.
        -12    1    6    6    0    0  0.26188261156E+02  0.15819989805E+00  0.61768368457E+01  0.26907310587E+02  0.00000000000E+00 0.  1.
</event>
<event>
12    1  0.1032880E+000  0.2659769E+03  0.7818608E-02  0.1103768E+00
         21   -1    0    0  501  502  0.00000000000E+00  0.00000000000E+00  0.13335765138E+03  0.13335765138E+03  0.00000000000E+00 0.  1.
         21   -1    0    0  502  503 -0.00000000000E+00 -0.00000000000E+00 -0.53391597475E+03  0.53391597475E+03  0.00000000000E+00 0. -1.
         -6    2    1    2    0  503  0.20073983713E+03 -0.57768716616E+01 -0.16634899439E+03  0.31371276713E+03  0.17439569339E+03 0.  0.
        -24    2    3    3    0    0  0.11367332304E+03  0.49577980470E+02 -0.14753080881E+03  0.20873204682E+03  0.80150653776E+02 0.  0.
          6    2    1    2  501    0 -0.20073983713E+03  0.57768716616E+01 -0.23420932897E+03  0.35356085900E+03  0.17268878591E+03 0.  0.
         24    2    5    5    0    0 -0.79869102210E+02  0.63955911780E+01 -0.29370902882E+02  0.11567225444E+03  0.78086128325E+02 0.  0.
          5    1    5    5  501    0 -0.12087073492E+03 -0.61871951639E+00 -0.20483842609E+03  0.23788860455E+03  0.47000000000E+01 0. -1.
        -11    1    6    6    0    0 -0.66710469844E+02  0.15935988956E+02  0.13429339093E+02  0.69889839599E+02  0.00000000000E+00 0.  1.
         12    1    6    6    0    0 -0.13158632366E+02 -0.95403977778E+01 -0.42800241975E+02  0.45782414841E+02  0.00000000000E+00 0. -1.
         -5    1    3    3    0  503  0.87066514089E+02 -0.55354852132E+02 -0.18818185575E+02  0.10498072032E+03  0.47000000000E+01 0.  1.
         13    1    4    4    0    0  0.95796643574E+02  0.29735466276E+02 -0.15153565554E+03  0.18172575430E+03  0.00000000000E+00 0. -1.
        -14    1    4    4    0    0  0.17876679465E+02  0.19842514194E+02  0.40048467285E+01  0.27006292518E+02  0.00000000000E+00 0.  1.
</event>
<event>
12    1  0.1032880E+000  0.1775886E+03  0.7818608E-02  0.1170200E+00
         21   -1    0    0  503  502  0.00000000000E+00  0.00000000000E+00  0.58867537556E+02  0.58867537556E+02  0.00000000000E+00 0. -1.
         21   -1    0    0  501  503 -0.00000000000E+00 -0.00000000000E+00 -0.65464371374E+03  0.65464371374E+03  0.00000000000E+00 0. -1.
          6    2    1    2  501    0 -0.32385853368E+02  0.19856818247E+02 -0.14539902973E+03  0.22938598665E+03  0.17330296102E+03 0.  0.
         24    2    3    3    0    0 -0.29639849334E+02  0.29083751747E+02 -0.17587924231E+03  0.19707793504E+03  0.78624546567E+02 0.  0.
         -6    2    1    2    0  502  0.32385853368E+02 -0.19856818247E+02 -0.45037714646E+03  0.48412526464E+03  0.17347784033E+03 0.  0.
        -24    2    5    5    0    0 -0.47237707642E+01 -0.52862875660E+02 -0.41050315370E+03  0.42026174354E+03  0.72734422752E+02 0.  0.
          5    1    3    3  501    0 -0.27460040332E+01 -0.92269335003E+01  0.30480212579E+02  0.32308051610E+02  0.47000000000E+01 0. -1.
        -13    1    4    4    0    0 -0.13377002323E+02 -0.27120172845E+02 -0.65765203808E+02  0.72384459646E+02  0.00000000000E+00 0.  1.
         14    1    4    4    0    0 -0.16262847011E+02  0.56203924592E+02 -0.11011403850E+03  0.12469347540E+03  0.00000000000E+00 0. -1.
         -5    1    5    5    0  502  0.37109624132E+02  0.33006057413E+02 -0.39873992755E+02  0.63863521101E+02  0.47000000000E+01 0.  1.
         11    1    6    6    0    0 -0.24857963881E+02 -0.27548619851E+02 -0.80077200948E+02  0.88256461156E+02  0.00000000000E+00 0. -1.
        -12    1    6    6    0    0  0.20134193117E+02 -0.25314255808E+02 -0.33042595275E+03  0.33200528239E+03  0.00000000000E+00 0.  1.
</event>
<event>
12    1  0.1032880E+000  0.1915786E+03  0.7818608E-02  0.1157106E+00
         21   -1    0    0  503  502  0.00000000000E+00  0.00000000000E+00  0.60525476328E+02  0.60525476328E+02  0.00000000000E+00 0.  1.
         21   -1    0    0  501  503 -0.00000000000E+00 -0.00000000000E+00 -0.64061638032E+03  0.64061638032E+03  0.00000000000E+00 0.  1.
          6    2    1    2  501    0 -0.84011253103E+02  0.92080003893E+01 -0.20819658033E+03  0.28292783490E+03  0.17192924644E+03 0.  0.
         24    2    3    3    0    0 -0.11023212836E+02  0.21216838426E+02 -0.12419839884E+02  0.73590575164E+02  0.68481054871E+02 0.  0.
         -6    2    1    2    0  502  0.84011253103E+02 -0.92080003893E+01 -0.37189432366E+03  0.41821402175E+03  0.17162430509E+03 0.  0.
        -24    2    5    5    0    0 -0.33839450275E+01  0.42130575947E+02 -0.15197641729E+03  0.17601669390E+03  0.78093588755E+02 0.  0.
          5    1    3    3  501    0 -0.72988040266E+02 -0.12008838037E+02 -0.19577674045E+03  0.20933725974E+03  0.47000000000E+01 0. -1.
        -11    1    4    4    0    0  0.48103284477E+01 -0.24067009145E+02 -0.50177124750E+01  0.25050701137E+02  0.00000000000E+00 0.  1.
         12    1    4    4    0    0 -0.15833541284E+02  0.45283847571E+02 -0.74021274085E+01  0.48539874027E+02  0.00000000000E+00 0. -1.
         -5    1    5    5    0  502  0.87395198130E+02 -0.51338576336E+02 -0.21991790636E+03  0.24219732785E+03  0.47000000000E+01 0.  1.
         11    1    6    6    0    0  0.28139460064E+02 -0.26437084386E+01 -0.24989193788E+02  0.37726359659E+02  0.00000000000E+00 0. -1.
        -12    1    6    6    0    0 -0.31523405091E+02  0.44774284385E+02 -0.12698722351E+03  0.13829033424E+03  0.00000000000E+00 0.  1.
</event>
<event>
12    1  0.1032880E+000  0.2245060E+03  0.7818608E-02  0.1131112E+00
         21   -1    0    0  503  502  0.00000000000E+00  0.00000000000E+00  0.10432066294E+03  0.10432066294E+03  0.00000000000E+00 0.  1.
         21   -1    0    0  501  503 -0.00000000000E+00 -0.00000000000E+00 -0.56693484984E+03  0.56693484984E+03  0.00000000000E+00 0.  1.
          6    2    1    2  501    0 -0.40771789843E+02 -0.13162371272E+03 -0.98756749747E+02  0.24526683123E+03  0.17724497816E+03 0.  0.
         24    2    3    3    0    0  0.42460234407E+02 -0.71977785732E+02 -0.86498649037E+02  0.14203138431E+03  0.75546175942E+02 0.  0.
         -6    2    1    2    0  502  0.40771789843E+02  0.13162371272E+03 -0.36385743715E+03  0.42598868156E+03  0.17345599341E+03 0.  0.
        -24    2    5    5    0    0  0.37777249383E+02  0.45720393788E+02 -0.58105960534E+02  0.10834988838E+03  0.69612647443E+02 0.  0.
          5    1    3    3  501    0 -0.83232024251E+02 -0.59645926983E+02 -0.12258100710E+02  0.10323544691E+03  0.47000000000E+01 0. -1.
        -11    1    4    4    0    0  0.49801129761E+02 -0.13790190803E+02 -0.54968231822E+02  0.75444207183E+02  0.00000000000E+00 0.  1.
         12    1    4    4    0    0 -0.73408953534E+01 -0.58187594929E+02 -0.31530417214E+02  0.66587177128E+02  0.00000000000E+00 0. -1.
         -5    1    5    5    0  502  0.29945404599E+01  0.85903318927E+02 -0.30575147662E+03  0.31763879318E+03  0.47000000000E+01 0.  1.
         11    1    6    6    0    0  0.16507569109E+02 -0.98099841331E+01 -0.42855558390E+02  0.46960989252E+02  0.00000000000E+00 0. -1.
        -12    1    6    6    0    0  0.21269680274E+02  0.55530377921E+02 -0.15250402144E+02  0.61388899132E+02  0.00000000000E+00 0.  1.
</event>
<event>
12    1  0.1032880E+000  0.1940725E+03  0.7818608E-02  0.1156441E+00
         21   -1    0    0  501  502  0.00000000000E+00  0.00000000000E+00  0.35391691709E+03  0.35391691709E+03  0.00000000000E+00 0.  1.
         21   -1    0    0  502  503 -0.00000000000E+00 -0.00000000000E+00 -0.12332765499E+03  0.12332765499E+03  0.00000000000E+00 0.  1.
         -6    2    1    2    0  503  0.46815373476E+02  0.61088570277E+02  0.21146596998E+03  0.28223221787E+03  0.17033401226E+03 0.  0.
        -24    2    3    3    0    0  0.72685357574E+02  0.59798567334E+02  0.22189113921E+03  0.25391801051E+03  0.79872702094E+02 0.  0.
          6    2    1    2  501    0 -0.46815373476E+02 -0.61088570277E+02  0.19123292125E+02  0.19501235421E+03  0.17815898905E+03 0.  0.
         24    2    5    5    0    0  0.15895288720E+02  0.13919347519E+01 -0.42759451222E+02  0.86901278986E+02  0.73951767625E+02 0.  0.
          5    1    5    5  501    0 -0.62710662197E+02 -0.62480505029E+02  0.61882743346E+02  0.10811107522E+03  0.47000000000E+01 0. -1.
        -11    1    6    6    0    0  0.22125127712E+02  0.33561542404E+02 -0.11981128731E+02  0.41945748896E+02  0.00000000000E+00 0.  1.
         12    1    6    6    0    0 -0.62298389914E+01 -0.32169607652E+02 -0.30778322490E+02  0.44955530090E+02  0.00000000000E+00 0. -1.
         -5    1    3    3    0  503 -0.25869984097E+02  0.12900029433E+01 -0.10425169234E+02  0.28314207359E+02  0.47000000000E+01 0.  1.
         13    1    4    4    0    0  0.39446390655E+02 -0.11437831415E+02  0.48596774166E+02  0.63627731238E+02  0.00000000000E+00 0. -1.
        -14    1    4    4    0    0  0.33238966918E+02  0.71236398750E+02  0.17329436505E+03  0.19029027927E+03  0.00000000000E+00 0.  1.
</event>
<event>
12    1  0.1032880E+000  0.2100730E+03  0.7818608E-02  0.1142476E+00
         21   -1    0    0  501  502  0.00000000000E+00  0.00000000000E+00  0.69959457049E+03  0.69959457049E+03  0.00000000000E+00 0.  1.
         21   -1    0    0  502  503 -0.00000000000E+00 -0.00000000000E+00 -0.63453627434E+02  0.63453627434E+02  0.00000000000E+00 0.  1.
         -6    2    1    2    0  503 -0.99689020693E+02 -0.70255172746E+02  0.38618212410E+03  0.43962178676E+03  0.17104675466E+03 0.  0.
        -24    2    3    3    0    0 -0.91715943832E+02 -0.10911169159E+03  0.26102149249E+03  0.30824190735E+03  0.81016531087E+02 0.  0.
          6    2    1    2  501    0  0.99689020693E+02  0.70255172746E+02  0.24995881896E+03  0.32342641116E+03  0.16508041106E+03 0.  0.
         24    2    5    5    0    0  0.35627280040E+02  0.14186732415E+02  0.21092299636E+03  0.22965294976E+03  0.82349259141E+02 0.  0.
          5    1    5    5  501    0  0.64061740653E+02  0.56068440331E+02  0.39035822599E+02  0.93773461398E+02  0.47000000000E+01 0. -1.
        -11    1    6    6    0    0 -0.67579467385E+01 -0.19231099293E+02  0.12256651653E+02  0.23785090579E+02  0.00000000000E+00 0.  1.
         12    1    6    6    0    0  0.42385226778E+02  0.33417831708E+02  0.19866634471E+03  0.20586785918E+03  0.00000000000E+00 0. -1.
         -5    1    3    3    0  503 -0.79730768613E+01  0.38856518842E+02  0.12516063161E+03  0.13137987942E+03  0.47000000000E+01 0.  1.
         13    1    4    4    0    0 -0.32745474493E+02 -0.27661957055E+01  0.20509605360E+02  0.38737086241E+02  0.00000000000E+00 0. -1.
        -14    1    4    4    0    0 -0.58970469339E+02 -0.10634549588E+03  0.24051188713E+03  0.26950482110E+03  0.00000000000E+00 0.  1.
</event>
<event>
12    1  0.1032880E+000  0.2085049E+03  0.7818608E-02  0.1142860E+00
         21   -1    0    0  501  502  0.00000000000E+00  0.00000000000E+00  0.14039937515E+03  0.14039937515E+03  0.00000000000E+00 0. -1.
         21   -1    0    0  502  503 -0.00000000000E+00 -0.00000000000E+00 -0.31792701015E+03  0.31792701015E+03  0.00000000000E+00 0. -1.
         -6    2    1    2    0  503 -0.11651368750E+03  0.20053810876E+02 -0.49987134576E+02  0.21390691202E+03  0.17111358416E+03 0.  0.
        -24    2    3    3    0    0 -0.13998451320E+01  0.57665091226E+01  0.13020652816E+02  0.81818324447E+02  0.80557362306E+02 0.  0.
          6    2    1    2  501    0  0.11651368750E+03 -0.20053810876E+02 -0.12754050043E+03  0.24441947327E+03  0.17174604788E+03 0.  0.
         24    2    5    5    0    0  0.10673210659E+03 -0.27127350500E+02 -0.15895051749E+03  0.21044310708E+03  0.83026493243E+02 0.  0.
          5    1    5    5  501    0  0.97815809011E+01  0.70735396233E+01  0.31410017069E+02  0.33976366198E+02  0.47000000000E+01 0. -1.
        -11    1    6    6    0    0  0.49964505149E+02 -0.27243604617E+02 -0.19962344938E+02  0.60308879800E+02  0.00000000000E+00 0.  1.
         12    1    6    6    0    0  0.56767601446E+02  0.11625411709E+00 -0.13898817256E+03  0.15013422728E+03  0.00000000000E+00 0. -1.
         -5    1    3    3    0  503 -0.11511384236E+03  0.14287301754E+02 -0.63007787392E+02  0.13208858757E+03  0.47000000000E+01 0.  1.
         13    1    4    4    0    0  0.61265809048E+01  0.37349114681E+02 -0.13201484506E+02  0.40084542585E+02  0.00000000000E+00 0. -1.
        -14    1    4    4    0    0 -0.75264260368E+01 -0.31582605559E+02  0.26222137322E+02  0.41733781862E+02  0.00000000000E+00 0.  1.
</event>
<event>
12    1  0.1032880E+000  0.2050461E+03  0.7818608E-02  0.1145800E+00
         21   -1    0    0  503  502  0.00000000000E+00  0.00000000000E+00  0.22931623093E+04  0.22931623093E+04  0.00000000000E+00 0.  1.
         21   -1    0    0  501  503 -0.00000000000E+00 -0.00000000000E+00 -0.24822982843E+02  0.24822982843E+02  0.00000000000E+00 0.  1.
          6    2    1    2  501    0  0.79093302833E+02 -0.73330472209E+02  0.17291875864E+04  0.17411590664E+04  0.17295108261E+03 0.  0.
         24    2    3    3    0    0  0.78955295409E+02 -0.65620265599E+02  0.69250127799E+03  0.70443342367E+03  0.78284547864E+02 0.  0.
         -6    2    1    2    0  502 -0.79093302833E+02  0.73330472209E+02  0.53915174004E+03  0.57682622569E+03  0.17438688925E+03 0.  0.
        -24    2    5    5    0    0 -0.60955799626E+02  0.11735533355E+03  0.44273097158E+03  0.46918695762E+03  0.81472720527E+02 0.  0.
          5    1    3    3  501    0  0.13800742396E+00 -0.77102066100E+01  0.10366863084E+04  0.10367256427E+04  0.47000000000E+01 0. -1.
        -13    1    4    4    0    0 -0.10886931550E+02 -0.42444565942E+01  0.18652071386E+03  0.18688637562E+03  0.00000000000E+00 0.  1.
         14    1    4    4    0    0  0.89842226959E+02 -0.61375809005E+02  0.50598056412E+03  0.51754704805E+03  0.00000000000E+00 0. -1.
         -5    1    5    5    0  502 -0.18137503208E+02 -0.44024861336E+02  0.96420768462E+02  0.10763926806E+03  0.47000000000E+01 0.  1.
         13    1    6    6    0    0 -0.56298718193E+02  0.31631363021E+02  0.24989833220E+03  0.25810708094E+03  0.00000000000E+00 0. -1.
        -14    1    6    6    0    0 -0.46570814325E+01  0.85723970524E+02  0.19283263938E+03  0.21107987668E+03  0.00000000000E+00 0.  1.
</event>
<event>
12    1  0.1032880E+000  0.2442739E+03  0.7818608E-02  0.1117001E+00
         21   -1    0    0  503  502  0.00000000000E+00  0.00000000000E+00  0.73970493119E+03  0.73970493119E+03  0.00000000000E+00 0. -1.
         21   -1    0    0  501  503 -0.00000000000E+00 -0.00000000000E+00 -0.82092453451E+02  0.82092453451E+02  0.00000000000E+00 0. -1.
          6    2    1    2  501    0  0.15985971603E+03 -0.67641972256E+02  0.38393236107E+03  0.45505362392E+03  0.17186965277E+03 0.  0.
         24    2    3    3    0    0  0.12734860372E+03  0.60680138101E+01  0.31840712495E+03  0.35110276516E+03  0.75070412398E+02 0.  0.
         -6    2    1    2    0  502 -0.15985971603E+03  0.67641972256E+02  0.27368011667E+03  0.36674376072E+03  0.17166716211E+03 0.  0.
        -24    2    5    5    0    0 -0.13950807596E+02  0.36126180728E+02  0.72485394099E+02  0.11617628265E+03  0.82116200144E+02 0.  0.
          5    1    3    3  501    0  0.32511112317E+02 -0.73709986067E+02  0.65525236117E+02  0.10395085877E+03  0.47000000000E+01 0. -1.
        -11    1    4    4    0    0  0.13617403529E+03  0.65171162546E+01  0.27660325211E+03  0.30837509589E+03  0.00000000000E+00 0.  1.
         12    1    4    4    0    0 -0.88254315728E+01 -0.44910244447E+00  0.41803872850E+02  0.42727669263E+02  0.00000000000E+00 0. -1.
         -5    1    5    5    0  502 -0.14590890844E+03  0.31515791528E+02  0.20119472257E+03  0.25056747807E+03  0.47000000000E+01 0.  1.
         11    1    6    6    0    0  0.14791954769E+02 -0.20274748574E+02  0.33404383136E+02  0.41781816240E+02  0.00000000000E+00 0. -1.
        -12    1    6    6    0    0 -0.28742762365E+02  0.56400929302E+02  0.39081010963E+02  0.74394466410E+02  0.00000000000E+00 0.  1.
</event>
<event>
12    1  0.1032880E+000  0.3321496E+03  0.7818608E-02  0.1070330E+00
         21   -1    0    0  501  502  0.00000000000E+00  0.00000000000E+00  0.54606490600E+03  0.54606490600E+03  0.00000000000E+00 0. -1.
         21   -1    0    0  502  503 -0.00000000000E+00 -0.00000000000E+00 -0.22574772664E+03  0.22574772664E+03  0.00000000000E+00 0. -1.
         -6    2    1    2    0  503 -0.26815575130E+03  0.89824734979E+02  0.28754418693E+03  0.43932334790E+03  0.17420492130E+03 0.  0.
        -24    2    3    3    0    0 -0.56501150721E+02  0.39508524088E+02  0.10460008382E+03  0.15503471660E+03  0.91330620868E+02 0.  0.
          6    2    1    2  501    0  0.26815575130E+03 -0.89824734979E+02  0.32772992429E+02  0.33248928474E+03  0.17175291981E+03 0.  0.
         24    2    5    5    0    0  0.44096873173E+02 -0.47224364689E+02  0.35366972718E+01  0.10250227778E+03  0.79495495963E+02 0.  0.
          5    1    5    5  501    0  0.22405887812E+03 -0.42600370290E+02  0.29236295158E+02  0.22998700696E+03  0.47000000000E+01 0. -1.
        -11    1    6    6    0    0  0.81999937138E+01  0.13476974581E+02 -0.22370002799E+02  0.27373084700E+02  0.00000000000E+00 0.  1.
         12    1    6    6    0    0  0.35896879459E+02 -0.60701339270E+02  0.25906700071E+02  0.75129193079E+02  0.00000000000E+00 0. -1.
         -5    1    3    3    0  503 -0.21165460058E+03  0.50316210890E+02  0.18294410311E+03  0.28428863130E+03  0.47000000000E+01 0.  1.
         13    1    4    4    0    0 -0.47063554087E+02 -0.38812099899E+01  0.69098274758E+01  0.47726173428E+02  0.00000000000E+00 0. -1.
        -14    1    4    4    0    0 -0.94375966339E+01  0.43389734078E+02  0.97690256343E+02  0.10730854317E+03  0.00000000000E+00 0.  1.
</event>
<event>
12    1  0.1032880E+000  0.3062253E+03  0.7818608E-02  0.1082224E+00
         21   -1    0    0  501  502  0.00000000000E+00  0.00000000000E+00  0.15874549541E+04  0.15874549541E+04  0.00000000000E+00 0. -1.
         21   -1    0    0  502  503 -0.00000000000E+00 -0.00000000000E+00 -0.10340955962E+03  0.10340955962E+03  0.00000000000E+00 0. -1.
         -6    2    1    2    0  503  0.22842732573E+03 -0.10805735096E+03  0.12958389986E+04  0.13314266851E+04  0.17217105828E+03 0.  0.
        -24    2    3    3    0    0  0.57934975806E+02 -0.68362018194E+00  0.55894301357E+03  0.56746690725E+03  0.79021956733E+02 0.  0.
          6    2    1    2  501    0 -0.22842732573E+03  0.10805735096E+03  0.18820639589E+03  0.35943782861E+03  0.17296956653E+03 0.  0.
         24    2    5    5    0    0 -0.15753580992E+03  0.14289719747E+03  0.13775843747E+03  0.26559482979E+03  0.79536696338E+02 0.  0.
          5    1    5    5  501    0 -0.70891515812E+02 -0.34839846511E+02  0.50447958414E+02  0.93842998818E+02  0.47000000000E+01 0. -1.
        -13    1    6    6    0    0 -0.85702509635E+02  0.29556909338E+02  0.37573016541E+02  0.98133901478E+02  0.00000000000E+00 0.  1.
         14    1    6    6    0    0 -0.71833300287E+02  0.11334028814E+03  0.10018542093E+03  0.16746092832E+03  0.00000000000E+00 0. -1.
         -5    1    3    3    0  503  0.17049234993E+03 -0.10737373078E+03  0.73689598503E+03  0.76395977787E+03  0.47000000000E+01 0.  1.
         11    1    4    4    0    0  0.57601793085E+02  0.18073804145E+02  0.22381226266E+03  0.23181147055E+03  0.00000000000E+00 0. -1.
        -12    1    4    4    0    0  0.33318272061E+00 -0.18757424327E+02  0.33513075091E+03  0.33565543670E+03  0.00000000000E+00 0.  1.
</event>
<event>
12    1  0.1032880E+000  0.2081458E+03  0.7818608E-02  0.1143673E+00
         21   -1    0    0  503  502  0.00000000000E+00  0.00000000000E+00  0.31456530767E+02  0.31456530767E+02  0.00000000000E+00 0. -1.
         21   -1    0    0  501  503 -0.00000000000E+00 -0.00000000000E+00 -0.14286687300E+04  0.14286687300E+04  0.00000000000E+00 0. -1.
          6    2    1    2  501    0 -0.89614258212E+02 -0.62286538038E+02 -0.85744350763E+03  0.88161432844E+03  0.17356303536E+03 0.  0.
         24    2    3    3    0    0  0.18917582451E+02 -0.22754286951E+02 -0.43818108325E+03  0.44670625791E+03  0.81658965465E+02 0.  0.
         -6    2    1    2    0  502  0.89614258212E+02  0.62286538038E+02 -0.53976869163E+03  0.57851093235E+03  0.17724088211E+03 0.  0.
        -24    2    5    5    0    0  0.12077043445E+03  0.69816995890E+02 -0.34229577590E+03  0.37839832015E+03  0.80987528338E+02 0.  0.
          5    1    3    3  501    0 -0.10853184066E+03 -0.39532251087E+02 -0.41926242438E+03  0.43490807053E+03  0.47000000000E+01 0. -1.
        -13    1    4    4    0    0 -0.17299072539E+02 -0.40393171981E+01 -0.20861705852E+02  0.27400451916E+02  0.00000000000E+00 0.  1.
         14    1    4    4    0    0  0.36216654991E+02 -0.18714969753E+02 -0.41731937740E+03  0.41930580600E+03  0.00000000000E+00 0. -1.
         -5    1    5    5    0  502 -0.31156176235E+02 -0.75304578517E+01 -0.19747291574E+03  0.20011261220E+03  0.47000000000E+01 0.  1.
         13    1    6    6    0    0  0.15874887719E+02  0.52524263716E+02 -0.10965130701E+03  0.12261410795E+03  0.00000000000E+00 0. -1.
        -14    1    6    6    0    0  0.10489554673E+03  0.17292732173E+02 -0.23264446889E+03  0.25578421221E+03  0.00000000000E+00 0.  1.
</event>
<event>
12    1  0.1032880E+000  0.1888552E+03  0.7818608E-02  0.1160156E+00
         21   -1    0    0  503  502  0.00000000000E+00  0.00000000000E+00  0.25379045417E+02  0.25379045417E+02  0.00000000000E+00 0. -1.
         21   -1    0    0  501  503 -0.00000000000E+00 -0.00000000000E+00 -0.14243671115E+04  0.14243671115E+04  0.00000000000E+00 0. -1.
          6    2    1    2  501    0 -0.50024599327E+01  0.72611545767E+02 -0.81624134537E+03  0.83716144254E+03  0.17114872421E+03 0.  0.
         24    2    3    3    0    0 -0.42755139099E+02 -0.74120055212E+01 -0.30229366908E+03  0.31563163753E+03  0.79742889972E+02 0.  0.
         -6    2    1    2    0  502  0.50024599327E+01 -0.72611545767E+02 -0.58274672075E+03  0.61258471441E+03  0.17426655045E+03 0.  0.
        -24    2    5    5    0    0  0.39261708409E+02  0.46861604619E+01 -0.17661320908E+03  0.19771708396E+03  0.79601368222E+02 0.  0.
          5    1    3    3  501    0  0.37752679166E+02  0.80023551288E+02 -0.51394767629E+03  0.52152980500E+03  0.47000000000E+01 0. -1.
        -13    1    4    4    0    0 -0.53215760514E+02  0.20900197264E+02 -0.23540630526E+03  0.24224959023E+03  0.00000000000E+00 0.  1.
         14    1    4    4    0    0  0.10460621416E+02 -0.28312202785E+02 -0.66887363819E+02  0.73382047298E+02  0.00000000000E+00 0. -1.
         -5    1    5    5    0  502 -0.34259248476E+02 -0.77297706229E+02 -0.40613351167E+03  0.41486763045E+03  0.47000000000E+01 0.  1.
         11    1    6    6    0    0  0.98279183647E+01  0.32607465863E+02 -0.29320395461E+02  0.44939074305E+02  0.00000000000E+00 0. -1.
        -12    1    6    6    0    0  0.29433790044E+02 -0.27921305401E+02 -0.14729281362E+03  0.15277800966E+03  0.00000000000E+00 0.  1.
</event>
<event>
12    1  0.1032880E+000  0.2256670E+03  0.7818608E-02  0.1129954E+00
         21   -1    0    0  503  502  0.00000000000E+00  0.00000000000E+00  0.75440864378E+02  0.75440864378E+02  0.00000000000E+00 0. -1.
         21   -1    0    0  501  503 -0.00000000000E+00 -0.00000000000E+00 -0.67302197720E+03  0.67302197720E+03  0.00000000000E+00 0. -1.
          6    2    1    2  501    0 -0.15237694648E+02  0.14362191602E+03 -0.31695552579E+03  0.38835689086E+03  0.17175804858E+03 0.  0.
         24    2    3    3    0    0  0.26033702567E+02  0.11551960522E+03 -0.30543576406E+03  0.33689950062E+03  0.78662155388E+02 0.  0.
         -6    2    1    2    0  502  0.15237694648E+02 -0.14362191602E+03 -0.28062558704E+03  0.36010595072E+03  0.17339588676E+03 0.  0.
        -24    2    5    5    0    0  0.22982069025E+02 -0.22058021555E+02 -0.18816243032E+03  0.20710503203E+03  0.80452857583E+02 0.  0.
          5    1    3    3  501    0 -0.41271397215E+02  0.28102310795E+02 -0.11519761726E+02  0.51457390240E+02  0.47000000000E+01 0. -1.
        -11    1    4    4    0    0 -0.12158082364E+02  0.98559022126E+02 -0.23289128676E+03  0.25317987925E+03  0.00000000000E+00 0.  1.
         12    1    4    4    0    0  0.38191784931E+02  0.16960583098E+02 -0.72544477300E+02  0.83719621368E+02  0.00000000000E+00 0. -1.
         -5    1    5    5    0  502 -0.77443743765E+01 -0.12156389446E+03 -0.92463156713E+02  0.15300091869E+03  0.47000000000E+01 0.  1.
         11    1    6    6    0    0  0.42899016706E+02 -0.38532100913E+02 -0.15268298461E+03  0.16320889138E+03  0.00000000000E+00 0. -1.
        -12    1    6    6    0    0 -0.19916947681E+02  0.16474079358E+02 -0.35479445712E+02  0.43896140647E+02  0.00000000000E+00 0.  1.
</event>
<event>
12    1  0.1032880E+000  0.1975427E+03  0.7818608E-02  0.1153019E+00
         21   -1    0    0  503  502  0.00000000000E+00  0.00000000000E+00  0.19331972541E+03  0.19331972541E+03  0.00000000000E+00 0.  1.
         21   -1    0    0  501  503 -0.00000000000E+00 -0.00000000000E+00 -0.19710405830E+03  0.19710405830E+03  0.00000000000E+00 0.  1.
          6    2    1    2  501    0  0.13277289980E+02 -0.85300187501E+02  0.10482034703E+02  0.19782059754E+03  0.17768147720E+03 0.  0.
         24    2    3    3    0    0  0.50409861605E+02  0.19988287732E+01 -0.23038029414E+02  0.97095075367E+02  0.79696633541E+02 0.  0.
         -6    2    1    2    0  502 -0.13277289980E+02  0.85300187501E+02 -0.14266367597E+02  0.19260318617E+03  0.17158102944E+03 0.  0.
        -24    2    5    5    0    0 -0.65713950363E+02  0.62330914185E+02 -0.43571707725E+02  0.12811998038E+03  0.79452939053E+02 0.  0.
          5    1    3    3  501    0 -0.37132571625E+02 -0.87299016274E+02  0.33520064116E+02  0.10072552217E+03  0.47000000000E+01 0. -1.
        -11    1    4    4    0    0 -0.15216191609E+02  0.21053234694E+02 -0.69678586453E+01  0.26894650625E+02  0.00000000000E+00 0.  1.
         12    1    4    4    0    0  0.65626053214E+02 -0.19054405920E+02 -0.16070170769E+02  0.70200424742E+02  0.00000000000E+00 0. -1.
         -5    1    5    5    0  502  0.52436660383E+02  0.22969273316E+02  0.29305340128E+02  0.64483205789E+02  0.47000000000E+01 0.  1.
         13    1    6    6    0    0 -0.41156789548E+02  0.80137257251E+02 -0.34366409130E+02  0.96420492646E+02  0.00000000000E+00 0. -1.
        -14    1    6    6    0    0 -0.24557160814E+02 -0.17806343066E+02 -0.92052985947E+01  0.31699487738E+02  0.00000000000E+00 0.  1.
</event>
<event>
12    1  0.1032880E+000  0.2442736E+03  0.7818608E-02  0.1117103E+00
         21   -1    0    0  501  502  0.00000000000E+00  0.00000000000E+00  0.87834386703E+02  0.87834386703E+02  0.00000000000E+00 0.  1.
         21   -1    0    0  502  503 -0.00000000000E+00 -0.00000000000E+00 -0.92271625194E+03  0.92271625194E+03  0.00000000000E+00 0.  1.
         -6    2    1    2    0  503 -0.16850059582E+03  0.41602034347E+02 -0.15633131965E+03  0.28937073705E+03  0.17080035686E+03 0.  0.
        -24    2    3    3    0    0 -0.13254129891E+03  0.38831519084E+02 -0.36002741807E+02  0.16366551268E+03  0.80094443204E+02 0.  0.
          6    2    1    2  501    0  0.16850059582E+03 -0.41602034347E+02 -0.67855054559E+03  0.72117990159E+03  0.17189074288E+03 0.  0.
         24    2    5    5    0    0  0.17480328036E+03 -0.74383770930E+02 -0.52567710104E+03  0.56463359492E+03  0.79909634881E+02 0.  0.
          5    1    5    5  501    0 -0.63026845368E+01  0.32781736583E+02 -0.15287344455E+03  0.15654630668E+03  0.47000000000E+01 0. -1.
        -11    1    6    6    0    0  0.13784024390E+03 -0.25527083932E+02 -0.41628353113E+03  0.43925339287E+03  0.00000000000E+00 0.  1.
         12    1    6    6    0    0  0.36963036460E+02 -0.48856686998E+02 -0.10939356991E+03  0.12538020205E+03  0.00000000000E+00 0. -1.
         -5    1    3    3    0  503 -0.35959296917E+02  0.27705152632E+01 -0.12032857784E+03  0.12570522437E+03  0.47000000000E+01 0.  1.
         13    1    4    4    0    0 -0.13722902005E+03  0.23522671607E+02 -0.19356823527E+02  0.14056957936E+03  0.00000000000E+00 0. -1.
        -14    1    4    4    0    0  0.46877211429E+01  0.15308847477E+02 -0.16645918281E+02  0.23095933322E+02  0.00000000000E+00 0.  1.
</event>
<event>
12    1  0.1032880E+000  0.1902292E+03  0.7818608E-02  0.1158572E+00
         21   -1    0    0  503  502  0.00000000000E+00  0.00000000000E+00  0.21063549637E+03  0.21063549637E+03  0.00000000000E+00 0.  1.
         21   -1    0    0  501  503 -0.00000000000E+00 -0.00000000000E+00 -0.19804977604E+03  0.19804977604E+03  0.00000000000E+00 0.  1.
          6    2    1    2  501    0 -0.44952638255E+02 -0.64354869962E+02  0.82435317865E+02  0.20603751571E+03  0.17173697119E+03 0.  0.
         24    2    3    3    0    0  0.25839488365E+01  0.21555254474E+02  0.60836466671E+01  0.81570876450E+02  0.78393184277E+02 0.  0.
         -6    2    1    2    0  502  0.44952638255E+02  0.64354869962E+02 -0.69849597527E+02  0.20264775670E+03  0.17327682490E+03 0.  0.
        -24    2    5    5    0    0  0.67476684148E+02  0.49064915736E+02 -0.10610832173E+03  0.15706376363E+03  0.80309283680E+02 0.  0.
          5    1    3    3  501    0 -0.47536587092E+02 -0.85910124436E+02  0.76351671198E+02  0.12446663926E+03  0.47000000000E+01 0. -1.
        -11    1    4    4    0    0  0.27487704794E+02  0.18114543474E+02  0.31684153701E+02  0.45690219915E+02  0.00000000000E+00 0.  1.
         12    1    4    4    0    0 -0.24903755958E+02  0.34407109996E+01 -0.25600507034E+02  0.35880656535E+02  0.00000000000E+00 0. -1.
         -5    1    5    5    0  502 -0.22524045893E+02  0.15289954226E+02  0.36258724204E+02  0.45583993074E+02  0.47000000000E+01 0.  1.
         13    1    6    6    0    0  0.70430251739E+02  0.35688687062E+02 -0.38060850493E+02  0.87651189863E+02  0.00000000000E+00 0. -1.
        -14    1    6    6    0    0 -0.29535675905E+01  0.13376228674E+02 -0.68047471238E+02  0.69412573767E+02  0.00000000000E+00 0.  1.
</event>
<event>
12    1  0.1032880E+000  0.5725956E+03  0.7818608E-02  0.9964074E-01
         21   -1    0    0  503  502  0.00000000000E+00  0.00000000000E+00  0.18970961128E+04  0.18970961128E+04  0.00000000000E+00 0. -1.
         21   -1    0    0  501  503 -0.00000000000E+00 -0.00000000000E+00 -0.17338680967E+03  0.17338680967E+03  0.00000000000E+00 0. -1.
          6    2    1    2  501    0  0.52930756114E+02 -0.54350808382E+03  0.79966917727E+03  0.98353267796E+03  0.17222959507E+03 0.  0.
         24    2    3    3    0    0  0.61943439085E+02 -0.55026908573E+03  0.79038126960E+03  0.96819335496E+03  0.77863758535E+02 0.  0.
         -6    2    1    2    0  502 -0.52930756114E+02  0.54350808382E+03  0.92404012588E+03  0.10869502445E+04  0.17148754400E+03 0.  0.
        -24    2    5    5    0    0 -0.88636266888E+02  0.44604359067E+03  0.81261521329E+03  0.93459601233E+03  0.79466652244E+02 0.  0.
          5    1    3    3  501    0 -0.90126829706E+01  0.67610019135E+01  0.92879076694E+01  0.15339322999E+02  0.47000000000E+01 0. -1.
        -13    1    4    4    0    0  0.33030704181E+02 -0.28445732285E+03  0.34113393016E+03  0.44539797289E+03  0.00000000000E+00 0.  1.
         14    1    4    4    0    0  0.28912734903E+02 -0.26581176288E+03  0.44924733943E+03  0.52279538207E+03  0.00000000000E+00 0. -1.
         -5    1    5    5    0  502  0.35705510774E+02  0.97464493155E+02  0.11142491260E+03  0.15235423221E+03  0.47000000000E+01 0.  1.
         11    1    6    6    0    0  0.13189013398E+02  0.48499142188E+02  0.10946700308E+03  0.12045389836E+03  0.00000000000E+00 0. -1.
        -12    1    6    6    0    0 -0.10182528029E+03  0.39754444848E+03  0.70314821021E+03  0.81414211397E+03  0.00000000000E+00 0.  1.
</event>
<event>
12    1  0.1032880E+000  0.4344911E+03  0.7818608E-02  0.1032517E+00
         21   -1    0    0  503  502  0.00000000000E+00  0.00000000000E+00  0.56698423982E+03  0.56698423982E+03  0.00000000000E+00 0. -1.
         21   -1    0    0  501  503 -0.00000000000E+00 -0.00000000000E+00 -0.39639034087E+03  0.39639034087E+03  0.00000000000E+00 0.  1.
          6    2    1    2  501    0  0.39232334420E+03  0.72540927376E+02  0.27904067304E+03  0.51637799392E+03  0.17205447639E+03 0.  0.
         24    2    3    3    0    0  0.28747288444E+03  0.83046867607E+02  0.13538279816E+03  0.33815434591E+03  0.80513465436E+02 0.  0.
         -6    2    1    2    0  502 -0.39232334420E+03 -0.72540927376E+02 -0.10844677410E+03  0.44699658677E+03  0.16989836147E+03 0.  0.
        -24    2    5    5    0    0 -0.31384282331E+03  0.17464421239E+01 -0.93386407233E+02  0.33778710881E+03  0.82938181942E+02 0.  0.
          5    1    3    3  501    0  0.10485045976E+03 -0.10505940231E+02  0.14365787489E+03  0.17822364801E+03  0.47000000000E+01 0. -1.
        -13    1    4    4    0    0  0.94303055695E+02  0.66871400187E+02  0.42124504655E+02  0.12304196182E+03  0.00000000000E+00 0.  1.
         14    1    4    4    0    0  0.19316982874E+03  0.16175467420E+02  0.93258293500E+02  0.21511238409E+03  0.00000000000E+00 0. -1.
         -5    1    5    5    0  502 -0.78480520891E+02 -0.74287369500E+02 -0.15060366865E+02  0.10920947796E+03  0.47000000000E+01 0.  1.
         13    1    6    6    0    0 -0.74191333929E+02 -0.33114881716E+02 -0.36239276139E+02  0.88961983770E+02  0.00000000000E+00 0. -1.
        -14    1    6    6    0    0 -0.23965148938E+03  0.34861323840E+02 -0.57147131094E+02  0.24882512504E+03  0.00000000000E+00 0.  1.
</event>
<event>
12    1  0.1032880E+000  0.3732360E+03  0.7818608E-02  0.1053487E+00
         21   -1    0    0  501  502  0.00000000000E+00  0.00000000000E+00  0.93264760824E+03  0.93264760824E+03  0.00000000000E+00 0.  1.
         21   -1    0    0  502  503 -0.00000000000E+00 -0.00000000000E+00 -0.29980217170E+03  0.29980217170E+03  0.00000000000E+00 0.  1.
         -6    2    1    2    0  503  0.25315750165E+03  0.21349432614E+03 -0.12018731246E+03  0.39210983127E+03  0.17215278609E+03 0.  0.
        -24    2    3    3    0    0  0.20427292011E+03  0.12598003884E+03 -0.25474127940E+02  0.25412022979E+03  0.79559813441E+02 0.  0.
          6    2    1    2  501    0 -0.25315750165E+03 -0.21349432614E+03  0.75303274901E+03  0.84033994867E+03  0.17159359057E+03 0.  0.
         24    2    5    5    0    0 -0.47845811370E+02 -0.10440361030E+03  0.31149032659E+03  0.34130540554E+03  0.79207454073E+02 0.  0.
          5    1    5    5  501    0 -0.20531169028E+03 -0.10909071585E+03  0.44154242241E+03  0.49903454313E+03  0.47000000000E+01 0. -1.
        -11    1    6    6    0    0 -0.36229833993E+02 -0.60513644525E+01  0.12318777633E+03  0.12854745474E+03  0.00000000000E+00 0.  1.
         12    1    6    6    0    0 -0.11615977377E+02 -0.98352245845E+02  0.18830255027E+03  0.21275795080E+03  0.00000000000E+00 0. -1.
         -5    1    3    3    0  503  0.48884581540E+02  0.87514287304E+02 -0.94713184519E+02  0.13798960148E+03  0.47000000000E+01 0.  1.
         11    1    4    4    0    0  0.66515463555E+02  0.22368473082E+02 -0.40618099770E+02  0.81083201151E+02  0.00000000000E+00 0. -1.
        -12    1    4    4    0    0  0.13775745656E+03  0.10361156576E+03  0.15143971830E+02  0.17303702864E+03  0.00000000000E+00 0.  1.
</event>
<event>
12    1  0.1032880E+000  0.3053305E+03  0.7818608E-02  0.1082792E+00
         21   -1    0    0  501  502  0.00000000000E+00  0.00000000000E+00  0.13107647149E+03  0.13107647149E+03  0.00000000000E+00 0.  1.
         21   -1    0    0  502  503 -0.00000000000E+00 -0.00000000000E+00 -0.12325820684E+04  0.12325820684E+04  0.00000000000E+00 0.  1.
         -6    2    1    2    0  503  0.20702676696E+03 -0.13904045184E+03 -0.10503243115E+03  0.32145632471E+03  0.17352241242E+03 0.  0.
        -24    2    3    3    0    0  0.62845980821E+02 -0.46128020570E+02 -0.99885995997E+02  0.14978980272E+03  0.79889681531E+02 0.  0.
          6    2    1    2  501    0 -0.20702676696E+03  0.13904045184E+03 -0.99647316573E+03  0.10422022151E+04  0.17616571109E+03 0.  0.
         24    2    5    5    0    0 -0.14086930754E+03  0.32460624943E+02 -0.50953112778E+03  0.53933970187E+03  0.10182087145E+03 0.  0.
          5    1    5    5  501    0 -0.66157459424E+02  0.10657982689E+03 -0.48694203795E+03  0.50286251328E+03  0.47000000000E+01 0. -1.
        -11    1    6    6    0    0 -0.27395551770E+02 -0.20915448315E+02 -0.23512497046E+03  0.23763779996E+03  0.00000000000E+00 0.  1.
         12    1    6    6    0    0 -0.11347375577E+03  0.53376073258E+02 -0.27440615732E+03  0.30170190192E+03  0.00000000000E+00 0. -1.
         -5    1    3    3    0  503  0.14418078614E+03 -0.92912431266E+02 -0.51464351550E+01  0.17166652199E+03  0.47000000000E+01 0.  1.
         13    1    4    4    0    0  0.51764839084E+02 -0.68631144010E+02 -0.70674567387E+02  0.11128668819E+03  0.00000000000E+00 0. -1.
        -14    1    4    4    0    0  0.11081141737E+02  0.22503123440E+02 -0.29211428610E+02  0.38503114526E+02  0.00000000000E+00 0.  1.
</event>
<event>
12    1  0.1032880E+000  0.1785932E+03  0.7818608E-02  0.1169491E+00
         21   -1    0    0  503  502  0.00000000000E+00  0.00000000000E+00  0.10128220640E+03  0.10128220640E+03  0.00000000000E+00 0. -1.
         21   -1    0    0  501  503 -0.00000000000E+00 -0.00000000000E+00 -0.32087494031E+03  0.32087494031E+03  0.00000000000E+00 0. -1.
          6    2    1    2  501    0  0.23038006191E+02  0.36595733639E+02 -0.75559941662E+02  0.19272096513E+03  0.17193623285E+03 0.  0.
         24    2    3    3    0    0  0.49713693455E+02  0.78876750999E+02 -0.72177217049E+02  0.14239393913E+03  0.79834141031E+02 0.  0.
         -6    2    1    2    0  502 -0.23038006191E+02 -0.36595733639E+02 -0.14403279225E+03  0.22943618159E+03  0.17327873133E+03 0.  0.
        -24    2    5    5    0    0 -0.68928495090E+02  0.15909180173E+02 -0.10424936035E+03  0.14901532360E+03  0.79582649402E+02 0.  0.
          5    1    3    3  501    0 -0.26675687265E+02 -0.42281017360E+02 -0.33827246134E+01  0.50327025998E+02  0.47000000000E+01 0. -1.
        -11    1    4    4    0    0 -0.12573836490E+02  0.53373993377E+02 -0.25420306797E+02  0.60440686055E+02  0.00000000000E+00 0.  1.
         12    1    4    4    0    0  0.62287529945E+02  0.25502757622E+02 -0.46756910252E+02  0.81953253073E+02  0.00000000000E+00 0. -1.
         -5    1    5    5    0  502  0.45890488900E+02 -0.52504913812E+02 -0.39783431895E+02  0.80420857986E+02  0.47000000000E+01 0.  1.
         11    1    6    6    0    0 -0.35644587089E+01 -0.79524295517E+01  0.11216203090E+02  0.14203862623E+02  0.00000000000E+00 0. -1.
        -12    1    6    6    0    0 -0.65364036381E+02  0.23861609724E+02 -0.11546556344E+03  0.13481146098E+03  0.00000000000E+00 0.  1.
</event>
<event>
12    1  0.1032880E+000  0.2089433E+03  0.7818608E-02  0.1142977E+00
         21   -1    0    0  501  502  0.00000000000E+00  0.00000000000E+00  0.78033238056E+03  0.78033238056E+03  0.00000000000E+00 0.  1.
         21   -1    0    0  502  503 -0.00000000000E+00 -0.00000000000E+00 -0.75038762349E+02  0.75038762349E+02  0.00000000000E+00 0.  1.
         -6    2    1    2    0  503 -0.41583751938E+02 -0.11049076560E+03  0.57084078415E+03  0.60690608361E+03  0.16893305114E+03 0.  0.
        -24    2    3    3    0    0 -0.27389404964E+02 -0.83242227576E+02  0.56264237520E+03  0.57476162500E+03  0.78134724956E+02 0.  0.
          6    2    1    2  501    0  0.41583751938E+02  0.11049076560E+03  0.13445283406E+03  0.24846505930E+03  0.17239461534E+03 0.  0.
         24    2    5    5    0    0  0.84175333826E+02  0.34845192290E+02  0.91629662373E+02  0.15155164618E+03  0.79197425355E+02 0.  0.
          5    1    5    5  501    0 -0.42591581889E+02  0.75645573306E+02  0.42823171689E+02  0.96913413118E+02  0.47000000000E+01 0. -1.
        -13    1    6    6    0    0  0.36849677139E+02  0.33444313673E+02  0.91554918970E+02  0.10420520145E+03  0.00000000000E+00 0.  1.
         14    1    6    6    0    0  0.47325656687E+02  0.14008786175E+01  0.74743403819E-01  0.47346444728E+02  0.00000000000E+00 0. -1.
         -5    1    3    3    0  503 -0.14194346973E+02 -0.27248538021E+02  0.81984089510E+01  0.32144458614E+02  0.47000000000E+01 0.  1.
         13    1    4    4    0    0 -0.79758476940E+01 -0.93905504320E+02  0.42282256983E+03  0.43319831884E+03  0.00000000000E+00 0. -1.
        -14    1    4    4    0    0 -0.19413557270E+02  0.10663276744E+02  0.13981980537E+03  0.14156330616E+03  0.00000000000E+00 0.  1.
</event>
<event>
12    1  0.1032880E+000  0.1735652E+03  0.7818608E-02  0.1174469E+00
         21   -1    0    0  501  502  0.00000000000E+00  0.00000000000E+00  0.10324043990E+04  0.10324043990E+04  0.00000000000E+00 0. -1.
         21   -1    0    0  502  503 -0.00000000000E+00 -0.00000000000E+00 -0.34668858653E+02  0.34668858653E+02  0.00000000000E+00 0. -1.
         -6    2    1    2    0  503  0.55202171993E+01  0.38418419043E+01  0.71345832144E+03  0.73399908888E+03  0.17229815291E+03 0.  0.
        -24    2    3    3    0    0 -0.58270778606E+01 -0.45662082310E+02  0.22396133099E+03  0.24185196324E+03  0.78833455754E+02 0.  0.
          6    2    1    2  501    0 -0.55202171993E+01 -0.38418419043E+01  0.28427721888E+03  0.33307416874E+03  0.17343480667E+03 0.  0.
         24    2    5    5    0    0  0.54486303211E+02  0.16590652528E+02  0.22589549706E+03  0.24676782620E+03  0.81373075812E+02 0.  0.
          5    1    5    5  501    0 -0.60006520410E+02 -0.20432494432E+02  0.58381721814E+02  0.86306342538E+02  0.47000000000E+01 0. -1.
        -11    1    6    6    0    0  0.14487078192E+02 -0.32745400906E+02  0.82638564347E+02  0.90062583976E+02  0.00000000000E+00 0.  1.
         12    1    6    6    0    0  0.39999225019E+02  0.49336053434E+02  0.14325693272E+03  0.15670524223E+03  0.00000000000E+00 0. -1.
         -5    1    3    3    0  503  0.11347295060E+02  0.49503924214E+02  0.48949699045E+03  0.49214712564E+03  0.47000000000E+01 0.  1.
         11    1    4    4    0    0 -0.34341077988E+01 -0.28822909556E+02  0.22293063118E+03  0.22481240964E+03  0.00000000000E+00 0. -1.
        -12    1    4    4    0    0 -0.23929700618E+01 -0.16839172754E+02  0.10306998150E+01  0.17039553599E+02  0.00000000000E+00 0.  1.
</event>
<event>
12    1  0.1032880E+000  0.1932423E+03  0.7818608E-02  0.1156079E+00
         21   -1    0    0  501  502  0.00000000000E+00  0.00000000000E+00  0.10196350275E+03  0.10196350275E+03  0.00000000000E+00 0. -1.
         21   -1    0    0  502  503 -0.00000000000E+00 -0.00000000000E+00 -0.45802386317E+03  0.45802386317E+03  0.00000000000E+00 0.  1.
         -6    2    1    2    0  503 -0.85814326424E+02  0.23531171732E+02 -0.48916779265E+02  0.19711029130E+03  0.16894318862E+03 0.  0.
        -24    2    3    3    0    0 -0.26265358621E+02 -0.98044960260E+01 -0.84636786481E+02  0.11993934323E+03  0.80225078511E+02 0.  0.
          6    2    1    2  501    0  0.85814326424E+02 -0.23531171732E+02 -0.30714358115E+03  0.36287707461E+03  0.17153651849E+03 0.  0.
         24    2    5    5    0    0  0.49488358706E+02 -0.81794681345E+02 -0.17510006197E+03  0.21397511545E+03  0.77368280249E+02 0.  0.
          5    1    5    5  501    0  0.36325967718E+02  0.58263509613E+02 -0.13204351919E+03  0.14890195916E+03  0.47000000000E+01 0. -1.
        -13    1    6    6    0    0 -0.52170385419E+01  0.12275469578E+02 -0.27840126446E+02  0.30870330173E+02  0.00000000000E+00 0.  1.
         14    1    6    6    0    0  0.54705397248E+02 -0.94070150923E+02 -0.14725993552E+03  0.18310478528E+03  0.00000000000E+00 0. -1.
         -5    1    3    3    0  503 -0.59548967804E+02  0.33335667758E+02  0.35720007217E+02  0.77170948076E+02  0.47000000000E+01 0.  1.
         13    1    4    4    0    0 -0.24475768087E+02 -0.12893814112E+02  0.67556265213E+01  0.28477221696E+02  0.00000000000E+00 0. -1.
        -14    1    4    4    0    0 -0.17895905335E+01  0.30893180861E+01 -0.91392413003E+02  0.91462121531E+02  0.00000000000E+00 0.  1.
</event>
<event>
12    1  0.1032880E+000  0.2002854E+03  0.7818608E-02  0.1149532E+00
         21   -1    0    0  503  502  0.00000000000E+00  0.00000000000E+00  0.36685904861E+02  0.36685904861E+02  0.00000000000E+00 0. -1.
         21   -1    0    0  501  503 -0.00000000000E+00 -0.00000000000E+00 -0.10927438070E+04  0.10927438070E+04  0.00000000000E+00 0. -1.
          6    2    1    2  501    0 -0.10076104733E+03 -0.16409940390E+02 -0.53479139701E+03  0.57100959529E+03  0.17212798957E+03 0.  0.
         24    2    3    3    0    0 -0.10179646574E+03 -0.63974888235E+02 -0.32224724528E+03  0.35315505026E+03  0.80124251456E+02 0.  0.
         -6    2    1    2    0  502  0.10076104733E+03  0.16409940390E+02 -0.52126650515E+03  0.55842011659E+03  0.17231419681E+03 0.  0.
        -24    2    5    5    0    0  0.25183890639E+02  0.62582919344E+02 -0.18661418473E+03  0.21221480733E+03  0.75229119139E+02 0.  0.
          5    1    3    3  501    0  0.10354184087E+01  0.47564947845E+02 -0.21254415174E+03  0.21785454503E+03  0.47000000000E+01 0. -1.
        -11    1    4    4    0    0  0.26310878208E+01 -0.34744437247E+02 -0.99250453064E+02  0.10518912005E+03  0.00000000000E+00 0.  1.
         12    1    4    4    0    0 -0.10442755356E+03 -0.29230450987E+02 -0.22299679221E+03  0.24796593021E+03  0.00000000000E+00 0. -1.
         -5    1    5    5    0  502  0.75577156693E+02 -0.46172978955E+02 -0.33465232042E+03  0.34620530926E+03  0.47000000000E+01 0.  1.
         11    1    6    6    0    0 -0.19950096363E+02  0.15661887218E+01 -0.72160963523E+02  0.74884337138E+02  0.00000000000E+00 0. -1.
        -12    1    6    6    0    0  0.45133987003E+02  0.61016730623E+02 -0.11445322121E+03  0.13733047019E+03  0.00000000000E+00 0.  1.
</event>
<event>
12    1  0.1032880E+000  0.2992973E+03  0.7818608E-02  0.1085603E+00
         21   -1    0    0  501  502  0.00000000000E+00  0.00000000000E+00  0.68164546650E+03  0.68164546650E+03  0.00000000000E+00 0.  1.
         21   -1    0    0  502  503 -0.00000000000E+00 -0.00000000000E+00 -0.15027292801E+03  0.15027292801E+03  0.00000000000E+00 0.  1.
         -6    2    1    2    0  503  0.18892298100E+03 -0.15529548767E+03  0.11815411415E+03  0.32169459144E+03  0.17239035422E+03 0.  0.
        -24    2    3    3    0    0  0.19923014716E+03 -0.17159516421E+03  0.94885172234E+02  0.29110945146E+03  0.81264782683E+02 0.  0.
          6    2    1    2  501    0 -0.18892298100E+03  0.15529548767E+03  0.41321842435E+03  0.51022380308E+03  0.17254066699E+03 0.  0.
         24    2    5    5    0    0 -0.28115132957E+02  0.17635851832E+02  0.13346689445E+03  0.15937861241E+03  0.80539718215E+02 0.  0.
          5    1    5    5  501    0 -0.16080784805E+03  0.13765963584E+03  0.27975152990E+03  0.35084519066E+03  0.47000000000E+01 0. -1.
        -11    1    6    6    0    0  0.14246986174E+02  0.33803078612E+02  0.33791807800E+02  0.49874953765E+02  0.00000000000E+00 0.  1.
         12    1    6    6    0    0 -0.42362119131E+02 -0.16167226780E+02  0.99675086650E+02  0.10950365865E+03  0.00000000000E+00 0. -1.
         -5    1    3    3    0  503 -0.10307166156E+02  0.16299676540E+02  0.23268941911E+02  0.30585139972E+02  0.47000000000E+01 0.  1.
         13    1    4    4    0    0  0.12797437813E+03 -0.15497755908E+03  0.80682294917E+02  0.21657589429E+03  0.00000000000E+00 0. -1.
        -14    1    4    4    0    0  0.71255769030E+02 -0.16617605128E+02  0.14202877317E+02  0.74533557170E+02  0.00000000000E+00 0.  1.
</event>
<event>
12    1  0.1032880E+000  0.3614169E+03  0.7818608E-02  0.1058234E+00
         21   -1    0    0  503  502  0.00000000000E+00  0.00000000000E+00  0.76006271774E+02  0.76006271774E+02  0.00000000000E+00 0. -1.
         21   -1    0    0  501  503 -0.00000000000E+00 -0.00000000000E+00 -0.18153496968E+04  0.18153496968E+04  0.00000000000E+00 0. -1.
          6    2    1    2  501    0 -0.21557282287E+03  0.22895346857E+03 -0.64263426222E+03  0.73729300815E+03  0.17813155855E+03 0.  0.
         24    2    3    3    0    0 -0.19617265084E+03  0.11143545758E+03 -0.47049767269E+03  0.52791310214E+03  0.80141208307E+02 0.  0.
         -6    2    1    2    0  502  0.21557282287E+03 -0.22895346857E+03 -0.10967091628E+04  0.11540629604E+04  0.17377858361E+03 0.  0.
        -24    2    5    5    0    0  0.57968343843E+02 -0.13962299318E+03 -0.39629399041E+03  0.43058344492E+03  0.74150300676E+02 0.  0.
          5    1    3    3  501    0 -0.19400172038E+02  0.11751801099E+03 -0.17213658954E+03  0.20937990601E+03  0.47000000000E+01 0. -1.
        -11    1    4    4    0    0 -0.70554364433E+02 -0.31210651561E+00 -0.15861340387E+03  0.17359789065E+03  0.00000000000E+00 0.  1.
         12    1    4    4    0    0 -0.12561828640E+03  0.11174756410E+03 -0.31188426882E+03  0.35431521150E+03  0.00000000000E+00 0. -1.
         -5    1    5    5    0  502  0.15760447903E+03 -0.89330475389E+02 -0.70041517236E+03  0.72347951548E+03  0.47000000000E+01 0.  1.
         13    1    6    6    0    0 -0.22870099209E+01 -0.38959706692E+00 -0.77458212068E+02  0.77492946885E+02  0.00000000000E+00 0. -1.
        -14    1    6    6    0    0  0.60255353764E+02 -0.13923339611E+03 -0.31883577835E+03  0.35309049804E+03  0.00000000000E+00 0.  1.
</event>
<event>
12    1  0.1032880E+000  0.1755993E+03  0.7818608E-02  0.1172152E+00
         21   -1    0    0  503  502  0.00000000000E+00  0.00000000000E+00  0.88675071528E+02  0.88675071528E+02  0.00000000000E+00 0. -1.
         21   -1    0    0  501  503 -0.00000000000E+00 -0.00000000000E+00 -0.58937638481E+03  0.58937638481E+03  0.00000000000E+00 0. -1.
          6    2    1    2  501    0 -0.48427696150E+01 -0.36402602165E+02 -0.33158878857E+02  0.17862075366E+03  0.17163117587E+03 0.  0.
         24    2    3    3    0    0 -0.38496486650E+02  0.34850388215E+02 -0.31194672060E+02  0.99655511836E+02  0.79130173963E+02 0.  0.
         -6    2    1    2    0  502  0.48427696150E+01  0.36402602165E+02 -0.46754243442E+03  0.49943070267E+03  0.17171632690E+03 0.  0.
        -24    2    5    5    0    0 -0.38882416139E+02  0.46538532224E+02 -0.16413645165E+03  0.19268665737E+03  0.80682686502E+02 0.  0.
          5    1    3    3  501    0  0.33653717035E+02 -0.71252990380E+02 -0.19642067971E+01  0.78965241826E+02  0.47000000000E+01 0. -1.
        -11    1    4    4    0    0  0.20963169123E+01 -0.21621650180E+02  0.33856289351E+01  0.21985285634E+02  0.00000000000E+00 0.  1.
         12    1    4    4    0    0 -0.40592803562E+02  0.56472038395E+02 -0.34580300995E+02  0.77670226203E+02  0.00000000000E+00 0. -1.
         -5    1    5    5    0  502  0.43725185754E+02 -0.10135930059E+02 -0.30340598277E+03  0.30674404530E+03  0.47000000000E+01 0.  1.
         11    1    6    6    0    0 -0.52663563548E+01 -0.15269116732E+02 -0.86157357829E+02  0.87658261123E+02  0.00000000000E+00 0. -1.
        -12    1    6    6    0    0 -0.33616059784E+02  0.61807648956E+02 -0.77979093822E+02  0.10502839625E+03  0.00000000000E+00 0.  1.
</event>
<event>
12    1  0.1032880E+000  0.1815714E+03  0.7818608E-02  0.1166524E+00
         21   -1    0    0  501  502  0.00000000000E+00  0.00000000000E+00  0.35331064687E+03  0.35331064687E+03  0.00000000000E+00 0.  1.
         21   -1    0    0  502  503 -0.00000000000E+00 -0.00000000000E+00 -0.93373505146E+02  0.93373505146E+02  0.00000000000E+00 0.  1.
         -6    2    1    2    0  503 -0.26178229653E+00 -0.57884665804E+02  0.11230643740E+03  0.21266919182E+03  0.17106941925E+03 0.  0.
        -24    2    3    3    0    0  0.12147021196E+02  0.13732245151E+02  0.11199555840E+03  0.13983275187E+03  0.81694973616E+02 0.  0.
          6    2    1    2  501    0  0.26178229653E+00  0.57884665804E+02  0.14763070432E+03  0.23401496019E+03  0.17209727967E+03 0.  0.
         24    2    5    5    0    0 -0.26012861496E+02  0.73220066138E+02  0.33778249057E+02  0.11607428451E+03  0.79337395772E+02 0.  0.
          5    1    5    5  501    0  0.26274643792E+02 -0.15335400334E+02  0.11385245526E+03  0.11794067568E+03  0.47000000000E+01 0. -1.
        -13    1    6    6    0    0 -0.27432079913E+02  0.20753638768E+02  0.50399956896E+02  0.61019572152E+02  0.00000000000E+00 0.  1.
         14    1    6    6    0    0  0.14192184169E+01  0.52466427370E+02 -0.16621707840E+02  0.55054712363E+02  0.00000000000E+00 0. -1.
         -5    1    3    3    0  503 -0.12408803493E+02 -0.71616910955E+02  0.31087900305E+00  0.72836439950E+02  0.47000000000E+01 0.  1.
         13    1    4    4    0    0 -0.19722653052E+02 -0.26095959362E+02  0.42885270894E+02  0.53936338382E+02  0.00000000000E+00 0. -1.
        -14    1    4    4    0    0  0.31869674248E+02  0.39828204513E+02  0.69110287505E+02  0.85896413490E+02  0.00000000000E+00 0.  1.
</event>
<event>
12    1  0.1032880E+000  0.2977865E+03  0.7818608E-02  0.1086594E+00
         21   -1    0    0  501  502  0.00000000000E+00  0.00000000000E+00  0.21543418785E+04  0.21543418785E+04  0.00000000000E+00 0.  1.
         21   -1    0    0  502  503 -0.00000000000E+00 -0.00000000000E+00 -0.11028667852E+03  0.11028667852E+03  0.00000000000E+00 0. -1.
         -6    2    1    2    0  503  0.95967665920E+02 -0.22317622124E+03  0.19189555277E+04  0.19416320826E+04  0.16890058751E+03 0.  0.
        -24    2    3    3    0    0  0.55804075320E+02 -0.22105616054E+03  0.13619861448E+04  0.13831926569E+04  0.78966744490E+02 0.  0.
          6    2    1    2  501    0 -0.95967665920E+02  0.22317622124E+03  0.12509967229E+03  0.32299647438E+03  0.17221897638E+03 0.  0.
         24    2    5    5    0    0 -0.91378790716E+02  0.11338285240E+03  0.13175111414E+03  0.21280585184E+03  0.81989144947E+02 0.  0.
          5    1    5    5  501    0 -0.45888752048E+01  0.10979336884E+03 -0.66514418454E+01  0.11019062254E+03  0.47000000000E+01 0. -1.
        -13    1    6    6    0    0 -0.62571726560E+02  0.10809579029E+03  0.66991916552E+02  0.14173156926E+03  0.00000000000E+00 0.  1.
         14    1    6    6    0    0 -0.28807064156E+02  0.52870621068E+01  0.64759197589E+02  0.71074282573E+02  0.00000000000E+00 0. -1.
         -5    1    3    3    0  503  0.40163590601E+02 -0.21200607047E+01  0.55696938292E+03  0.55843942570E+03  0.47000000000E+01 0.  1.
         11    1    4    4    0    0  0.22235125501E+02 -0.18906190025E+03  0.97259524672E+03  0.99105010815E+03  0.00000000000E+00 0. -1.
        -12    1    4    4    0    0  0.33568949819E+02 -0.31994260281E+02  0.38939089805E+03  0.39214254878E+03  0.00000000000E+00 0.  1.
</event>
<event>
12    1  0.1032880E+000  0.2117019E+03  0.7818608E-02  0.1140443E+00
         21   -1    0    0  501  502  0.00000000000E+00  0.00000000000E+00  0.33258667004E+02  0.33258667004E+02  0.00000000000E+00 0. -1.
         21   -1    0    0  502  503 -0.00000000000E+00 -0.00000000000E+00 -0.13751376559E+04  0.13751376559E+04  0.00000000000E+00 0. -1.
         -6    2    1    2    0  503 -0.12410234135E+03 -0.95226610372E+01 -0.55745320221E+03  0.59590540206E+03  0.16987378650E+03 0.  0.
        -24    2    3    3    0    0 -0.10643476687E+03 -0.42116909405E+02 -0.25300300540E+03  0.28917010811E+03  0.80663728061E+02 0.  0.
          6    2    1    2  501    0  0.12410234135E+03  0.95226610372E+01 -0.78442578671E+03  0.81249092088E+03  0.17124721734E+03 0.  0.
         24    2    5    5    0    0  0.11486428863E+03  0.13168093236E+02 -0.31825839785E+03  0.34619406775E+03  0.72074414769E+02 0.  0.
          5    1    5    5  501    0  0.92380527164E+01 -0.36454321988E+01 -0.46616738886E+03  0.46629685312E+03  0.47000000000E+01 0. -1.
        -13    1    6    6    0    0  0.11735430863E+03  0.43243903717E+01 -0.31542988230E+03  0.33658096315E+03  0.00000000000E+00 0.  1.
         14    1    6    6    0    0 -0.24900199977E+01  0.88437028643E+01 -0.28285155482E+01  0.96131046051E+01  0.00000000000E+00 0. -1.
         -5    1    3    3    0  503 -0.17667574476E+02  0.32594248367E+02 -0.30445019681E+03  0.30673529395E+03  0.47000000000E+01 0.  1.
         11    1    4    4    0    0 -0.93089351858E+02 -0.29613053400E+02 -0.11915920314E+03  0.15408269226E+03  0.00000000000E+00 0. -1.
        -12    1    4    4    0    0 -0.13345415011E+02 -0.12503856005E+02 -0.13384380226E+03  0.13508741585E+03  0.00000000000E+00 0.  1.
</event>
<event>
12    1  0.1032880E+000  0.3220458E+03  0.7818608E-02  0.1074872E+00
         21   -1    0    0  503  502  0.00000000000E+00  0.00000000000E+00  0.76102675132E+03  0.76102675132E+03  0.00000000000E+00 0. -1.
         21   -1    0    0  501  503 -0.00000000000E+00 -0.00000000000E+00 -0.20910926242E+03  0.20910926242E+03  0.00000000000E+00 0.  1.
          6    2    1    2  501    0  0.47472590989E+02  0.26752862072E+03 -0.11077083478E+02  0.32223628225E+03  0.17288235891E+03 0.  0.
         24    2    3    3    0    0 -0.10238504001E+02  0.48034052831E+02  0.93796122561E+01  0.94313044696E+02  0.79967969076E+02 0.  0.
         -6    2    1    2    0  502 -0.47472590989E+02 -0.26752862072E+03  0.56299457237E+03  0.64789973149E+03  0.17025264681E+03 0.  0.
        -24    2    5    5    0    0  0.86120696397E+01 -0.13527678680E+03  0.40592196890E+03  0.43499146605E+03  0.77916326327E+02 0.  0.
          5    1    3    3  501    0  0.57711094989E+02  0.21949456789E+03 -0.20456695734E+02  0.22792323755E+03  0.47000000000E+01 0. -1.
        -11    1    4    4    0    0  0.70904690704E+01  0.13509269505E+02 -0.33371869065E+02  0.36694097060E+02  0.00000000000E+00 0.  1.
         12    1    4    4    0    0 -0.17328973071E+02  0.34524783326E+02  0.42751481321E+02  0.57618947635E+02  0.00000000000E+00 0. -1.
         -5    1    5    5    0  502 -0.56084660628E+02 -0.13225183392E+03  0.15707260348E+03  0.21290826545E+03  0.47000000000E+01 0.  1.
         13    1    6    6    0    0  0.35589975899E+02 -0.27465517523E+02  0.10588138043E+03  0.11502985595E+03  0.00000000000E+00 0. -1.
        -14    1    6    6    0    0 -0.26977906259E+02 -0.10781126928E+03  0.30004058846E+03  0.31996161009E+03  0.00000000000E+00 0.  1.
</event>
<event>
12    1  0.1032880E+000  0.2208674E+03  0.7818608E-02  0.1133265E+00
         21   -1    0    0  501  502  0.00000000000E+00  0.00000000000E+00  0.55879311580E+03  0.55879311580E+03  0.00000000000E+00 0. -1.
         21   -1    0    0  502  503 -0.00000000000E+00 -0.00000000000E+00 -0.12475462348E+03  0.12475462348E+03  0.00000000000E+00 0. -1.
         -6    2    1    2    0  503 -0.39567811172E+02  0.13329579242E+03  0.40438031080E+03  0.46069799795E+03  0.17142295527E+03 0.  0.
        -24    2    3    3    0    0 -0.88136432041E+02  0.12021944934E+03  0.32936746716E+03  0.37026062519E+03  0.79932818587E+02 0.  0.
          6    2    1    2  501    0  0.39567811172E+02 -0.13329579242E+03  0.29658181520E+02  0.22284974134E+03  0.17160716630E+03 0.  0.
         24    2    5    5    0    0  0.73260483924E+02 -0.10885904189E+03 -0.22406985075E+02  0.15602742062E+03  0.81394677336E+02 0.  0.
          5    1    5    5  501    0 -0.33692672752E+02 -0.24436750538E+02  0.52065166596E+02  0.66822320722E+02  0.47000000000E+01 0. -1.
        -13    1    6    6    0    0  0.54159121634E+02 -0.72353637960E+02 -0.52943673383E+02  0.10474393507E+03  0.00000000000E+00 0.  1.
         14    1    6    6    0    0  0.19101362290E+02 -0.36505403925E+02  0.30536688307E+02  0.51283485547E+02  0.00000000000E+00 0. -1.
         -5    1    3    3    0  503  0.48568620869E+02  0.13076343081E+02  0.75012843637E+02  0.90437372761E+02  0.47000000000E+01 0.  1.
         13    1    4    4    0    0 -0.37185098001E+02  0.12351994268E+02  0.14858703699E+03  0.15366655732E+03  0.00000000000E+00 0. -1.
        -14    1    4    4    0    0 -0.50951334040E+02  0.10786745507E+03  0.18078043017E+03  0.21659406787E+03  0.00000000000E+00 0.  1.
</event>
<event>
12    1  0.1032880E+000  0.1869035E+03  0.7818608E-02  0.1163045E+00
         21   -1    0    0  503  502  0.00000000000E+00  0.00000000000E+00  0.95230578993E+03  0.95230578993E+03  0.00000000000E+00 0.  1.
         21   -1    0    0  501  503 -0.00000000000E+00 -0.00000000000E+00 -0.37650738343E+02  0.37650738343E+02  0.00000000000E+00 0.  1.
          6    2    1    2  501    0  0.24499044318E+01  0.48544031306E+02  0.59156531981E+03  0.62038895228E+03  0.18047271126E+03 0.  0.
         24    2    3    3    0    0  0.41713671193E+01  0.10325159047E+03  0.38316440783E+03  0.40486885908E+03  0.80159455981E+02 0.  0.
         -6    2    1    2    0  502 -0.24499044318E+01 -0.48544031306E+02  0.32308973178E+03  0.36956757599E+03  0.17271564328E+03 0.  0.
        -24    2    5    5    0    0  0.30113367449E+02 -0.90982414153E+02  0.20601779694E+03  0.24076807699E+03  0.79632403330E+02 0.  0.
          5    1    3    3  501    0 -0.17214626876E+01 -0.54707559162E+02  0.20840091197E+03  0.21552009321E+03  0.47000000000E+01 0. -1.
        -11    1    4    4    0    0  0.26256250398E+02  0.30112396410E+02  0.23284852341E+03  0.23625109937E+03  0.00000000000E+00 0.  1.
         12    1    4    4    0    0 -0.22084883278E+02  0.73139194058E+02  0.15031588443E+03  0.16861775970E+03  0.00000000000E+00 0. -1.
         -5    1    5    5    0  502 -0.32563271881E+02  0.42438382847E+02  0.11707193485E+03  0.12879949900E+03  0.47000000000E+01 0.  1.
         13    1    6    6    0    0  0.11724694072E+02 -0.76793988708E+02  0.20298797916E+03  0.21734512840E+03  0.00000000000E+00 0. -1.
        -14    1    6    6    0    0  0.18388673377E+02 -0.14188425445E+02  0.30298177719E+01  0.23422948596E+02  0.00000000000E+00 0.  1.
</event>
<event>
12    1  0.1032880E+000  0.2256233E+03  0.7818608E-02  0.1129859E+00
         21   -1    0    0  503  502  0.00000000000E+00  0.00000000000E+00  0.46388220214E+03  0.46388220214E+03  0.00000000000E+00 0. -1.
         21   -1    0    0  501  503 -0.00000000000E+00 -0.00000000000E+00 -0.15283420482E+03  0.15283420482E+03  0.00000000000E+00 0.  1.
          6    2    1    2  501    0 -0.40498266655E+02  0.14038864712E+03 -0.88695689466E+01  0.22524085582E+03  0.17118905349E+03 0.  0.
         24    2    3    3    0    0  0.36550115279E+02  0.94195913738E+02 -0.27972968890E+02  0.13327753886E+03  0.82289940363E+02 0.  0.
         -6    2    1    2    0  502  0.40498266655E+02 -0.14038864712E+03  0.31991756627E+03  0.39147555114E+03  0.17192084251E+03 0.  0.
        -24    2    5    5    0    0 -0.32333394750E+02 -0.55531329192E+02  0.20180983205E+03  0.22875879665E+03  0.86453466064E+02 0.  0.
          5    1    3    3  501    0 -0.77048381933E+02  0.46192733380E+02  0.19103399944E+02  0.91963316954E+02  0.47000000000E+01 0. -1.
        -13    1    4    4    0    0  0.20784741772E+02  0.80430737563E+02 -0.54600124504E+02  0.99409670713E+02  0.00000000000E+00 0.  1.
         14    1    4    4    0    0  0.15765373507E+02  0.13765176174E+02  0.26627155613E+02  0.33867868149E+02  0.00000000000E+00 0. -1.
         -5    1    5    5    0  502  0.72831661405E+02 -0.84857317926E+02  0.11810773421E+03  0.16271675448E+03  0.47000000000E+01 0.  1.
         11    1    6    6    0    0 -0.97045574637E+01 -0.59605562597E+02  0.19593060912E+03  0.20502635226E+03  0.00000000000E+00 0. -1.
        -12    1    6    6    0    0 -0.22628837287E+02  0.40742334052E+01  0.58792229312E+01  0.23732444397E+02  0.00000000000E+00 0.  1.
</event>
<event>
12    1  0.1032880E+000  0.1917881E+03  0.7818608E-02  0.1157862E+00
         21   -1    0    0  501  502  0.00000000000E+00  0.00000000000E+00  0.31910345928E+03  0.31910345928E+03  0.00000000000E+00 0.  1.
         21   -1    0    0  502  503 -0.00000000000E+00 -0.00000000000E+00 -0.25056943439E+03  0.25056943439E+03  0.00000000000E+00 0.  1.
         -6    2    1    2    0  503  0.52447401808E+02  0.65613970614E+02  0.24543216953E+03  0.30875985229E+03  0.16745080904E+03 0.  0.
        -24    2    3    3    0    0  0.48392812158E+02  0.10876733461E+03  0.18860743181E+03  0.23713727667E+03  0.80555119659E+02 0.  0.
          6    2    1    2  501    0 -0.52447401808E+02 -0.65613970614E+02 -0.17689814464E+03  0.26091304138E+03  0.17241443817E+03 0.  0.
         24    2    5    5    0    0  0.27634275884E+02 -0.70167900463E+02 -0.87548873193E+02  0.14074983700E+03  0.80364942349E+02 0.  0.
          5    1    5    5  501    0 -0.80081677692E+02  0.45539298494E+01 -0.89349271444E+02  0.12016320438E+03  0.47000000000E+01 0. -1.
        -13    1    6    6    0    0  0.26155037544E+02  0.47298671476E+01 -0.50746016988E+02  0.57285389693E+02  0.00000000000E+00 0.  1.
         14    1    6    6    0    0  0.14792383403E+01 -0.74897767611E+02 -0.36802856204E+02  0.83464447305E+02  0.00000000000E+00 0. -1.
         -5    1    3    3    0  503  0.40545896502E+01 -0.43153364000E+02  0.56824737724E+02  0.71622575625E+02  0.47000000000E+01 0.  1.
         13    1    4    4    0    0  0.27756574320E-01  0.92570665339E+02  0.11610880257E+03  0.14849438672E+03  0.00000000000E+00 0. -1.
        -14    1    4    4    0    0  0.48365055584E+02  0.16196669275E+02  0.72498629240E+02  0.88642889951E+02  0.00000000000E+00 0.  1.
</event>
<event>
12    1  0.1032880E+000  0.1943911E+03  0.7818608E-02  0.1155553E+00
         21   -1    0    0  501  502  0.00000000000E+00  0.00000000000E+00  0.19143626110E+04  0.19143626110E+04  0.00000000000E+00 0.  1.
         21   -1    0    0  502  503 -0.00000000000E+00 -0.00000000000E+00 -0.21099124754E+02  0.21099124754E+02  0.00000000000E+00 0.  1.
         -6    2    1    2    0  503  0.13473350859E+02 -0.77888600057E+02  0.12201581763E+04  0.12348486840E+04  0.17267637987E+03 0.  0.
        -24    2    3    3    0    0 -0.58700664007E+01 -0.62550150604E+02  0.35494891850E+03  0.36927454767E+03  0.80174670531E+02 0.  0.
          6    2    1    2  501    0 -0.13473350859E+02  0.77888600057E+02  0.67310530995E+03  0.70061305169E+03  0.17759426991E+03 0.  0.
         24    2    5    5    0    0  0.47321501382E+02  0.17973457359E+02  0.49045388754E+03  0.49894632044E+03  0.76420188515E+02 0.  0.
          5    1    5    5  501    0 -0.60794852242E+02  0.59915142697E+02  0.18265142242E+03  0.20166673125E+03  0.47000000000E+01 0. -1.
        -13    1    6    6    0    0 -0.14786364160E+02 -0.92710952744E+01  0.43406109078E+02  0.46783331197E+02  0.00000000000E+00 0.  1.
         14    1    6    6    0    0  0.62107865543E+02  0.27244552634E+02  0.44704777846E+03  0.45216298924E+03  0.00000000000E+00 0. -1.
         -5    1    3    3    0  503  0.19343417260E+02 -0.15338449453E+02  0.86520925776E+03  0.86557413636E+03  0.47000000000E+01 0.  1.
         11    1    4    4    0    0  0.26537665722E+02 -0.52084283791E+02  0.14107458443E+03  0.15270579129E+03  0.00000000000E+00 0. -1.
        -12    1    4    4    0    0 -0.32407732123E+02 -0.10465866813E+02  0.21387433407E+03  0.21656875639E+03  0.00000000000E+00 0.  1.
</event>
<event>
12    1  0.1032880E+000  0.2135669E+03  0.7818608E-02  0.1139351E+00
         21   -1    0    0  503  502  0.00000000000E+00  0.00000000000E+00  0.14871883641E+03  0.14871883641E+03  0.00000000000E+00 0.  1.
         21   -1    0    0  501  503 -0.00000000000E+00 -0.00000000000E+00 -0.71116432361E+03  0.71116432361E+03  0.00000000000E+00 0.  1.
          6    2    1    2  501    0 -0.43088684006E+02 -0.11286082698E+03  0.45548364328E+02  0.21547076474E+03  0.17250737958E+03 0.  0.
         24    2    3    3    0    0 -0.63947145597E+02 -0.47753598429E+02 -0.26374259814E+02  0.11612802221E+03  0.80127850146E+02 0.  0.
         -6    2    1    2    0  502  0.43088684006E+02  0.11286082698E+03 -0.60799385154E+03  0.64441239528E+03  0.17611533359E+03 0.  0.
        -24    2    5    5    0    0 -0.26082174948E+02  0.11556755724E+03 -0.34191962499E+03  0.36944054554E+03  0.74438878268E+02 0.  0.
          5    1    3    3  501    0  0.20858461591E+02 -0.65107228556E+02  0.71922624142E+02  0.99342742531E+02  0.47000000000E+01 0. -1.
        -11    1    4    4    0    0 -0.32025816731E+02 -0.55513863332E+02 -0.45050745548E+02  0.78339081140E+02  0.00000000000E+00 0.  1.
         12    1    4    4    0    0 -0.31921328866E+02  0.77602649032E+01  0.18676485734E+02  0.37788941072E+02  0.00000000000E+00 0. -1.
         -5    1    5    5    0  502  0.69170858954E+02 -0.27067302569E+01 -0.26607422654E+03  0.27497184974E+03  0.47000000000E+01 0.  1.
         11    1    6    6    0    0  0.85731312575E+01  0.59275934889E+02 -0.24437390863E+03  0.25160632396E+03  0.00000000000E+00 0. -1.
        -12    1    6    6    0    0 -0.34655306205E+02  0.56291622352E+02 -0.97545716358E+02  0.11783422158E+03  0.00000000000E+00 0.  1.
</event>
<event>
12    1  0.1032880E+000  0.2587507E+03  0.7818608E-02  0.1108142E+00
         21   -1    0    0  501  502  0.00000000000E+00  0.00000000000E+00  0.79261853180E+02  0.79261853180E+02  0.00000000000E+00 0. -1.
         21   -1    0    0  502  503 -0.00000000000E+00 -0.00000000000E+00 -0.14607950534E+04  0.14607950534E+04  0.00000000000E+00 0. -1.
         -6    2    1    2    0  503 -0.17287071360E+03 -0.84266434639E+02 -0.18979655853E+03  0.32089666667E+03  0.17310927596E+03 0.  0.
        -24    2    3    3    0    0 -0.99376788129E+02 -0.84751812737E+02 -0.19186527009E+03  0.24722196110E+03  0.85134014358E+02 0.  0.
          6    2    1    2  501    0  0.17287071360E+03  0.84266434639E+02 -0.11917366417E+04  0.12191602399E+04  0.17067616058E+03 0.  0.
         24    2    5    5    0    0  0.10793856205E+03  0.68993665724E+01 -0.91815505928E+03  0.92749121557E+03  0.74383517172E+02 0.  0.
          5    1    5    5  501    0  0.64932151554E+02  0.77367068066E+02 -0.27358158238E+03  0.29166902431E+03  0.47000000000E+01 0. -1.
        -13    1    6    6    0    0  0.55194266165E+02  0.36801819010E+02 -0.59597564385E+03  0.59965635907E+03  0.00000000000E+00 0.  1.
         14    1    6    6    0    0  0.52744295886E+02 -0.29902452438E+02 -0.32217941543E+03  0.32783485650E+03  0.00000000000E+00 0. -1.
         -5    1    3    3    0  503 -0.73493925476E+02  0.48537809881E+00  0.20687115647E+01  0.73674705573E+02  0.47000000000E+01 0.  1.
         13    1    4    4    0    0  0.93208270367E+01 -0.56608286634E+01  0.22206467022E+01  0.11128974327E+02  0.00000000000E+00 0. -1.
        -14    1    4    4    0    0 -0.10869761517E+03 -0.79090984074E+02 -0.19408591680E+03  0.23609298677E+03  0.00000000000E+00 0.  1.
</event>
<event>
12    1  0.1032880E+000  0.2400470E+03  0.7818608E-02  0.1122245E+00
         21   -1    0    0  501  502  0.00000000000E+00  0.00000000000E+00  0.33931924610E+03  0.33931924610E+03  0.00000000000E+00 0.  1.
         21   -1    0    0  502  503 -0.00000000000E+00 -0.00000000000E+00 -0.16632016173E+03  0.16632016173E+03  0.00000000000E+00 0.  1.
         -6    2    1    2    0  503  0.68128671036E+01 -0.14729300932E+03  0.13409424872E+03  0.26246014575E+03  0.17077006416E+03 0.  0.
        -24    2    3    3    0    0 -0.33723287784E+02 -0.14599873726E+03  0.64169229976E+02  0.18148821703E+03  0.79795936147E+02 0.  0.
          6    2    1    2  501    0 -0.68128671036E+01  0.14729300932E+03  0.38904835643E+02  0.24317926208E+03  0.18942260033E+03 0.  0.
         24    2    5    5    0    0  0.70114804922E+02  0.98167810411E+02  0.19625244271E+01  0.14459946572E+03  0.79700370861E+02 0.  0.
          5    1    5    5  501    0 -0.76927672025E+02  0.49125198910E+02  0.36942311216E+02  0.98579796354E+02  0.47000000000E+01 0. -1.
        -13    1    6    6    0    0  0.37961369719E+02  0.61652681260E+02 -0.37880606886E+02  0.81713273558E+02  0.00000000000E+00 0.  1.
         14    1    6    6    0    0  0.32153435203E+02  0.36515129151E+02  0.39843131314E+02  0.62886192166E+02  0.00000000000E+00 0. -1.
         -5    1    3    3    0  503  0.40536154888E+02 -0.12942720614E+01  0.69925018746E+02  0.80971928715E+02  0.47000000000E+01 0.  1.
         13    1    4    4    0    0  0.23438936965E+02 -0.70606530540E+02  0.36783450097E+02  0.82992096744E+02  0.00000000000E+00 0. -1.
        -14    1    4    4    0    0 -0.57162224749E+02 -0.75392206719E+02  0.27385779880E+02  0.98496120288E+02  0.00000000000E+00 0.  1.
</event>
<event>
12    1  0.1032880E+000  0.2221003E+03  0.7818608E-02  0.1132499E+00
         21   -1    0    0  501  502  0.00000000000E+00  0.00000000000E+00  0.18573299540E+03  0.18573299540E+03  0.00000000000E+00 0.  1.
         21   -1    0    0  502  503 -0.00000000000E+00 -0.00000000000E+00 -0.35913429810E+03  0.35913429810E+03  0.00000000000E+00 0.  1.
         -6    2    1    2    0  503 -0.20827449572E+02  0.13729778213E+03 -0.22643360502E+03  0.31652335655E+03  0.17213481381E+03 0.  0.
        -24    2    3    3    0    0 -0.79055962410E+02  0.72199666074E+02 -0.14959954902E+03  0.20010219617E+03  0.78728818575E+02 0.  0.
          6    2    1    2  501    0  0.20827449572E+02 -0.13729778213E+03  0.53032302318E+02  0.22834393695E+03  0.17333223826E+03 0.  0.
         24    2    5    5    0    0 -0.41901704218E+02 -0.36032231058E+02 -0.24689255329E+01  0.96844374738E+02  0.79490017195E+02 0.  0.
          5    1    5    5  501    0  0.62729153791E+02 -0.10126555107E+03  0.55501227851E+02  0.13149956221E+03  0.47000000000E+01 0. -1.
        -13    1    6    6    0    0 -0.11167376196E+02 -0.33712348425E+02 -0.36502834999E+02  0.50928279869E+02  0.00000000000E+00 0.  1.
         14    1    6    6    0    0 -0.30734328023E+02 -0.23198826324E+01  0.34033909467E+02  0.45916094869E+02  0.00000000000E+00 0. -1.
         -5    1    3    3    0  503  0.58228512837E+02  0.65098116056E+02 -0.76834056007E+02  0.11642116038E+03  0.47000000000E+01 0.  1.
         13    1    4    4    0    0 -0.31684405497E+02 -0.80243095667E+00 -0.60997245809E+01  0.32276184519E+02  0.00000000000E+00 0. -1.
        -14    1    4    4    0    0 -0.47371556913E+02  0.73002097031E+02 -0.14349982443E+03  0.16782601165E+03  0.00000000000E+00 0.  1.
</event>
<event>
12    1  0.1032880E+000  0.1849670E+03  0.7818608E-02  0.1166008E+00
         21   -1    0    0  503  502  0.00000000000E+00  0.00000000000E+00  0.24190275868E+03  0.24190275868E+03  0.00000000000E+00 0.  1.
         21   -1    0    0  501  503 -0.00000000000E+00 -0.00000000000E+00 -0.14148648910E+03  0.14148648910E+03  0.00000000000E+00 0.  1.
          6    2    1    2  501    0  0.28184676439E+02 -0.51489142284E+01  0.30775919307E+01  0.18499261748E+03  0.18273453326E+03 0.  0.
         24    2    3    3    0    0  0.39690709808E+02  0.55360510194E+02  0.46217331372E+02  0.10964736967E+03  0.72431798427E+02 0.  0.
         -6    2    1    2    0  502 -0.28184676439E+02  0.51489142284E+01  0.97338677648E+02  0.19839663030E+03  0.17048612097E+03 0.  0.
        -24    2    5    5    0    0 -0.38110495628E+02 -0.15671008082E+02 -0.71369992859E+01  0.91302054701E+02  0.81161185689E+02 0.  0.
          5    1    3    3  501    0 -0.11506033369E+02 -0.60509424423E+02 -0.43139739441E+02  0.75345247806E+02  0.47000000000E+01 0. -1.
        -11    1    4    4    0    0  0.20335662050E+02 -0.75973917907E+01 -0.91922622045E+01  0.23574503123E+02  0.00000000000E+00 0.  1.
         12    1    4    4    0    0  0.19355047757E+02  0.62957901985E+02  0.55409593577E+02  0.86072866551E+02  0.00000000000E+00 0. -1.
         -5    1    5    5    0  502  0.99258191896E+01  0.20819922310E+02  0.10447567693E+03  0.10709457560E+03  0.47000000000E+01 0.  1.
         13    1    6    6    0    0  0.42384335201E+01 -0.18839870454E+02  0.29470949402E+02  0.35234101324E+02  0.00000000000E+00 0. -1.
        -14    1    6    6    0    0 -0.42348929148E+02  0.31688623720E+01 -0.36607948688E+02  0.56067953377E+02  0.00000000000E+00 0.  1.
</event>
<event>
12    1  0.1032880E+000  0.2492332E+03  0.7818608E-02  0.1114862E+00
         21   -1    0    0  501  502  0.00000000000E+00  0.00000000000E+00  0.99660253475E+02  0.99660253475E+02  0.00000000000E+00 0. -1.
         21   -1    0    0  502  503 -0.00000000000E+00 -0.00000000000E+00 -0.69659913882E+03  0.69659913882E+03  0.00000000000E+00 0.  1.
         -6    2    1    2    0  503  0.16131617886E+03  0.57644554065E+02 -0.44495761286E+03  0.51000436560E+03  0.18102864832E+03 0.  0.
        -24    2    3    3    0    0  0.14732718918E+03 -0.13158958170E+02 -0.23630647245E+03  0.28917362143E+03  0.76825617838E+02 0.  0.
          6    2    1    2  501    0 -0.16131617886E+03 -0.57644554065E+02 -0.15198127249E+03  0.28625502670E+03  0.17174932008E+03 0.  0.
         24    2    5    5    0    0 -0.25499631693E+02  0.45752995911E+01 -0.92885860473E+02  0.12553227661E+03  0.80370422500E+02 0.  0.
          5    1    5    5  501    0 -0.13581654717E+03 -0.62219853656E+02 -0.59095412016E+02  0.16072275009E+03  0.47000000000E+01 0. -1.
        -11    1    6    6    0    0 -0.19234160017E+01  0.40487261460E+02 -0.35736778844E+02  0.54037350341E+02  0.00000000000E+00 0.  1.
         12    1    6    6    0    0 -0.23576215691E+02 -0.35911961869E+02 -0.57149081628E+02  0.71494926271E+02  0.00000000000E+00 0. -1.
         -5    1    3    3    0  503  0.13988989679E+02  0.70803512235E+02 -0.20865114041E+03  0.22083074417E+03  0.47000000000E+01 0.  1.
         11    1    4    4    0    0  0.36942956058E+02 -0.35469137438E+02 -0.50638257744E+02  0.72021350030E+02  0.00000000000E+00 0. -1.
        -12    1    4    4    0    0  0.11038423312E+03  0.22310179267E+02 -0.18566821471E+03  0.21715227140E+03  0.00000000000E+00 0.  1.
</event>
<event>
12    1  0.1032880E+000  0.5664426E+03  0.7818608E-02  0.9977600E-01
         21   -1    0    0  501  502  0.00000000000E+00  0.00000000000E+00  0.14305604773E+03  0.14305604773E+03  0.00000000000E+00 0.  1.
         21   -1    0    0  502  503 -0.00000000000E+00 -0.00000000000E+00 -0.24408207793E+04  0.24408207793E+04  0.00000000000E+00 0.  1.
         -6    2    1    2    0  503  0.30675178482E+03 -0.44408311696E+03 -0.15169446940E+04  0.16192524405E+04  0.17190342965E+03 0.  0.
        -24    2    3    3    0    0  0.64613566298E+02 -0.17917878585E+03 -0.55045374846E+03  0.58826647583E+03  0.82329624974E+02 0.  0.
          6    2    1    2  501    0 -0.30675178482E+03  0.44408311696E+03 -0.78082003750E+03  0.96462438648E+03  0.17179581997E+03 0.  0.
         24    2    5    5    0    0 -0.14880540832E+03  0.20494199483E+03 -0.48343553432E+03  0.55159270867E+03  0.80002060088E+02 0.  0.
          5    1    5    5  501    0 -0.15794637650E+03  0.23914112213E+03 -0.29738450318E+03  0.41303167781E+03  0.47000000000E+01 0. -1.
        -13    1    6    6    0    0 -0.12592167202E+03  0.20522484099E+03 -0.45759339013E+03  0.51707370223E+03  0.00000000000E+00 0.  1.
         14    1    6    6    0    0 -0.22883736301E+02 -0.28284616196E+00 -0.25842144187E+02  0.34519006435E+02  0.00000000000E+00 0. -1.
         -5    1    3    3    0  503  0.24213821852E+03 -0.26490433111E+03 -0.96649094556E+03  0.10309859647E+04  0.47000000000E+01 0.  1.
         11    1    4    4    0    0  0.44017076302E+02 -0.12624534855E+03 -0.26055054301E+03  0.29285145808E+03  0.00000000000E+00 0. -1.
        -12    1    4    4    0    0  0.20596489996E+02 -0.52933437297E+02 -0.28990320544E+03  0.29541501775E+03  0.00000000000E+00 0.  1.
</event>
<event>
12    1  0.1032880E+000  0.1905233E+03  0.7818608E-02  0.1158165E+00
         21   -1    0    0  501  502  0.00000000000E+00  0.00000000000E+00  0.51687791518E+03  0.51687791518E+03  0.00000000000E+00 0. -1.
         21   -1    0    0  502  503 -0.00000000000E+00 -0.00000000000E+00 -0.92350441190E+02  0.92350441190E+02  0.00000000000E+00 0. -1.
         -6    2    1    2    0  503  0.53074611491E+02  0.61391361071E+02  0.61886649828E+02  0.19958521143E+03  0.17151817862E+03 0.  0.
        -24    2    3    3    0    0 -0.17545405952E+02 -0.18849098877E+02  0.32166362314E+02  0.88539708299E+02  0.78367565246E+02 0.  0.
          6    2    1    2  501    0 -0.53074611491E+02 -0.61391361071E+02  0.36264082416E+03  0.40964314494E+03  0.17237553552E+03 0.  0.
         24    2    5    5    0    0  0.55580688764E+01 -0.28796098646E+02  0.74204777973E+02  0.11347142941E+03  0.80680287496E+02 0.  0.
          5    1    5    5  501    0 -0.58632680367E+02 -0.32595262425E+02  0.28843604619E+03  0.29617171553E+03  0.47000000000E+01 0. -1.
        -13    1    6    6    0    0 -0.16257571688E+02 -0.42919495465E+02  0.74475876664E+02  0.87481700561E+02  0.00000000000E+00 0.  1.
         14    1    6    6    0    0  0.21815640564E+02  0.14123396818E+02 -0.27109869121E+00  0.25989728845E+02  0.00000000000E+00 0. -1.
         -5    1    3    3    0  503  0.70620017443E+02  0.80240459949E+02  0.29720287513E+02  0.11104550313E+03  0.47000000000E+01 0.  1.
         11    1    4    4    0    0 -0.40704378668E+02  0.13222002915E+02  0.14199888000E+02  0.45092179178E+02  0.00000000000E+00 0. -1.
        -12    1    4    4    0    0  0.23158972716E+02 -0.32071101792E+02  0.17966474314E+02  0.43447529120E+02  0.00000000000E+00 0.  1.
</event>
<event>
12    1  0.1424999E+000  0.1981583E+03  0.7818608E-02  0.1151610E+00
         21   -1    0    0  501  502  0.00000000000E+00  0.00000000000E+00  0.49566277304E+03  0.49566277304E+03  0.00000000000E+00 0.  1.
         21   -1    0    0  502  503 -0.00000000000E+00 -0.00000000000E+00 -0.22751016342E+03  0.22751016342E+03  0.00000000000E+00 0.  1.
         -6    2    1    2    0  503  0.88414792646E+02 -0.36595943017E+02  0.42673042388E+03  0.47049503364E+03  0.17352314951E+03 0.  0.
        -24    2    3    3    0    0  0.79243052189E+02 -0.88949445403E+02  0.34353938666E+03  0.37166260623E+03  0.76956595072E+02 0.  0.
          6    2    1    2  501    0 -0.88414792646E+02  0.36595943017E+02 -0.15857781426E+03  0.25267790281E+03  0.17188007677E+03 0.  0.
         24    2    5    5    0    0 -0.60746606891E+02  0.80094340616E+02 -0.15526625359E+03  0.20080598815E+03  0.78167651404E+02 0.  0.
          5    1    5    5  501    0 -0.27668185754E+02 -0.43498397599E+02 -0.33115606677E+01  0.51871914662E+02  0.47000000000E+01 0. -1.
        -13    1    6    6    0    0  0.13884484589E+02  0.14772739338E+02 -0.52052977375E+01  0.20931026357E+02  0.00000000000E+00 0.  1.
         14    1    6    6    0    0 -0.74631091480E+02  0.65321601278E+02 -0.15006095585E+03  0.17987496179E+03  0.00000000000E+00 0. -1.
         -5    1    3    3    0  503  0.91717404567E+01  0.52353502386E+02  0.83191037216E+02  0.98832427412E+02  0.47000000000E+01 0.  1.
         11    1    4    4    0    0  0.63842487184E+02 -0.22119380310E+02  0.22263261249E+03  0.23265942985E+03  0.00000000000E+00 0. -1.
        -12    1    4    4    0    0  0.15400565005E+02 -0.66830065093E+02  0.12090677417E+03  0.13900317638E+03  0.00000000000E+00 0.  1.
</event>
<event>
12    1  0.1032880E+000  0.2301976E+03  0.7818608E-02  0.1126675E+00
         21   -1    0    0  503  502  0.00000000000E+00  0.00000000000E+00  0.12377603413E+02  0.12377603413E+02  0.00000000000E+00 0. -1.
         21   -1    0    0  501  503 -0.00000000000E+00 -0.00000000000E+00 -0.43534556240E+04  0.43534556240E+04  0.00000000000E+00 0. -1.
          6    2    1    2  501    0 -0.55929113810E+02  0.14172135927E+03 -0.18509946456E+04  0.18651320960E+04  0.17124119855E+03 0.  0.
         24    2    3    3    0    0 -0.80144194038E+02  0.89449183504E+02 -0.16387074131E+04  0.16451168475E+04  0.81383094659E+02 0.  0.
         -6    2    1    2    0  502  0.55929113810E+02 -0.14172135927E+03 -0.24900833750E+04  0.25007011314E+04  0.17256281397E+03 0.  0.
        -24    2    5    5    0    0 -0.21446727538E+02 -0.90795850296E+02 -0.95067024800E+03  0.95849644530E+03  0.78978900172E+02 0.  0.
          5    1    3    3  501    0  0.24215080227E+02  0.52272175768E+02 -0.21228723253E+03  0.22001524848E+03  0.47000000000E+01 0. -1.
        -13    1    4    4    0    0 -0.48081075902E+02  0.66557736619E+02 -0.59184095857E+03  0.59750936596E+03  0.00000000000E+00 0.  1.
         14    1    4    4    0    0 -0.32063118136E+02  0.22891446885E+02 -0.10468664545E+04  0.10476074816E+04  0.00000000000E+00 0. -1.
         -5    1    5    5    0  502  0.77375841348E+02 -0.50925508976E+02 -0.15394131270E+04  0.15422046861E+04  0.47000000000E+01 0.  1.
         13    1    6    6    0    0 -0.15445565835E+02  0.45814991066E+01 -0.44979471199E+02  0.47777698431E+02  0.00000000000E+00 0. -1.
        -14    1    6    6    0    0 -0.60011617027E+01 -0.95377349402E+02 -0.90569077680E+03  0.91071874687E+03  0.00000000000E+00 0.  1.
</event>
<event>
12    1  0.1032880E+000  0.2879279E+03  0.7818608E-02  0.1091789E+00
         21   -1    0    0  501  502  0.00000000000E+00  0.00000000000E+00  0.66093720771E+03  0.66093720771E+03  0.00000000000E+00 0.  1.
         21   -1    0    0  502  503 -0.00000000000E+00 -0.00000000000E+00 -0.24054845773E+03  0.24054845773E+03  0.00000000000E+00 0. -1.
         -6    2    1    2    0  503 -0.16435540711E+02  0.22925546677E+03  0.52306771585E+03  0.59579718364E+03  0.16895636308E+03 0.  0.
        -24    2    3    3    0    0 -0.38613559504E+02  0.23645064499E+03  0.50877562913E+03  0.56804851069E+03  0.80165798298E+02 0.  0.
          6    2    1    2  501    0  0.16435540711E+02 -0.22925546677E+03 -0.10267896586E+03  0.30568848180E+03  0.17341938136E+03 0.  0.
         24    2    5    5    0    0 -0.27867093783E+02 -0.69366507296E+02  0.90113832151E+00  0.11004050515E+03  0.80745361928E+02 0.  0.
          5    1    5    5  501    0  0.44302634494E+02 -0.15988895948E+03 -0.10358010418E+03  0.19564797665E+03  0.47000000000E+01 0. -1.
        -13    1    6    6    0    0  0.25495265229E+02 -0.67036864628E+01  0.76763343944E+01  0.27456767308E+02  0.00000000000E+00 0.  1.
         14    1    6    6    0    0 -0.53362359012E+02 -0.62662820833E+02 -0.67751960729E+01  0.82583737841E+02  0.00000000000E+00 0. -1.
         -5    1    3    3    0  503  0.22178018793E+02 -0.71951782167E+01  0.14292086720E+02  0.27748672941E+02  0.47000000000E+01 0.  1.
         11    1    4    4    0    0 -0.40356989511E+02  0.11687337395E+03  0.18155743840E+03  0.21966150227E+03  0.00000000000E+00 0. -1.
        -12    1    4    4    0    0  0.17434300061E+01  0.11957727104E+03  0.32721819073E+03  0.34838700842E+03  0.00000000000E+00 0.  1.
</event>
<event>
12    1  0.1032880E+000  0.1832012E+03  0.7818608E-02  0.1165187E+00
         21   -1    0    0  501  502  0.00000000000E+00  0.00000000000E+00  0.17832641297E+03  0.17832641297E+03  0.00000000000E+00 0. -1.
         21   -1    0    0  502  503 -0.00000000000E+00 -0.00000000000E+00 -0.25917424204E+03  0.25917424204E+03  0.00000000000E+00 0. -1.
         -6    2    1    2    0  503  0.15297431641E+02 -0.48218371564E+02  0.75431441415E+02  0.19812259772E+03  0.17607850125E+03 0.  0.
        -24    2    3    3    0    0  0.58056471459E+02  0.22812649015E+02  0.24506933540E+02  0.10071039688E+03  0.75173289232E+02 0.  0.
          6    2    1    2  501    0 -0.15297431641E+02  0.48218371564E+02 -0.15627927049E+03  0.23937805729E+03  0.17412530303E+03 0.  0.
         24    2    5    5    0    0 -0.43907665831E+02  0.60902492638E+02 -0.17261744128E+03  0.20376263574E+03  0.78009191504E+02 0.  0.
          5    1    5    5  501    0  0.28610234190E+02 -0.12684121074E+02  0.16338170788E+02  0.35615421555E+02  0.47000000000E+01 0. -1.
        -13    1    6    6    0    0  0.79807201783E+01  0.44443727867E+02 -0.39681599218E+02  0.60112945009E+02  0.00000000000E+00 0.  1.
         14    1    6    6    0    0 -0.51888386009E+02  0.16458764772E+02 -0.13293584206E+03  0.14364969073E+03  0.00000000000E+00 0. -1.
         -5    1    3    3    0  503 -0.42759039818E+02 -0.71031020579E+02  0.50924507876E+02  0.97412200843E+02  0.47000000000E+01 0.  1.
         13    1    4    4    0    0  0.69745813701E+01 -0.20806546497E+02 -0.11200962900E+02  0.24637750147E+02  0.00000000000E+00 0. -1.
        -14    1    4    4    0    0  0.51081890089E+02  0.43619195512E+02  0.35707896440E+02  0.76072646728E+02  0.00000000000E+00 0.  1.
</event>
<event>
12    1  0.1032880E+000  0.1818414E+03  0.7818608E-02  0.1166995E+00
         21   -1    0    0  501  502  0.00000000000E+00  0.00000000000E+00  0.55514383925E+02  0.55514383925E+02  0.00000000000E+00 0. -1.
         21   -1    0    0  502  503 -0.00000000000E+00 -0.00000000000E+00 -0.77802833905E+03  0.77802833905E+03  0.00000000000E+00 0. -1.
         -6    2    1    2    0  503  0.50960908044E+02  0.17403368851E+02 -0.15541684620E+03  0.23920844615E+03  0.17368475245E+03 0.  0.
        -24    2    3    3    0    0  0.68447809108E+02 -0.46186391690E+02 -0.10460140984E+03  0.15581931061E+03  0.80746004667E+02 0.  0.
          6    2    1    2  501    0 -0.50960908044E+02 -0.17403368851E+02 -0.56709710893E+03  0.59433427682E+03  0.16951168177E+03 0.  0.
         24    2    5    5    0    0  0.36586991887E+02  0.77015025130E-02 -0.27675812260E+03  0.29054718504E+03  0.80523290254E+02 0.  0.
          5    1    5    5  501    0 -0.87547899931E+02 -0.17411070353E+02 -0.29033898633E+03  0.30378709178E+03  0.47000000000E+01 0. -1.
        -11    1    6    6    0    0 -0.10502607312E+01  0.36164222424E+02 -0.10744941052E+03  0.11337693704E+03  0.00000000000E+00 0.  1.
         12    1    6    6    0    0  0.37637252619E+02 -0.36156520921E+02 -0.16930871208E+03  0.17717024800E+03  0.00000000000E+00 0. -1.
         -5    1    3    3    0  503 -0.17486901064E+02  0.63589760540E+02 -0.50815436359E+02  0.83389135544E+02  0.47000000000E+01 0.  1.
         11    1    4    4    0    0  0.27416537606E+02 -0.28542720084E+02 -0.10386442725E+03  0.11114932592E+03  0.00000000000E+00 0. -1.
        -12    1    4    4    0    0  0.41031271502E+02 -0.17643671606E+02 -0.73698258579E+00  0.44669984689E+02  0.00000000000E+00 0.  1.
</event>
<event>
12    1  0.1032880E+000  0.2259134E+03  0.7818608E-02  0.1129813E+00
         21   -1    0    0  501  502  0.00000000000E+00  0.00000000000E+00  0.85129123296E+03  0.85129123296E+03  0.00000000000E+00 0. -1.
         21   -1    0    0  502  503 -0.00000000000E+00 -0.00000000000E+00 -0.60527830703E+02  0.60527830703E+02  0.00000000000E+00 0. -1.
         -6    2    1    2    0  503  0.28473741073E+02 -0.14281199056E+03  0.45160861088E+03  0.50431098692E+03  0.17080168478E+03 0.  0.
        -24    2    3    3    0    0 -0.14442581965E+02 -0.11400921558E+03  0.42211673823E+03  0.44461784508E+03  0.79346065194E+02 0.  0.
          6    2    1    2  501    0 -0.28473741073E+02  0.14281199056E+03  0.33915479137E+03  0.40750807675E+03  0.17271607199E+03 0.  0.
         24    2    5    5    0    0 -0.68383273805E+02  0.14464800090E+03  0.23250794476E+03  0.29352657987E+03  0.80613847529E+02 0.  0.
          5    1    5    5  501    0  0.39909532732E+02 -0.18360103457E+01  0.10664684662E+03  0.11398149688E+03  0.47000000000E+01 0. -1.
        -13    1    6    6    0    0 -0.24767729989E+02  0.46045700515E+02  0.21428849504E+02  0.56505243790E+02  0.00000000000E+00 0.  1.
         14    1    6    6    0    0 -0.43615543816E+02  0.98602300390E+02  0.21107909525E+03  0.23702133608E+03  0.00000000000E+00 0. -1.
         -5    1    3    3    0  503  0.42916323037E+02 -0.28802774978E+02  0.29491872656E+02  0.59693141836E+02  0.47000000000E+01 0.  1.
         11    1    4    4    0    0 -0.31536744371E+02 -0.11305769387E+03  0.31530987476E+03  0.33644750781E+03  0.00000000000E+00 0. -1.
        -12    1    4    4    0    0  0.17094162406E+02 -0.95152170718E+00  0.10680686346E+03  0.10817033727E+03  0.00000000000E+00 0.  1.
</event>
<event>
12    1  0.1032880E+000  0.2479222E+03  0.7818608E-02  0.1114633E+00
         21   -1    0    0  501  502  0.00000000000E+00  0.00000000000E+00  0.25314628317E+03  0.25314628317E+03  0.00000000000E+00 0.  1.
         21   -1    0    0  502  503 -0.00000000000E+00 -0.00000000000E+00 -0.30375098219E+03  0.30375098219E+03  0.00000000000E+00 0.  1.
         -6    2    1    2    0  503 -0.12886149589E+03  0.12312373037E+03 -0.15007855480E+03  0.28980849800E+03  0.17233877914E+03 0.  0.
        -24    2    3    3    0    0 -0.81904305017E+02  0.26483999882E+01 -0.11238738221E+03  0.15504204261E+03  0.68496584546E+02 0.  0.
          6    2    1    2  501    0  0.12886149589E+03 -0.12312373037E+03  0.99473855773E+02  0.26708876736E+03  0.17226904413E+03 0.  0.
         24    2    5    5    0    0  0.43115372922E+02 -0.59943939687E+02 -0.16310511830E+02  0.10969692089E+03  0.79468046212E+02 0.  0.
          5    1    5    5  501    0  0.85746122972E+02 -0.63179790682E+02  0.11578436760E+03  0.15739184647E+03  0.47000000000E+01 0. -1.
        -11    1    6    6    0    0 -0.79684845708E+01 -0.56533132309E+02 -0.53745932344E+01  0.57344381132E+02  0.00000000000E+00 0.  1.
         12    1    6    6    0    0  0.51083857493E+02 -0.34108073780E+01 -0.10935918596E+02  0.52352539755E+02  0.00000000000E+00 0. -1.
         -5    1    3    3    0  503 -0.46957190876E+02  0.12047533038E+03 -0.37691172588E+02  0.13476645538E+03  0.47000000000E+01 0.  1.
         11    1    4    4    0    0  0.54345325587E+01  0.16893165489E+02 -0.13200116251E+02  0.22116877117E+02  0.00000000000E+00 0. -1.
        -12    1    4    4    0    0 -0.87338837576E+02 -0.14244765501E+02 -0.99187265962E+02  0.13292516550E+03  0.00000000000E+00 0.  1.
</event>
<event>
12    1  0.1032880E+000  0.2969837E+03  0.7818608E-02  0.1087829E+00
         21   -1    0    0  503  502  0.00000000000E+00  0.00000000000E+00  0.11658949461E+04  0.11658949461E+04  0.00000000000E+00 0.  1.
         21   -1    0    0  501  503 -0.00000000000E+00 -0.00000000000E+00 -0.89175038389E+02  0.89175038389E+02  0.00000000000E+00 0. -1.
          6    2    1    2  501    0 -0.10194549407E+03 -0.21999530669E+03  0.80739606091E+03  0.86028350306E+03  0.17148903097E+03 0.  0.
         24    2    3    3    0    0 -0.56895103070E+01 -0.73635223513E+02  0.19774808793E+03  0.22594981381E+03  0.80588432253E+02 0.  0.
         -6    2    1    2    0  502  0.10194549407E+03  0.21999530669E+03  0.26932384684E+03  0.39478648146E+03  0.15662123975E+03 0.  0.
        -24    2    5    5    0    0  0.12802819870E+03  0.15247506077E+03  0.22226125274E+03  0.30832106147E+03  0.77601215577E+02 0.  0.
          5    1    3    3  501    0 -0.96255983763E+02 -0.14636008318E+03  0.60964797298E+03  0.63433368925E+03  0.47000000000E+01 0. -1.
        -13    1    4    4    0    0 -0.12970435577E+02 -0.71775381699E+02  0.81155554219E+02  0.10911535913E+03  0.00000000000E+00 0.  1.
         14    1    4    4    0    0  0.72809252700E+01 -0.18598418137E+01  0.11659253371E+03  0.11683445468E+03  0.00000000000E+00 0. -1.
         -5    1    5    5    0  502 -0.26082704630E+02  0.67520245928E+02  0.47062594097E+02  0.86465419990E+02  0.47000000000E+01 0.  1.
         11    1    6    6    0    0  0.73015841113E+02  0.87230636658E+02  0.69412818456E+02  0.13326153380E+03  0.00000000000E+00 0. -1.
        -12    1    6    6    0    0  0.55012357587E+02  0.65244424109E+02  0.15284843429E+03  0.17505952767E+03  0.00000000000E+00 0.  1.
</event>
<event>
12    1  0.1234296E+000  0.3357813E+03  0.7818608E-02  0.1068624E+00
         21   -1    0    0  501  502  0.00000000000E+00  0.00000000000E+00  0.34785941430E+03  0.34785941430E+03  0.00000000000E+00 0.  1.
         21   -1    0    0  502  503 -0.00000000000E+00 -0.00000000000E+00 -0.12416010805E+04  0.12416010805E+04  0.00000000000E+00 0.  1.
         -6    2    1    2    0  503  0.54864033675E+02 -0.28311538873E+03  0.23632507046E+03  0.41060764376E+03  0.17200207167E+03 0.  0.
        -24    2    3    3    0    0  0.97679709523E+02 -0.18505626518E+03  0.19395834047E+03  0.29543037335E+03  0.76629763952E+02 0.  0.
          6    2    1    2  501    0 -0.54864033675E+02  0.28311538873E+03 -0.11300667367E+04  0.11788528511E+04  0.17169399987E+03 0.  0.
         24    2    5    5    0    0  0.27423040025E+02  0.13871338591E+03 -0.43991954378E+03  0.46895966277E+03  0.80003335898E+02 0.  0.
          5    1    5    5  501    0 -0.82287073700E+02  0.14440200282E+03 -0.69014719291E+03  0.70989318830E+03  0.47000000000E+01 0. -1.
        -13    1    6    6    0    0  0.44896908766E+02  0.34130457931E+02 -0.14830304867E+03  0.15866447246E+03  0.00000000000E+00 0.  1.
         14    1    6    6    0    0 -0.17473868741E+02  0.10458292798E+03 -0.29161649510E+03  0.31029519031E+03  0.00000000000E+00 0. -1.
         -5    1    3    3    0  503 -0.42815675848E+02 -0.98059123546E+02  0.42366729981E+02  0.11517727041E+03  0.47000000000E+01 0.  1.
         11    1    4    4    0    0  0.39747170045E+02 -0.14226912478E+03  0.10634632062E+03  0.18201615671E+03  0.00000000000E+00 0. -1.
        -12    1    4    4    0    0  0.57932539478E+02 -0.42787140400E+02  0.87612019857E+02  0.11341421665E+03  0.00000000000E+00 0.  1.
</event>
<event>
12    1  0.1032880E+000  0.3469357E+03  0.7818608E-02  0.1063941E+00
         21   -1    0    0  503  502  0.00000000000E+00  0.00000000000E+00  0.44851529962E+03  0.44851529962E+03  0.00000000000E+00 0.  1.
         21   -1    0    0  501  503 -0.00000000000E+00 -0.00000000000E+00 -0.27033306193E+03  0.27033306193E+03  0.00000000000E+00 0.  1.
          6    2    1    2  501    0  0.14189464662E+03  0.26544093247E+03  0.12322981905E+03  0.36817111896E+03  0.17254392241E+03 0.  0.
         24    2    3    3    0    0  0.81565652890E+02  0.25464780765E+03  0.11933519034E+03  0.30658104541E+03  0.90843756386E+02 0.  0.
         -6    2    1    2    0  502 -0.14189464662E+03 -0.26544093247E+03  0.54952418638E+02  0.35067724259E+03  0.17135279625E+03 0.  0.
        -24    2    5    5    0    0 -0.78785518879E+02 -0.24539015788E+03  0.76213282780E+02  0.28097136113E+03  0.81932617021E+02 0.  0.
          5    1    3    3  501    0  0.60328993731E+02  0.10793124820E+02  0.38946287170E+01  0.61590073557E+02  0.47000000000E+01 0. -1.
        -13    1    4    4    0    0  0.20406436893E+02  0.11521860315E+02  0.34911437707E+02  0.42047406751E+02  0.00000000000E+00 0.  1.
         14    1    4    4    0    0  0.61159215998E+02  0.24312594734E+03  0.84423752631E+02  0.26453363865E+03  0.00000000000E+00 0. -1.
         -5    1    5    5    0  502 -0.63109127741E+02 -0.20050774595E+02 -0.21260864142E+02  0.69705881460E+02  0.47000000000E+01 0.  1.
         11    1    6    6    0    0 -0.18850339430E+02 -0.18919887838E+02 -0.13731672527E+02  0.30030922110E+02  0.00000000000E+00 0. -1.
        -12    1    6    6    0    0 -0.59935179450E+02 -0.22647027004E+03  0.89944955306E+02  0.25094043902E+03  0.00000000000E+00 0.  1.
</event>
<event>
12    1  0.1032880E+000  0.1913556E+03  0.7818608E-02  0.1157487E+00
         21   -1    0    0  503  502  0.00000000000E+00  0.00000000000E+00  0.75359776255E+02  0.75359776255E+02  0.00000000000E+00 0.  1.
         21   -1    0    0  501  503 -0.00000000000E+00 -0.00000000000E+00 -0.54400806692E+03  0.54400806692E+03  0.00000000000E+00 0.  1.
          6    2    1    2  501    0 -0.36919465981E+02  0.72358211234E+02 -0.13015393955E+03  0.23052934543E+03  0.17206095844E+03 0.  0.
         24    2    3    3    0    0 -0.26579731015E+02  0.50395856639E+01  0.20304658319E+01  0.81755979211E+02  0.77123523135E+02 0.  0.
         -6    2    1    2    0  502  0.36919465981E+02 -0.72358211234E+02 -0.33849435111E+03  0.38883849775E+03  0.17325759405E+03 0.  0.
        -24    2    5    5    0    0  0.38175153179E+02 -0.47743437811E+02 -0.76904611594E+02  0.12604819039E+03  0.78974988711E+02 0.  0.
          5    1    3    3  501    0 -0.10339734967E+02  0.67318625570E+02 -0.13218440539E+03  0.14877336621E+03  0.47000000000E+01 0. -1.
        -11    1    4    4    0    0 -0.26368805850E+02  0.15436838731E+02 -0.33142353883E+02  0.45077993887E+02  0.00000000000E+00 0.  1.
         12    1    4    4    0    0 -0.21092516489E+00 -0.10397253067E+02  0.35172819715E+02  0.36677985324E+02  0.00000000000E+00 0. -1.
         -5    1    5    5    0  502 -0.12556871980E+01 -0.24614773423E+02 -0.26158973952E+03  0.26279030736E+03  0.47000000000E+01 0.  1.
         13    1    6    6    0    0 -0.10513775591E+02 -0.10127398469E+02  0.11330683791E+02  0.18479395880E+02  0.00000000000E+00 0. -1.
        -14    1    6    6    0    0  0.48688928770E+02 -0.37616039342E+02 -0.88235295385E+02  0.10756879451E+03  0.00000000000E+00 0.  1.
</event>
<event>
12    1  0.1032880E+000  0.2248894E+03  0.7818608E-02  0.1130565E+00
         21   -1    0    0  501  502  0.00000000000E+00  0.00000000000E+00  0.84259197830E+02  0.84259197830E+02  0.00000000000E+00 0. -1.
         21   -1    0    0  502  503 -0.00000000000E+00 -0.00000000000E+00 -0.13879127412E+04  0.13879127412E+04  0.00000000000E+00 0.  1.
         -6    2    1    2    0  503 -0.14147271742E+03  0.13189281775E+02 -0.96829563004E+02  0.24484936477E+03  0.17431798597E+03 0.  0.
        -24    2    3    3    0    0 -0.38758626459E+02  0.18298318988E+02  0.17512924317E+02  0.90990399649E+02  0.78329373209E+02 0.  0.
          6    2    1    2  501    0  0.14147271742E+03 -0.13189281775E+02 -0.12068239803E+04  0.12273225742E+04  0.17236036309E+03 0.  0.
         24    2    5    5    0    0  0.58587545489E+02 -0.93515248762E+01 -0.27630655913E+03  0.29310127214E+03  0.77737311557E+02 0.  0.
          5    1    5    5  501    0  0.82885171928E+02 -0.38377568988E+01 -0.93051742121E+03  0.93422130209E+03  0.47000000000E+01 0. -1.
        -11    1    6    6    0    0  0.51819810414E+01 -0.23069323232E+02 -0.18450027001E+03  0.18600912944E+03  0.00000000000E+00 0.  1.
         12    1    6    6    0    0  0.53405564448E+02  0.13717798356E+02 -0.91806289116E+02  0.10709214269E+03  0.00000000000E+00 0. -1.
         -5    1    3    3    0  503 -0.10271409096E+03 -0.51090372127E+01 -0.11434248732E+03  0.15385896513E+03  0.47000000000E+01 0.  1.
         13    1    4    4    0    0 -0.15364357614E+01  0.43633968474E+02  0.33516612829E+01  0.43789467603E+02  0.00000000000E+00 0. -1.
        -14    1    4    4    0    0 -0.37222190698E+02 -0.25335649486E+02  0.14161263034E+02  0.47200932046E+02  0.00000000000E+00 0.  1.
</event>
<event>
12    1  0.1032880E+000  0.2287557E+03  0.7818608E-02  0.1129073E+00
         21   -1    0    0  501  502  0.00000000000E+00  0.00000000000E+00  0.70613437521E+03  0.70613437521E+03  0.00000000000E+00 0. -1.
         21   -1    0    0  502  503 -0.00000000000E+00 -0.00000000000E+00 -0.71374507745E+02  0.71374507745E+02  0.00000000000E+00 0. -1.
         -6    2    1    2    0  503  0.71777066548E+02  0.11934517298E+03  0.31873196837E+03  0.38737713170E+03  0.17051614852E+03 0.  0.
        -24    2    3    3    0    0  0.33434032055E+02  0.26790722954E+02  0.10850028691E+03  0.15444803433E+03  0.10122403722E+03 0.  0.
          6    2    1    2  501    0 -0.71777066548E+02 -0.11934517298E+03  0.31602789909E+03  0.39013175125E+03  0.18147708597E+03 0.  0.
         24    2    5    5    0    0  0.21966908353E+02 -0.51751293932E+02  0.13893559724E+03  0.17861192076E+03  0.97151307616E+02 0.  0.
          5    1    5    5  501    0 -0.93743974901E+02 -0.67593879050E+02  0.17709230185E+03  0.21151983049E+03  0.47000000000E+01 0. -1.
        -13    1    6    6    0    0  0.37122283216E+02 -0.69092296039E+02  0.13367800739E+03  0.15498909298E+03  0.00000000000E+00 0.  1.
         14    1    6    6    0    0 -0.15155374862E+02  0.17341002107E+02  0.52575898472E+01  0.23622827779E+02  0.00000000000E+00 0. -1.
         -5    1    3    3    0  503  0.38343034494E+02  0.92554450028E+02  0.21023168146E+03  0.23292909738E+03  0.47000000000E+01 0.  1.
         13    1    4    4    0    0  0.13987630119E+02 -0.75552941840E+01  0.11354973914E+03  0.11465722623E+03  0.00000000000E+00 0. -1.
        -14    1    4    4    0    0  0.19446401935E+02  0.34346017138E+02 -0.50494522311E+01  0.39790808101E+02  0.00000000000E+00 0.  1.
</event>
<event>
12    1  0.1032880E+000  0.2375054E+03  0.7818608E-02  0.1121495E+00
         21   -1    0    0  501  502  0.00000000000E+00  0.00000000000E+00  0.20221377742E+03  0.20221377742E+03  0.00000000000E+00 0. -1.
         21   -1    0    0  502  503 -0.00000000000E+00 -0.00000000000E+00 -0.32585602526E+03  0.32585602526E+03  0.00000000000E+00 0. -1.
         -6    2    1    2    0  503 -0.10945707820E+03  0.12131399071E+03  0.38542412194E+02  0.24061245341E+03  0.17236849738E+03 0.  0.
        -24    2    3    3    0    0 -0.29264947865E+02  0.14954719564E+02  0.59160162025E+02  0.10574120394E+03  0.81247748449E+02 0.  0.
          6    2    1    2  501    0  0.10945707820E+03 -0.12131399071E+03 -0.16218466004E+03  0.28745734927E+03  0.17213345807E+03 0.  0.
         24    2    5    5    0    0  0.28059076298E+02 -0.12883534130E+03 -0.10035707742E+03  0.18485644575E+03  0.81942086985E+02 0.  0.
          5    1    5    5  501    0  0.81398001907E+02  0.75213505893E+01 -0.61827582625E+02  0.10260090352E+03  0.47000000000E+01 0. -1.
        -13    1    6    6    0    0 -0.58517466803E+01 -0.56891757833E+02 -0.87138142878E+02  0.10423037462E+03  0.00000000000E+00 0.  1.
         14    1    6    6    0    0  0.33910822978E+02 -0.71943583464E+02 -0.13218934539E+02  0.80626071137E+02  0.00000000000E+00 0. -1.
         -5    1    3    3    0  503 -0.80192130339E+02  0.10635927114E+03 -0.20617749831E+02  0.13487124947E+03  0.47000000000E+01 0.  1.
         11    1    4    4    0    0 -0.40945943121E+02 -0.21985550782E+02  0.19815450069E+02  0.50523130967E+02  0.00000000000E+00 0. -1.
        -12    1    4    4    0    0  0.11680995256E+02  0.36940270347E+02  0.39344711956E+02  0.55218072968E+02  0.00000000000E+00 0.  1.
</event>
<event>
12    1  0.1032880E+000  0.2767337E+03  0.7818608E-02  0.1097564E+00
         21   -1    0    0  503  502  0.00000000000E+00  0.00000000000E+00  0.11457773531E+03  0.11457773531E+03  0.00000000000E+00 0.  1.
         21   -1    0    0  501  503 -0.00000000000E+00 -0.00000000000E+00 -0.67707287426E+03  0.67707287426E+03  0.00000000000E+00 0. -1.
          6    2    1    2  501    0  0.14758619306E+03  0.15808691978E+03 -0.23277824026E+03  0.36119182804E+03  0.17175758765E+03 0.  0.
         24    2    3    3    0    0  0.61503210777E+02  0.27653498419E+02 -0.41014414248E+02  0.11376787565E+03  0.81936478104E+02 0.  0.
         -6    2    1    2    0  502 -0.14758619306E+03 -0.15808691978E+03 -0.32971689869E+03  0.43045878153E+03  0.17265100847E+03 0.  0.
        -24    2    5    5    0    0 -0.87892900483E+02 -0.15915918698E+02 -0.11580100862E+03  0.16672031116E+03  0.80045675291E+02 0.  0.
          5    1    3    3  501    0  0.86082982284E+02  0.13043342137E+03 -0.19176382601E+03  0.24742395239E+03  0.47000000000E+01 0. -1.
        -11    1    4    4    0    0  0.60315598869E+02  0.44331116791E+02 -0.61564267841E+01  0.75107396264E+02  0.00000000000E+00 0.  1.
         12    1    4    4    0    0  0.11876119084E+01 -0.16677618373E+02 -0.34857987464E+02  0.38660479390E+02  0.00000000000E+00 0. -1.
         -5    1    5    5    0  502 -0.59693292579E+02 -0.14217100109E+03 -0.21391589007E+03  0.26373847037E+03  0.47000000000E+01 0.  1.
         11    1    6    6    0    0 -0.77101897755E+02 -0.43740873382E+02 -0.97211598921E+02  0.13156010644E+03  0.00000000000E+00 0. -1.
        -12    1    6    6    0    0 -0.10791002728E+02  0.27824954684E+02 -0.18589409700E+02  0.35160204722E+02  0.00000000000E+00 0.  1.
</event>
<event>
12    1  0.1032880E+000  0.3934869E+03  0.7818608E-02  0.1046153E+00
         21   -1    0    0  501  502  0.00000000000E+00  0.00000000000E+00  0.66012253520E+03  0.66012253520E+03  0.00000000000E+00 0.  1.
         21   -1    0    0  502  503 -0.00000000000E+00 -0.00000000000E+00 -0.23396350262E+03  0.23396350262E+03  0.00000000000E+00 0.  1.
         -6    2    1    2    0  503  0.24422765673E+03 -0.25620404382E+03  0.21996827427E+03  0.45079703803E+03  0.17188445955E+03 0.  0.
        -24    2    3    3    0    0  0.19653860005E+03 -0.11224179663E+03  0.14614684711E+03  0.28206331926E+03  0.83517500751E+02 0.  0.
          6    2    1    2  501    0 -0.24422765673E+03  0.25620404382E+03  0.20619075832E+03  0.44328899979E+03  0.16941914927E+03 0.  0.
         24    2    5    5    0    0 -0.90310052185E+02  0.76465181353E+02  0.12950449029E+03  0.19449277519E+03  0.83983314495E+02 0.  0.
          5    1    5    5  501    0 -0.15391760454E+03  0.17973886246E+03  0.76686268029E+02  0.24879622459E+03  0.47000000000E+01 0. -1.
        -11    1    6    6    0    0 -0.99296005217E+02  0.58757708413E+02  0.13101677317E+03  0.17457823404E+03  0.00000000000E+00 0.  1.
         12    1    6    6    0    0  0.89859530319E+01  0.17707472940E+02 -0.15122828810E+01  0.19914541152E+02  0.00000000000E+00 0. -1.
         -5    1    3    3    0  503  0.47689056676E+02 -0.14396224719E+03  0.73821427157E+02  0.16873371877E+03  0.47000000000E+01 0.  1.
         13    1    4    4    0    0  0.94475575985E+02 -0.78449273743E+02  0.35597455161E+02  0.12785578525E+03  0.00000000000E+00 0. -1.
        -14    1    4    4    0    0  0.10206302407E+03 -0.33792522883E+02  0.11054939195E+03  0.15420753401E+03  0.00000000000E+00 0.  1.
</event>
<event>
12    1  0.1032880E+000  0.1957143E+03  0.7818608E-02  0.1153704E+00
         21   -1    0    0  501  502  0.00000000000E+00  0.00000000000E+00  0.10717308143E+03  0.10717308143E+03  0.00000000000E+00 0. -1.
         21   -1    0    0  502  503 -0.00000000000E+00 -0.00000000000E+00 -0.38459131620E+03  0.38459131620E+03  0.00000000000E+00 0. -1.
         -6    2    1    2    0  503 -0.91725474175E+02  0.16651565271E+02 -0.69954560696E+02  0.20655349829E+03  0.17052820838E+03 0.  0.
        -24    2    3    3    0    0 -0.69699726159E+02 -0.31595896107E+02 -0.97796580674E+02  0.14646839879E+03  0.77668965334E+02 0.  0.
          6    2    1    2  501    0  0.91725474175E+02 -0.16651565271E+02 -0.20746367408E+03  0.28521089934E+03  0.17208499006E+03 0.  0.
         24    2    5    5    0    0  0.69895484702E+02  0.51674402136E+02 -0.15918359720E+03  0.19861966373E+03  0.80961290636E+02 0.  0.
          5    1    5    5  501    0  0.21829989473E+02 -0.68325967407E+02 -0.48280076872E+02  0.86591235615E+02  0.47000000000E+01 0. -1.
        -11    1    6    6    0    0  0.40669300836E+02 -0.14882231645E+02 -0.39635335985E+02  0.58706325961E+02  0.00000000000E+00 0.  1.
         12    1    6    6    0    0  0.29226183866E+02  0.66556633781E+02 -0.11954826122E+03  0.13991333776E+03  0.00000000000E+00 0. -1.
         -5    1    3    3    0  503 -0.22025748016E+02  0.48247461378E+02  0.27842019978E+02  0.60085099497E+02  0.47000000000E+01 0.  1.
         11    1    4    4    0    0  0.17208344707E+02 -0.33740471306E+01 -0.13249189288E+02  0.21978451683E+02  0.00000000000E+00 0. -1.
        -12    1    4    4    0    0 -0.86908070866E+02 -0.28221848976E+02 -0.84547391386E+02  0.12448994711E+03  0.00000000000E+00 0.  1.
</event>
<event>
12    1  0.1032880E+000  0.2224467E+03  0.7818608E-02  0.1132164E+00
         21   -1    0    0  503  502  0.00000000000E+00  0.00000000000E+00  0.50494820911E+03  0.50494820911E+03  0.00000000000E+00 0.  1.
         21   -1    0    0  501  503 -0.00000000000E+00 -0.00000000000E+00 -0.12035033211E+03  0.12035033211E+03  0.00000000000E+00 0.  1.
          6    2    1    2  501    0  0.27179792095E+02 -0.13817865544E+03  0.56712324408E+02  0.22907702227E+03  0.17154565712E+03 0.  0.
         24    2    3    3    0    0  0.22349645434E+02 -0.58917721963E+02  0.94962794782E+02  0.14081143228E+03  0.82698987032E+02 0.  0.
         -6    2    1    2    0  502 -0.27179792095E+02  0.13817865544E+03  0.32788555260E+03  0.39622151894E+03  0.17219313156E+03 0.  0.
        -24    2    5    5    0    0 -0.48866165772E+02  0.10325857867E+03  0.11884789658E+03  0.18312871711E+03  0.79756305576E+02 0.  0.
          5    1    3    3  501    0  0.48301466614E+01 -0.79260933476E+02 -0.38250470374E+02  0.88265589989E+02  0.47000000000E+01 0. -1.
        -11    1    4    4    0    0  0.46394813139E+02 -0.20621304258E+02  0.76834335725E+02  0.92093604673E+02  0.00000000000E+00 0.  1.
         12    1    4    4    0    0 -0.24045167706E+02 -0.38296417706E+02  0.18128459058E+02  0.48717827608E+02  0.00000000000E+00 0. -1.
         -5    1    5    5    0  502  0.21686373677E+02  0.34920076764E+02  0.20903765601E+03  0.21309280184E+03  0.47000000000E+01 0.  1.
         11    1    6    6    0    0 -0.47286408084E+02  0.58999884070E+02  0.11636474705E+03  0.13877227773E+03  0.00000000000E+00 0. -1.
        -12    1    6    6    0    0 -0.15797576881E+01  0.44258694604E+02  0.24831495307E+01  0.44356439375E+02  0.00000000000E+00 0.  1.
</event>
<event>
12    1  0.1032880E+000  0.2427825E+03  0.7818608E-02  0.1118052E+00
         21   -1    0    0  503  502  0.00000000000E+00  0.00000000000E+00  0.58662371099E+03  0.58662371099E+03  0.00000000000E+00 0.  1.
         21   -1    0    0  501  503 -0.00000000000E+00 -0.00000000000E+00 -0.10065587136E+03  0.10065587136E+03  0.00000000000E+00 0.  1.
          6    2    1    2  501    0  0.12038584149E+03  0.12098910285E+03  0.22090475141E+03  0.32824113706E+03  0.17266215863E+03 0.  0.
         24    2    3    3    0    0  0.10868533630E+02  0.72928774753E+02  0.50955381697E+02  0.12037407828E+03  0.80353821246E+02 0.  0.
         -6    2    1    2    0  502 -0.12038584149E+03 -0.12098910285E+03  0.26506308821E+03  0.35903844529E+03  0.17181108995E+03 0.  0.
        -24    2    5    5    0    0 -0.54543786423E+02 -0.36208995451E+02  0.21985768781E+03  0.24246889073E+03  0.78534349772E+02 0.  0.
          5    1    3    3  501    0  0.10951730786E+03  0.48060328095E+02  0.16994936971E+03  0.20786705877E+03  0.47000000000E+01 0. -1.
        -13    1    4    4    0    0  0.92997213552E+01  0.12297303021E+01 -0.18371105388E+02  0.20627519654E+02  0.00000000000E+00 0.  1.
         14    1    4    4    0    0  0.15688122749E+01  0.71699044451E+02  0.69326487085E+02  0.99746558630E+02  0.00000000000E+00 0. -1.
         -5    1    5    5    0  502 -0.65842055064E+02 -0.84780107396E+02  0.45205400398E+02  0.11656955456E+03  0.47000000000E+01 0.  1.
         11    1    6    6    0    0 -0.35930843957E+02 -0.21183410451E+02  0.30664422636E+02  0.51769385175E+02  0.00000000000E+00 0. -1.
        -12    1    6    6    0    0 -0.18612942466E+02 -0.15025585000E+02  0.18919326518E+03  0.19069950556E+03  0.00000000000E+00 0.  1.
</event>
<event>
12    1  0.1032880E+000  0.1891728E+03  0.7818608E-02  0.1159351E+00
         21   -1    0    0  503  502  0.00000000000E+00  0.00000000000E+00  0.57987765687E+02  0.57987765687E+02  0.00000000000E+00 0. -1.
         21   -1    0    0  501  503 -0.00000000000E+00 -0.00000000000E+00 -0.61510882252E+03  0.61510882252E+03  0.00000000000E+00 0. -1.
          6    2    1    2  501    0 -0.28864321179E+02 -0.67990508383E+02 -0.27939260037E+03  0.33741158659E+03  0.17415652546E+03 0.  0.
         24    2    3    3    0    0 -0.37860076118E+02 -0.59504390526E+02 -0.29684057107E+03  0.31551502328E+03  0.80381884917E+02 0.  0.
         -6    2    1    2    0  502  0.28864321179E+02  0.67990508383E+02 -0.27772845647E+03  0.33568500161E+03  0.17348044993E+03 0.  0.
        -24    2    5    5    0    0  0.84416387862E+02  0.57197567245E+02 -0.18033492314E+03  0.22294587785E+03  0.82380165765E+02 0.  0.
          5    1    3    3  501    0  0.89957549387E+01 -0.84861178566E+01  0.17447970708E+02  0.21896563315E+02  0.47000000000E+01 0. -1.
        -11    1    4    4    0    0  0.13482609638E+02 -0.16510562552E+02 -0.15608309999E+02  0.26419666528E+02  0.00000000000E+00 0.  1.
         12    1    4    4    0    0 -0.51342685757E+02 -0.42993827975E+02 -0.28123226107E+03  0.28909535675E+03  0.00000000000E+00 0. -1.
         -5    1    5    5    0  502 -0.55552066682E+02  0.10792941138E+02 -0.97393533330E+02  0.11273912376E+03  0.47000000000E+01 0.  1.
         13    1    6    6    0    0 -0.38043603343E+01  0.83101577294E+01  0.60920596775E+01  0.10983854977E+02  0.00000000000E+00 0. -1.
        -14    1    6    6    0    0  0.88220748196E+02  0.48887409515E+02 -0.18642698281E+03  0.21196202288E+03  0.00000000000E+00 0.  1.
</event>
<event>
12    1  0.1032880E+000  0.1742907E+03  0.7818608E-02  0.1173774E+00
         21   -1    0    0  503  502  0.00000000000E+00  0.00000000000E+00  0.73500935683E+02  0.73500935683E+02  0.00000000000E+00 0.  1.
         21   -1    0    0  501  503 -0.00000000000E+00 -0.00000000000E+00 -0.71439404245E+03  0.71439404245E+03  0.00000000000E+00 0.  1.
          6    2    1    2  501    0  0.19061432754E+02 -0.18640440612E+02 -0.57818769521E+03  0.60388595280E+03  0.17223945208E+03 0.  0.
         24    2    3    3    0    0  0.29139224348E+02 -0.74511800798E+02 -0.44953968676E+03  0.46318921918E+03  0.77828143633E+02 0.  0.
         -6    2    1    2    0  502 -0.19061432754E+02  0.18640440612E+02 -0.62705411566E+02  0.18400902534E+03  0.17092848950E+03 0.  0.
        -24    2    5    5    0    0  0.53427337839E+02  0.26540793666E+02 -0.31074770051E+02  0.10438726372E+03  0.79825843792E+02 0.  0.
          5    1    3    3  501    0 -0.10077791595E+02  0.55871360185E+02 -0.12864800844E+03  0.14069673361E+03  0.47000000000E+01 0. -1.
        -11    1    4    4    0    0  0.22140407436E+02 -0.16663739961E+01 -0.30042705083E+02  0.37356907962E+02  0.00000000000E+00 0.  1.
         12    1    4    4    0    0  0.69988169118E+01 -0.72845426802E+02 -0.41949698168E+03  0.42583231122E+03  0.00000000000E+00 0. -1.
         -5    1    5    5    0  502 -0.72488770593E+02 -0.79003530535E+01 -0.31630641515E+02  0.79621761618E+02  0.47000000000E+01 0.  1.
         11    1    6    6    0    0  0.64170010545E+02 -0.47034155611E+01 -0.97834159828E+01  0.65081699421E+02  0.00000000000E+00 0. -1.
        -12    1    6    6    0    0 -0.10742672706E+02  0.31244209227E+02 -0.21291354068E+02  0.39305564303E+02  0.00000000000E+00 0.  1.
</event>
<event>
12    1  0.1032880E+000  0.2294427E+03  0.7818608E-02  0.1127173E+00
         21   -1    0    0  503  502  0.00000000000E+00  0.00000000000E+00  0.23095379282E+03  0.23095379282E+03  0.00000000000E+00 0.  1.
         21   -1    0    0  501  503 -0.00000000000E+00 -0.00000000000E+00 -0.31568497393E+03  0.31568497393E+03  0.00000000000E+00 0.  1.
          6    2    1    2  501    0  0.23543676003E+02 -0.15020147200E+03  0.10232442285E+03  0.25122546952E+03  0.17184051371E+03 0.  0.
         24    2    3    3    0    0  0.46599276344E+02 -0.93373701970E+02  0.13080949671E+03  0.18344312973E+03  0.75167257774E+02 0.  0.
         -6    2    1    2    0  502 -0.23543676003E+02  0.15020147200E+03 -0.18705560395E+03  0.29541329723E+03  0.17077596535E+03 0.  0.
        -24    2    5    5    0    0 -0.19405161445E+02  0.14822909893E+03 -0.78566715867E+02  0.18672591804E+03  0.79658104210E+02 0.  0.
          5    1    3    3  501    0 -0.23055600341E+02 -0.56827770027E+02 -0.28485073864E+02  0.67782339783E+02  0.47000000000E+01 0. -1.
        -11    1    4    4    0    0 -0.14890423445E+02 -0.26537786003E+02  0.63454297768E+02  0.70373480101E+02  0.00000000000E+00 0.  1.
         12    1    4    4    0    0  0.61489699790E+02 -0.66835915967E+02  0.67355198944E+02  0.11306964963E+03  0.00000000000E+00 0. -1.
         -5    1    5    5    0  502 -0.41385145581E+01  0.19723730717E+01 -0.10848888808E+03  0.10868737919E+03  0.47000000000E+01 0.  1.
         11    1    6    6    0    0 -0.18549452831E+02  0.83826932059E+02 -0.86448602778E+02  0.12183758723E+03  0.00000000000E+00 0. -1.
        -12    1    6    6    0    0 -0.85570861368E+00  0.64402166867E+02  0.78818869117E+01  0.64888330813E+02  0.00000000000E+00 0.  1.
</event>
<event>
12    1  0.1032880E+000  0.3053319E+03  0.7818608E-02  0.1082738E+00
         21   -1    0    0  501  502  0.00000000000E+00  0.00000000000E+00  0.17867389244E+03  0.17867389244E+03  0.00000000000E+00 0. -1.
         21   -1    0    0  502  503 -0.00000000000E+00 -0.00000000000E+00 -0.56811659676E+03  0.56811659676E+03  0.00000000000E+00 0. -1.
         -6    2    1    2    0  503 -0.25023477417E+03  0.30640071519E+02 -0.86289638878E+02  0.31729084127E+03  0.17225365015E+03 0.  0.
        -24    2    3    3    0    0 -0.25026657122E+03 -0.10994647708E+02 -0.77556611595E+02  0.27449123121E+03  0.81093582125E+02 0.  0.
          6    2    1    2  501    0  0.25023477417E+03 -0.30640071519E+02 -0.30315306544E+03  0.42949964793E+03  0.17032882989E+03 0.  0.
         24    2    5    5    0    0  0.12974416888E+03 -0.64786428564E+02 -0.23274761655E+03  0.28575342398E+03  0.80328921472E+02 0.  0.
          5    1    5    5  501    0  0.12049060530E+03  0.34146357045E+02 -0.70405448894E+02  0.14374622394E+03  0.47000000000E+01 0. -1.
        -13    1    6    6    0    0  0.86478462700E+02 -0.71615043031E+02 -0.11778129164E+03  0.16272575568E+03  0.00000000000E+00 0.  1.
         14    1    6    6    0    0  0.43265706178E+02  0.68286144670E+01 -0.11496632491E+03  0.12302766831E+03  0.00000000000E+00 0. -1.
         -5    1    3    3    0  503  0.31797042240E-01  0.41634719227E+02 -0.87330272832E+01  0.42799610065E+02  0.47000000000E+01 0.  1.
         13    1    4    4    0    0 -0.26969179375E+01  0.46839615672E+01  0.10049428836E+02  0.11410691576E+02  0.00000000000E+00 0. -1.
        -14    1    4    4    0    0 -0.24756965328E+03 -0.15678609276E+02 -0.87606040431E+02  0.26308053963E+03  0.00000000000E+00 0.  1.
</event>
<event>
12    1  0.1032880E+000  0.2320793E+03  0.7818608E-02  0.1127147E+00
         21   -1    0    0  501  502  0.00000000000E+00  0.00000000000E+00  0.20259079762E+03  0.20259079762E+03  0.00000000000E+00 0.  1.
         21   -1    0    0  502  503 -0.00000000000E+00 -0.00000000000E+00 -0.27615118008E+03  0.27615118008E+03  0.00000000000E+00 0.  1.
         -6    2    1    2    0  503 -0.16516512758E+02  0.13806783460E+03 -0.10462468660E+03  0.24459287240E+03  0.17188317556E+03 0.  0.
        -24    2    3    3    0    0  0.41896540728E+01  0.13363917908E+03 -0.13713942513E+03  0.20550762510E+03  0.74492809488E+02 0.  0.
          6    2    1    2  501    0  0.16516512758E+02 -0.13806783460E+03  0.31064304136E+02  0.23414910529E+03  0.18580982314E+03 0.  0.
         24    2    5    5    0    0  0.58307872477E+02 -0.12485932343E+03 -0.26951820955E+02  0.16128660956E+03  0.79355599237E+02 0.  0.
          5    1    5    5  501    0 -0.41791359719E+02 -0.13208511170E+02  0.58016125091E+02  0.72862495737E+02  0.47000000000E+01 0. -1.
        -11    1    6    6    0    0 -0.62454996962E+01 -0.67882884190E+02  0.74322071819E+01  0.68573536703E+02  0.00000000000E+00 0.  1.
         12    1    6    6    0    0  0.64553372174E+02 -0.56976439237E+02 -0.34384028137E+02  0.92713072854E+02  0.00000000000E+00 0. -1.
         -5    1    3    3    0  503 -0.20706166831E+02  0.44286555187E+01  0.32514738532E+02  0.39085247298E+02  0.47000000000E+01 0.  1.
         13    1    4    4    0    0 -0.29377726046E+02  0.95465125513E+02 -0.10716191392E+03  0.14649340180E+03  0.00000000000E+00 0. -1.
        -14    1    4    4    0    0  0.33567380118E+02  0.38174053564E+02 -0.29977511211E+02  0.59014223301E+02  0.00000000000E+00 0.  1.
</event>
<event>
12    1  0.1032880E+000  0.1874317E+03  0.7818608E-02  0.1161341E+00
         21   -1    0    0  501  502  0.00000000000E+00  0.00000000000E+00  0.95638443126E+02  0.95638443126E+02  0.00000000000E+00 0.  1.
         21   -1    0    0  502  503 -0.00000000000E+00 -0.00000000000E+00 -0.36917159990E+03  0.36917159990E+03  0.00000000000E+00 0.  1.
         -6    2    1    2    0  503  0.24054850051E+02  0.69293988822E+02 -0.10694662759E+03  0.21579675471E+03  0.17248294261E+03 0.  0.
        -24    2    3    3    0    0  0.68098949852E+02  0.44715275150E+02 -0.11805775098E+03  0.16393595105E+03  0.79375315291E+02 0.  0.
          6    2    1    2  501    0 -0.24054850051E+02 -0.69293988822E+02 -0.16658652919E+03  0.24901328832E+03  0.16993014257E+03 0.  0.
         24    2    5    5    0    0  0.29923482317E+02 -0.35756003642E+02 -0.32427069610E+02  0.10048952790E+03  0.82901892522E+02 0.  0.
          5    1    5    5  501    0 -0.53978332368E+02 -0.33537985180E+02 -0.13415945958E+03  0.14852376042E+03  0.47000000000E+01 0. -1.
        -13    1    6    6    0    0  0.12045692881E+02  0.15091404062E+02  0.18205649592E+02  0.26538554418E+02  0.00000000000E+00 0.  1.
         14    1    6    6    0    0  0.17877789436E+02 -0.50847407704E+02 -0.50632719202E+02  0.73950973483E+02  0.00000000000E+00 0. -1.
         -5    1    3    3    0  503 -0.44044099801E+02  0.24578713672E+02  0.11111123392E+02  0.51860803658E+02  0.47000000000E+01 0.  1.
         11    1    4    4    0    0  0.11002385219E+02  0.10088791822E+01  0.11383736508E+02  0.15863788154E+02  0.00000000000E+00 0. -1.
        -12    1    4    4    0    0  0.57096564633E+02  0.43706395968E+02 -0.12944148749E+03  0.14807216290E+03  0.00000000000E+00 0.  1.
</event>
<event>
12    1  0.1032880E+000  0.2683559E+03  0.7818608E-02  0.1102830E+00
         21   -1    0    0  501  502  0.00000000000E+00  0.00000000000E+00  0.79276981314E+02  0.79276981314E+02  0.00000000000E+00 0. -1.
         21   -1    0    0  502  503 -0.00000000000E+00 -0.00000000000E+00 -0.10232711325E+04  0.10232711325E+04  0.00000000000E+00 0.  1.
         -6    2    1    2    0  503  0.79748844189E+02  0.18666345353E+03 -0.66444232528E+03  0.71503793890E+03  0.16909325063E+03 0.  0.
        -24    2    3    3    0    0  0.93671939230E+02  0.20568006497E+03 -0.57390942039E+03  0.62136947594E+03  0.75161702264E+02 0.  0.
          6    2    1    2  501    0 -0.79748844189E+02 -0.18666345353E+03 -0.27955182586E+03  0.38751017487E+03  0.17553287228E+03 0.  0.
         24    2    5    5    0    0  0.38135438184E+01 -0.15937082269E+03 -0.16286053882E+03  0.24133730851E+03  0.79413721321E+02 0.  0.
          5    1    5    5  501    0 -0.83562388008E+02 -0.27292630847E+02 -0.11669128704E+03  0.14617286636E+03  0.47000000000E+01 0. -1.
        -13    1    6    6    0    0 -0.12026441548E+01 -0.14819749686E+00 -0.40367530751E+02  0.40385713493E+02  0.00000000000E+00 0.  1.
         14    1    6    6    0    0  0.50161879732E+01 -0.15922262519E+03 -0.12249300807E+03  0.20095159502E+03  0.00000000000E+00 0. -1.
         -5    1    3    3    0  503 -0.13923095041E+02 -0.19016611440E+02 -0.90532904889E+02  0.93668462962E+02  0.47000000000E+01 0.  1.
         13    1    4    4    0    0 -0.45715540787E+01  0.55439835562E+02 -0.97357263607E+02  0.11212899380E+03  0.00000000000E+00 0. -1.
        -14    1    4    4    0    0  0.98243493308E+02  0.15024022941E+03 -0.47655215679E+03  0.50924048214E+03  0.00000000000E+00 0.  1.
</event>
<event>
12    1  0.1032880E+000  0.1741555E+03  0.7818608E-02  0.1173824E+00
         21   -1    0    0  501  502  0.00000000000E+00  0.00000000000E+00  0.44653573136E+02  0.44653573136E+02  0.00000000000E+00 0. -1.
         21   -1    0    0  502  503 -0.00000000000E+00 -0.00000000000E+00 -0.73002495342E+03  0.73002495342E+03  0.00000000000E+00 0. -1.
         -6    2    1    2    0  503 -0.41193465425E+01 -0.15762423142E+02 -0.44765211526E+03  0.47999126527E+03  0.17243484404E+03 0.  0.
        -24    2    3    3    0    0 -0.50374620153E+02  0.29361075632E+02 -0.18273635009E+03  0.20726771822E+03  0.78534439927E+02 0.  0.
          6    2    1    2  501    0  0.41193465425E+01  0.15762423142E+02 -0.23771926503E+03  0.29468726129E+03  0.17339178182E+03 0.  0.
         24    2    5    5    0    0 -0.30057668958E+01  0.57047226993E+02 -0.23190981161E+03  0.25213092193E+03  0.80773883972E+02 0.  0.
          5    1    5    5  501    0  0.71251134383E+01 -0.41284803851E+02 -0.58094534172E+01  0.42556339357E+02  0.47000000000E+01 0. -1.
        -11    1    6    6    0    0  0.15313690086E+02 -0.13124546457E+02 -0.21071495306E+02  0.29167974530E+02  0.00000000000E+00 0.  1.
         12    1    6    6    0    0 -0.18319456982E+02  0.70171773449E+02 -0.21083831630E+03  0.22296294740E+03  0.00000000000E+00 0. -1.
         -5    1    3    3    0  503  0.46255273610E+02 -0.45123498774E+02 -0.26491576517E+03  0.27272354705E+03  0.47000000000E+01 0.  1.
         13    1    4    4    0    0 -0.24175553151E+02 -0.26499641181E+02 -0.60260332333E+02  0.70128425091E+02  0.00000000000E+00 0. -1.
        -14    1    4    4    0    0 -0.26199067002E+02  0.55860716813E+02 -0.12247601776E+03  0.13713929313E+03  0.00000000000E+00 0.  1.
</event>
<event>
12    1  0.1032880E+000  0.3187861E+03  0.7818608E-02  0.1076295E+00
         21   -1    0    0  501  502  0.00000000000E+00  0.00000000000E+00  0.41143717289E+03  0.41143717289E+03  0.00000000000E+00 0. -1.
         21   -1    0    0  502  503 -0.00000000000E+00 -0.00000000000E+00 -0.31027661864E+03  0.31027661864E+03  0.00000000000E+00 0. -1.
         -6    2    1    2    0  503 -0.26478329363E+03 -0.39426001314E+02 -0.11316595612E+03  0.33757787064E+03  0.17171978032E+03 0.  0.
        -24    2    3    3    0    0 -0.20731249345E+03  0.21352381787E+02 -0.12037780308E+03  0.25348859984E+03  0.79569219098E+02 0.  0.
          6    2    1    2  501    0  0.26478329363E+03  0.39426001314E+02  0.21432651037E+03  0.38413592090E+03  0.17308942924E+03 0.  0.
         24    2    5    5    0    0  0.10914559614E+03  0.26920485617E+02  0.26878618632E+02  0.14013124283E+03  0.79226456282E+02 0.  0.
          5    1    5    5  501    0  0.15563769749E+03  0.12505515697E+02  0.18744789174E+03  0.24400467807E+03  0.47000000000E+01 0. -1.
        -11    1    6    6    0    0  0.10389021755E+03  0.48571574657E+02  0.27133874598E+02  0.11784999923E+03  0.00000000000E+00 0.  1.
         12    1    6    6    0    0  0.52553785844E+01 -0.21651089040E+02 -0.25525596659E+00  0.22281243598E+02  0.00000000000E+00 0. -1.
         -5    1    3    3    0  503 -0.57470800182E+02 -0.60778383101E+02  0.72118469596E+01  0.84089270793E+02  0.47000000000E+01 0.  1.
         11    1    4    4    0    0 -0.12584306143E+03  0.51529390085E+02 -0.67947728814E+02  0.15201528872E+03  0.00000000000E+00 0. -1.
        -12    1    4    4    0    0 -0.81469432016E+02 -0.30177008298E+02 -0.52430074266E+02  0.10147331112E+03  0.00000000000E+00 0.  1.
</event>
<event>
12    1  0.1032880E+000  0.1787137E+03  0.7818608E-02  0.1169125E+00
         21   -1    0    0  501  502  0.00000000000E+00  0.00000000000E+00  0.50842710915E+02  0.50842710915E+02  0.00000000000E+00 0.  1.
         21   -1    0    0  502  503 -0.00000000000E+00 -0.00000000000E+00 -0.69369971596E+03  0.69369971596E+03  0.00000000000E+00 0.  1.
         -6    2    1    2    0  503  0.20783757347E+02  0.54160092612E+02 -0.20589200148E+03  0.27244391126E+03  0.16872726013E+03 0.  0.
        -24    2    3    3    0    0 -0.10253747036E+01  0.18352602860E+01 -0.19971643058E+03  0.21522718299E+03  0.80197681256E+02 0.  0.
          6    2    1    2  501    0 -0.20783757347E+02 -0.54160092612E+02 -0.43696500357E+03  0.47209851562E+03  0.16903642773E+03 0.  0.
         24    2    5    5    0    0 -0.51302330119E+02 -0.50353301425E+02 -0.16523665071E+03  0.19859483613E+03  0.83482777626E+02 0.  0.
          5    1    5    5  501    0  0.30518572772E+02 -0.38067911872E+01 -0.27172835286E+03  0.27350367948E+03  0.47000000000E+01 0. -1.
        -11    1    6    6    0    0 -0.26211002919E+02 -0.57268701022E+02 -0.16013134420E+03  0.17207198548E+03  0.00000000000E+00 0.  1.
         12    1    6    6    0    0 -0.25091327200E+02  0.69153995973E+01 -0.51053065100E+01  0.26522850654E+02  0.00000000000E+00 0. -1.
         -5    1    3    3    0  503  0.21809132050E+02  0.52324832326E+02 -0.61755708961E+01  0.57216728276E+02  0.47000000000E+01 0.  1.
         11    1    4    4    0    0 -0.31942890911E+01 -0.12154931532E+02  0.22480343403E+01  0.12767125821E+02  0.00000000000E+00 0. -1.
        -12    1    4    4    0    0  0.21689143876E+01  0.13990191818E+02 -0.20196446492E+03  0.20246005716E+03  0.00000000000E+00 0.  1.
</event>
<event>
12    1  0.1032880E+000  0.2676309E+03  0.7818608E-02  0.1102729E+00
         21   -1    0    0  501  502  0.00000000000E+00  0.00000000000E+00  0.13076992909E+04  0.13076992909E+04  0.00000000000E+00 0. -1.
         21   -1    0    0  502  503 -0.00000000000E+00 -0.00000000000E+00 -0.55188588303E+02  0.55188588303E+02  0.00000000000E+00 0.  1.
         -6    2    1    2    0  503  0.18760241450E+03 -0.84217114129E+02  0.69417937334E+03  0.74398340352E+03  0.17128664311E+03 0.  0.
        -24    2    3    3    0    0  0.97169407197E+02 -0.49498679547E+02  0.20359151788E+03  0.24390137782E+03  0.78398743459E+02 0.  0.
          6    2    1    2  501    0 -0.18760241450E+03  0.84217114129E+02  0.55833132929E+03  0.61890447572E+03  0.17035753154E+03 0.  0.
         24    2    5    5    0    0 -0.85080400336E+02  0.94137968645E+01  0.39622482133E+03  0.41297509562E+03  0.78911510394E+02 0.  0.
          5    1    5    5  501    0 -0.10252201417E+03  0.74803317264E+02  0.16210650797E+03  0.20592938010E+03  0.47000000000E+01 0. -1.
        -11    1    6    6    0    0 -0.10544317890E+02 -0.14228194700E+02  0.21335002300E+03  0.21408376042E+03  0.00000000000E+00 0.  1.
         12    1    6    6    0    0 -0.74536082445E+02  0.23641991565E+02  0.18287479833E+03  0.19889133520E+03  0.00000000000E+00 0. -1.
         -5    1    3    3    0  503  0.90433007306E+02 -0.34718434581E+02  0.49058785546E+03  0.50008202571E+03  0.47000000000E+01 0.  1.
         13    1    4    4    0    0  0.14350683557E+02  0.53192170284E+01  0.97042896270E+02  0.98242352908E+02  0.00000000000E+00 0. -1.
        -14    1    4    4    0    0  0.82818723639E+02 -0.54817896576E+02  0.10654862161E+03  0.14565902491E+03  0.00000000000E+00 0.  1.
</event>
<event>
12    1  0.1032880E+000  0.1740890E+03  0.7818608E-02  0.1174093E+00
         21   -1    0    0  503  502  0.00000000000E+00  0.00000000000E+00  0.21643239347E+02  0.21643239347E+02  0.00000000000E+00 0. -1.
         21   -1    0    0  501  503 -0.00000000000E+00 -0.00000000000E+00 -0.14125205291E+04  0.14125205291E+04  0.00000000000E+00 0. -1.
          6    2    1    2  501    0  0.28995535868E+01 -0.75732714285E+01 -0.60114606006E+03  0.62584626958E+03  0.17389998783E+03 0.  0.
         24    2    3    3    0    0 -0.41309636808E+02  0.41993072742E+02 -0.25536572639E+03  0.27371361824E+03  0.78978391599E+02 0.  0.
         -6    2    1    2    0  502 -0.28995535868E+01  0.75732714285E+01 -0.78973122967E+03  0.80831749885E+03  0.17215110216E+03 0.  0.
        -24    2    5    5    0    0 -0.40052427096E+02  0.34947699396E+02 -0.24924670925E+03  0.26584602298E+03  0.75661398695E+02 0.  0.
          5    1    3    3  501    0  0.44209190395E+02 -0.49566344170E+02 -0.34578033367E+03  0.35213265134E+03  0.47000000000E+01 0. -1.
        -11    1    4    4    0    0 -0.46828353333E+01  0.18378593737E+01  0.53789073001E+01  0.73647347256E+01  0.00000000000E+00 0.  1.
         12    1    4    4    0    0 -0.36626801475E+02  0.40155213368E+02 -0.26074463370E+03  0.26634888351E+03  0.00000000000E+00 0. -1.
         -5    1    5    5    0  502  0.37152873510E+02 -0.27374427967E+02 -0.54048452042E+03  0.54247147587E+03  0.47000000000E+01 0.  1.
         11    1    6    6    0    0 -0.30338399448E+01 -0.14067222742E+02 -0.13817017892E+03  0.13891756290E+03  0.00000000000E+00 0. -1.
        -12    1    6    6    0    0 -0.37018587152E+02  0.49014922137E+02 -0.11107653033E+03  0.12692846007E+03  0.00000000000E+00 0.  1.
</event>
<event>
12    1  0.1032880E+000  0.2116988E+03  0.7818608E-02  0.1141608E+00
         21   -1    0    0  501  502  0.00000000000E+00  0.00000000000E+00  0.14657256411E+03  0.14657256411E+03  0.00000000000E+00 0. -1.
         21   -1    0    0  502  503 -0.00000000000E+00 -0.00000000000E+00 -0.32573741871E+03  0.32573741871E+03  0.00000000000E+00 0. -1.
         -6    2    1    2    0  503  0.77014746006E+02  0.79636752064E+02 -0.16702788609E+02  0.20545735941E+03  0.17222212404E+03 0.  0.
        -24    2    3    3    0    0  0.43925143675E+02  0.41398325128E+02 -0.76865078415E+02  0.12672559840E+03  0.80671540463E+02 0.  0.
          6    2    1    2  501    0 -0.77014746006E+02 -0.79636752064E+02 -0.16246206599E+03  0.26685262340E+03  0.18039710737E+03 0.  0.
         24    2    5    5    0    0 -0.12601895719E+03 -0.67494992652E+02 -0.99580862094E+02  0.18607533180E+03  0.65355408371E+02 0.  0.
          5    1    5    5  501    0  0.49004211185E+02 -0.12141759412E+02 -0.62881203897E+02  0.80777291605E+02  0.47000000000E+01 0. -1.
        -11    1    6    6    0    0  0.48914027166E+00  0.49631353926E+01 -0.18699636996E+02  0.19353252825E+02  0.00000000000E+00 0.  1.
         12    1    6    6    0    0 -0.12650809746E+03 -0.72458128044E+02 -0.80881225098E+02  0.16672207897E+03  0.00000000000E+00 0. -1.
         -5    1    3    3    0  503  0.33089602331E+02  0.38238426936E+02  0.60162289806E+02  0.78731761009E+02  0.47000000000E+01 0.  1.
         13    1    4    4    0    0 -0.76282714103E-01  0.48887688801E+02 -0.16388507385E+02  0.51561566207E+02  0.00000000000E+00 0. -1.
        -14    1    4    4    0    0  0.44001426389E+02 -0.74893636733E+01 -0.60476571030E+02  0.75164032197E+02  0.00000000000E+00 0.  1.
</event>
<event>
12    1  0.1032880E+000  0.2038006E+03  0.7818608E-02  0.1146643E+00
         21   -1    0    0  503  502  0.00000000000E+00  0.00000000000E+00  0.44903322295E+02  0.44903322295E+02  0.00000000000E+00 0.  1.
         21   -1    0    0  501  503 -0.00000000000E+00 -0.00000000000E+00 -0.97145216681E+03  0.97145216681E+03  0.00000000000E+00 0.  1.
          6    2    1    2  501    0  0.98367565157E+02 -0.46190620972E+02 -0.34988337461E+03  0.40473651811E+03  0.17199861025E+03 0.  0.
         24    2    3    3    0    0 -0.45192924347E+01 -0.49815689959E+02 -0.21800138770E+03  0.23736329725E+03  0.79465104755E+02 0.  0.
         -6    2    1    2    0  502 -0.98367565157E+02  0.46190620972E+02 -0.57666546991E+03  0.61161897099E+03  0.17240925194E+03 0.  0.
        -24    2    5    5    0    0 -0.13409875731E+03  0.51431143068E+02 -0.46323665909E+03  0.49248725277E+03  0.85602877421E+02 0.  0.
          5    1    3    3  501    0  0.10288685759E+03  0.36250689867E+01 -0.13188198691E+03  0.16737322086E+03  0.47000000000E+01 0. -1.
        -11    1    4    4    0    0 -0.13318175266E+02 -0.66098511753E+01  0.80701688727E-01  0.14868437636E+02  0.00000000000E+00 0.  1.
         12    1    4    4    0    0  0.87988828311E+01 -0.43205838784E+02 -0.21808208939E+03  0.22249485962E+03  0.00000000000E+00 0. -1.
         -5    1    5    5    0  502  0.35731192150E+02 -0.52405220953E+01 -0.11342881082E+03  0.11913171823E+03  0.47000000000E+01 0.  1.
         13    1    6    6    0    0  0.47309130521E+00  0.27217319728E+02 -0.46378217643E+02  0.53776810805E+02  0.00000000000E+00 0. -1.
        -14    1    6    6    0    0 -0.13457184861E+03  0.24213823340E+02 -0.41685844145E+03  0.43871044196E+03  0.00000000000E+00 0.  1.
</event>
<event>
12    1  0.1032880E+000  0.1831598E+03  0.7818608E-02  0.1164974E+00
         21   -1    0    0  503  502  0.00000000000E+00  0.00000000000E+00  0.55155420392E+03  0.55155420392E+03  0.00000000000E+00 0. -1.
         21   -1    0    0  501  503 -0.00000000000E+00 -0.00000000000E+00 -0.73075468800E+02  0.73075468800E+02  0.00000000000E+00 0. -1.
          6    2    1    2  501    0  0.46690498183E+02 -0.40938708442E+02  0.36808964353E+03  0.41077634483E+03  0.17143873345E+03 0.  0.
         24    2    3    3    0    0  0.11534204499E+01 -0.85879246531E+02  0.21843422337E+03  0.24795094080E+03  0.79934871882E+02 0.  0.
         -6    2    1    2    0  502 -0.46690498183E+02  0.40938708442E+02  0.11038909159E+03  0.21385332790E+03  0.17231225679E+03 0.  0.
        -24    2    5    5    0    0  0.39869854688E+02  0.34104961772E+02  0.51243893893E+02  0.10868850871E+03  0.80215344758E+02 0.  0.
          5    1    3    3  501    0  0.45537077733E+02  0.44940538090E+02  0.14965542016E+03  0.16282540403E+03  0.47000000000E+01 0. -1.
        -11    1    4    4    0    0 -0.21375591507E+02 -0.36924743670E+02  0.17072937831E+03  0.17597975231E+03  0.00000000000E+00 0.  1.
         12    1    4    4    0    0  0.22529011957E+02 -0.48954502862E+02  0.47704845061E+02  0.71971188489E+02  0.00000000000E+00 0. -1.
         -5    1    5    5    0  502 -0.86560352871E+02  0.68337466698E+01  0.59145197701E+02  0.10516481918E+03  0.47000000000E+01 0.  1.
         11    1    6    6    0    0 -0.45820646128E+01 -0.20640681347E+02 -0.61701878616E+00  0.21152157213E+02  0.00000000000E+00 0. -1.
        -12    1    6    6    0    0  0.44451919301E+02  0.54745643119E+02  0.51860912679E+02  0.87536351500E+02  0.00000000000E+00 0.  1.
</event>
<event>
12    1  0.1032880E+000  0.2129451E+03  0.7818608E-02  0.1139640E+00
         21   -1    0    0  501  502  0.00000000000E+00  0.00000000000E+00  0.42593357953E+02  0.42593357953E+02  0.00000000000E+00 0.  1.
         21   -1    0    0  502  503 -0.00000000000E+00 -0.00000000000E+00 -0.12431882590E+04  0.12431882590E+04  0.00000000000E+00 0.  1.
         -6    2    1    2    0  503  0.12675409945E+03 -0.50659340955E+01 -0.85292687319E+03  0.87910741967E+03  0.17103607486E+03 0.  0.
        -24    2    3    3    0    0  0.12914864708E+03  0.19568049171E+01 -0.42672810956E+03  0.45281816478E+03  0.79146754430E+02 0.  0.
          6    2    1    2  501    0 -0.12675409945E+03  0.50659340955E+01 -0.34766802790E+03  0.40667419732E+03  0.16857811164E+03 0.  0.
         24    2    5    5    0    0 -0.11678836544E+03 -0.58546699988E+01 -0.14260498212E+03  0.20102518032E+03  0.80007141767E+02 0.  0.
          5    1    5    5  501    0 -0.99657340142E+01  0.10920604094E+02 -0.20506304578E+03  0.20564901700E+03  0.47000000000E+01 0. -1.
        -13    1    6    6    0    0  0.72174285954E+01 -0.11867746035E+02 -0.31466180601E+02  0.34395569382E+02  0.00000000000E+00 0.  1.
         14    1    6    6    0    0 -0.12400579404E+03  0.60130760365E+01 -0.11113880151E+03  0.16662961093E+03  0.00000000000E+00 0. -1.
         -5    1    3    3    0  503 -0.23945476225E+01 -0.70227390126E+01 -0.42619876363E+03  0.42628925489E+03  0.47000000000E+01 0.  1.
         13    1    4    4    0    0  0.10411095922E+03  0.28094014137E+02 -0.37111306973E+03  0.38646251562E+03  0.00000000000E+00 0. -1.
        -14    1    4    4    0    0  0.25037687859E+02 -0.26137209220E+02 -0.55615039834E+02  0.66355649155E+02  0.00000000000E+00 0.  1.
</event>
<event>
12    1  0.1032880E+000  0.1868468E+03  0.7818608E-02  0.1162723E+00
         21   -1    0    0  503  502  0.00000000000E+00  0.00000000000E+00  0.87313702420E+02  0.87313702420E+02  0.00000000000E+00 0. -1.
         21   -1    0    0  501  503 -0.00000000000E+00 -0.00000000000E+00 -0.58277800778E+03  0.58277800778E+03  0.00000000000E+00 0. -1.
          6    2    1    2  501    0 -0.13990989106E+02 -0.62361505005E+02 -0.44441615095E+03  0.48209692835E+03  0.17557627406E+03 0.  0.
         24    2    3    3    0    0 -0.96320132649E+01 -0.37643071302E+02 -0.93181756987E+02  0.12993547228E+03  0.81796152874E+02 0.  0.
         -6    2    1    2    0  502  0.13990989106E+02  0.62361505005E+02 -0.51048154409E+02  0.18799478185E+03  0.16926730001E+03 0.  0.
        -24    2    5    5    0    0  0.65674269292E+02  0.39897044663E+02 -0.66264025235E+02  0.12943347932E+03  0.80356833617E+02 0.  0.
          5    1    3    3  501    0 -0.43589758409E+01 -0.24718433703E+02 -0.35123439396E+03  0.35216145607E+03  0.47000000000E+01 0. -1.
        -11    1    4    4    0    0  0.22922642972E+02 -0.45332219642E+02 -0.78275612455E+02  0.93314142570E+02  0.00000000000E+00 0.  1.
         12    1    4    4    0    0 -0.32554656237E+02  0.76891483403E+01 -0.14906144532E+02  0.36621329710E+02  0.00000000000E+00 0. -1.
         -5    1    5    5    0  502 -0.51683280186E+02  0.22464460343E+02  0.15215870826E+02  0.58561302532E+02  0.47000000000E+01 0.  1.
         11    1    6    6    0    0  0.30744421437E+02  0.35766054648E+02  0.74586510631E+01  0.47749990474E+02  0.00000000000E+00 0. -1.
        -12    1    6    6    0    0  0.34929847854E+02  0.41309900142E+01 -0.73722676298E+02  0.81683488847E+02  0.00000000000E+00 0.  1.
</event>
<event>
12    1  0.1032880E+000  0.2109194E+03  0.7818608E-02  0.1141189E+00
         21   -1    0    0  501  502  0.00000000000E+00  0.00000000000E+00  0.15290353855E+04  0.15290353855E+04  0.00000000000E+00 0.  1.
         21   -1    0    0  502  503 -0.00000000000E+00 -0.00000000000E+00 -0.65559622274E+02  0.65559622274E+02  0.00000000000E+00 0.  1.
         -6    2    1    2    0  503 -0.97159961238E+02 -0.67707868724E+02  0.13269805868E+04  0.13433622234E+04  0.17239539459E+03 0.  0.
        -24    2    3    3    0    0  0.45989784637E+01  0.94139615642E+01  0.58626353723E+03  0.59170638728E+03  0.79383501976E+02 0.  0.
          6    2    1    2  501    0  0.97159961238E+02  0.67707868724E+02  0.13649517645E+03  0.25123278436E+03  0.17453528350E+03 0.  0.
         24    2    5    5    0    0  0.79268414238E+02 -0.50289702012E+01  0.13534712428E+03  0.17617172112E+03  0.80055351066E+02 0.  0.
          5    1    5    5  501    0  0.17891547000E+02  0.72736838926E+02  0.11480521755E+01  0.75061063240E+02  0.47000000000E+01 0. -1.
        -11    1    6    6    0    0 -0.46143409101E-01  0.24960012309E+02  0.49885407184E+02  0.55781342701E+02  0.00000000000E+00 0.  1.
         12    1    6    6    0    0  0.79314557647E+02 -0.29988982510E+02  0.85461717096E+02  0.12039037842E+03  0.00000000000E+00 0. -1.
         -5    1    3    3    0  503 -0.10175893970E+03 -0.77121830289E+02  0.74071704952E+03  0.75165583611E+03  0.47000000000E+01 0.  1.
         13    1    4    4    0    0 -0.19311028953E+01  0.28745223252E+02  0.79960225078E+02  0.84992085589E+02  0.00000000000E+00 0. -1.
        -14    1    4    4    0    0  0.65300813589E+01 -0.19331261688E+02  0.50630331216E+03  0.50671430169E+03  0.00000000000E+00 0.  1.
</event>
<event>
12    1  0.1032880E+000  0.2241465E+03  0.7818608E-02  0.1130875E+00
         21   -1    0    0  501  502  0.00000000000E+00  0.00000000000E+00  0.18274761329E+03  0.18274761329E+03  0.00000000000E+00 0. -1.
         21   -1    0    0  502  503 -0.00000000000E+00 -0.00000000000E+00 -0.37927067875E+03  0.37927067875E+03  0.00000000000E+00 0. -1.
         -6    2    1    2    0  503  0.12756645259E+03  0.66720799171E+02  0.49392802650E+02  0.22927775642E+03  0.17147529201E+03 0.  0.
        -24    2    3    3    0    0  0.91063802438E+02  0.37981673460E+01 -0.28124235866E+02  0.12286966310E+03  0.77452819694E+02 0.  0.
          6    2    1    2  501    0 -0.12756645259E+03 -0.66720799171E+02 -0.24591586811E+03  0.33274053562E+03  0.17180449642E+03 0.  0.
         24    2    5    5    0    0 -0.13753046541E+03 -0.12692111433E+02 -0.21839037074E+03  0.27111161663E+03  0.82045329133E+02 0.  0.
          5    1    5    5  501    0  0.99640128241E+01 -0.54028687739E+02 -0.27525497369E+02  0.61628918989E+02  0.47000000000E+01 0. -1.
        -11    1    6    6    0    0 -0.13799297717E+03 -0.28253944367E+02 -0.17279499601E+03  0.22293150914E+03  0.00000000000E+00 0.  1.
         12    1    6    6    0    0  0.46251175858E+00  0.15561832935E+02 -0.45595374730E+02  0.48180107495E+02  0.00000000000E+00 0. -1.
         -5    1    3    3    0  503  0.36502650151E+02  0.62922631825E+02  0.77517038515E+02  0.10640809332E+03  0.47000000000E+01 0.  1.
         13    1    4    4    0    0  0.14602528465E+02  0.14005801709E+02 -0.39995166653E+02  0.44821977586E+02  0.00000000000E+00 0. -1.
        -14    1    4    4    0    0  0.76461273974E+02 -0.10207634363E+02  0.11870930788E+02  0.78047685518E+02  0.00000000000E+00 0.  1.
</event>
<event>
12    1  0.1032880E+000  0.2202749E+03  0.7818608E-02  0.1136265E+00
         21   -1    0    0  501  502  0.00000000000E+00  0.00000000000E+00  0.12438707000E+03  0.12438707000E+03  0.00000000000E+00 0.  1.
         21   -1    0    0  502  503 -0.00000000000E+00 -0.00000000000E+00 -0.66808239552E+03  0.66808239552E+03  0.00000000000E+00 0.  1.
         -6    2    1    2    0  503  0.94855740438E+02 -0.68432314457E+02 -0.10457446723E+02  0.22052299794E+03  0.18665594358E+03 0.  0.
        -24    2    3    3    0    0  0.76488553843E+02 -0.11700505256E+03 -0.32390047648E+02  0.16395628146E+03  0.79321282454E+02 0.  0.
          6    2    1    2  501    0 -0.94855740438E+02  0.68432314457E+02 -0.53323787880E+03  0.57194646758E+03  0.17058585297E+03 0.  0.
         24    2    5    5    0    0 -0.17433801603E+02  0.21335284889E+02 -0.38528784098E+03  0.39838497848E+03  0.97492250217E+02 0.  0.
          5    1    5    5  501    0 -0.77421938835E+02  0.47097029568E+02 -0.14795003781E+03  0.17356148909E+03  0.47000000000E+01 0. -1.
        -11    1    6    6    0    0 -0.16245415007E+02  0.94865301331E+01 -0.72523098837E+01  0.20161938432E+02  0.00000000000E+00 0.  1.
         12    1    6    6    0    0 -0.11883865961E+01  0.11848754756E+02 -0.37803553110E+03  0.37822304005E+03  0.00000000000E+00 0. -1.
         -5    1    3    3    0  503  0.18367186595E+02  0.48572738104E+02  0.21932600925E+02  0.56566716483E+02  0.47000000000E+01 0.  1.
         13    1    4    4    0    0 -0.58816923642E+00 -0.16263359893E+02  0.20800359095E+02  0.26410182819E+02  0.00000000000E+00 0. -1.
        -14    1    4    4    0    0  0.77076723080E+02 -0.10074169267E+03 -0.53190406742E+02  0.13754609864E+03  0.00000000000E+00 0.  1.
</event>
<event>
12    1  0.1032880E+000  0.2490613E+03  0.7818608E-02  0.1114060E+00
         21   -1    0    0  503  502  0.00000000000E+00  0.00000000000E+00  0.26689908940E+02  0.26689908940E+02  0.00000000000E+00 0. -1.
         21   -1    0    0  501  503 -0.00000000000E+00 -0.00000000000E+00 -0.26364189491E+04  0.26364189491E+04  0.00000000000E+00 0. -1.
          6    2    1    2  501    0  0.18055950342E+03  0.11378188009E+02 -0.83742857879E+03  0.87339367560E+03  0.16970176948E+03 0.  0.
         24    2    3    3    0    0  0.14554074317E+03  0.45124410946E+02 -0.77630398749E+03  0.79514134788E+03  0.79897194728E+02 0.  0.
         -6    2    1    2    0  502 -0.18055950342E+03 -0.11378188009E+02 -0.17723004614E+04  0.17897151824E+04  0.17117333743E+03 0.  0.
        -24    2    5    5    0    0 -0.17808641642E+03  0.35310525142E+02 -0.12891504123E+04  0.13042854635E+04  0.79310654487E+02 0.  0.
          5    1    3    3  501    0  0.35018760259E+02 -0.33746222937E+02 -0.61124591300E+02  0.78252327724E+02  0.47000000000E+01 0. -1.
        -11    1    4    4    0    0  0.22563373174E+02 -0.14514688045E+02 -0.24789505031E+03  0.24934261157E+03  0.00000000000E+00 0.  1.
         12    1    4    4    0    0  0.12297736999E+03  0.59639098991E+02 -0.52840893718E+03  0.54579873631E+03  0.00000000000E+00 0. -1.
         -5    1    5    5    0  502 -0.24730870016E+01 -0.46688713150E+02 -0.48315004910E+03  0.48542971895E+03  0.47000000000E+01 0.  1.
         13    1    6    6    0    0 -0.32066887913E+02 -0.11691496291E+02 -0.10931221099E+03  0.11451696756E+03  0.00000000000E+00 0. -1.
        -14    1    6    6    0    0 -0.14601952851E+03  0.47002021433E+02 -0.11798382013E+04  0.11897684959E+04  0.00000000000E+00 0.  1.
</event>
<event>
12    1  0.1032880E+000  0.1817673E+03  0.7818608E-02  0.1167016E+00
         21   -1    0    0  501  502  0.00000000000E+00  0.00000000000E+00  0.50294212167E+03  0.50294212167E+03  0.00000000000E+00 0.  1.
         21   -1    0    0  502  503 -0.00000000000E+00 -0.00000000000E+00 -0.67823410209E+02  0.67823410209E+02  0.00000000000E+00 0.  1.
         -6    2    1    2    0  503 -0.49043949725E+02 -0.13981118544E+01  0.15065952596E+03  0.23319124783E+03  0.17109237734E+03 0.  0.
        -24    2    3    3    0    0 -0.49419289900E+02  0.45186620828E+02  0.35501515272E+02  0.10887819291E+03  0.78166529850E+02 0.  0.
          6    2    1    2  501    0  0.49043949725E+02  0.13981118544E+01  0.28445918550E+03  0.33757428405E+03  0.17502029971E+03 0.  0.
         24    2    5    5    0    0  0.16739882099E+01 -0.21627170310E+02  0.56868919164E+02  0.10392177238E+03  0.84232559480E+02 0.  0.
          5    1    5    5  501    0  0.47369961515E+02  0.23025282164E+02  0.22759026634E+03  0.23365251166E+03  0.47000000000E+01 0. -1.
        -11    1    6    6    0    0  0.31434682750E+02  0.67832399531E+01 -0.18628548103E+01  0.32212138269E+02  0.00000000000E+00 0.  1.
         12    1    6    6    0    0 -0.29760694540E+02 -0.28410410263E+02  0.58731773974E+02  0.71709634115E+02  0.00000000000E+00 0. -1.
         -5    1    3    3    0  503  0.37534017460E+00 -0.46584732682E+02  0.11515801069E+03  0.12431305492E+03  0.47000000000E+01 0.  1.
         11    1    4    4    0    0  0.91615684192E+01 -0.14711673383E+02  0.14263175794E+02  0.22445619915E+02  0.00000000000E+00 0. -1.
        -12    1    4    4    0    0 -0.58580858319E+02  0.59898294211E+02  0.21238339478E+02  0.86432572995E+02  0.00000000000E+00 0.  1.
</event>
<event>
12    1  0.1032880E+000  0.1814760E+03  0.7818608E-02  0.1167327E+00
         21   -1    0    0  503  502  0.00000000000E+00  0.00000000000E+00  0.36559381090E+03  0.36559381090E+03  0.00000000000E+00 0. -1.
         21   -1    0    0  501  503 -0.00000000000E+00 -0.00000000000E+00 -0.11635976701E+03  0.11635976701E+03  0.00000000000E+00 0. -1.
          6    2    1    2  501    0 -0.25823031550E+02  0.40848784426E+02  0.24427730112E+03  0.30431057438E+03  0.17492305077E+03 0.  0.
         24    2    3    3    0    0 -0.32451643168E+02 -0.25702842629E+01  0.24481038072E+03  0.26013447008E+03  0.81719670260E+02 0.  0.
         -6    2    1    2    0  502  0.25823031550E+02 -0.40848784426E+02  0.49567427714E+01  0.17764300352E+03  0.17087134123E+03 0.  0.
        -24    2    5    5    0    0  0.75831201388E+02  0.22681854027E+00  0.18149427039E+02  0.11143002045E+03  0.79604178311E+02 0.  0.
          5    1    3    3  501    0  0.66286116187E+01  0.43419068689E+02 -0.53307960122E+00  0.44176104306E+02  0.47000000000E+01 0. -1.
        -13    1    4    4    0    0 -0.18061296399E+02  0.39418937449E+02  0.13014116178E+03  0.13717428712E+03  0.00000000000E+00 0.  1.
         14    1    4    4    0    0 -0.14390346769E+02 -0.41989221712E+02  0.11466921894E+03  0.12296018295E+03  0.00000000000E+00 0. -1.
         -5    1    5    5    0  502 -0.50008169839E+02 -0.41075602966E+02 -0.13192684268E+02  0.66212983076E+02  0.47000000000E+01 0.  1.
         13    1    6    6    0    0  0.13863015469E+01  0.15239736499E+02  0.30845219006E+02  0.34432527297E+02  0.00000000000E+00 0. -1.
        -14    1    6    6    0    0  0.74444899841E+02 -0.15012917958E+02 -0.12695791966E+02  0.76997493152E+02  0.00000000000E+00 0.  1.
</event>
<event>
12    1  0.1032880E+000  0.1894190E+03  0.7818608E-02  0.1159240E+00
         21   -1    0    0  501  502  0.00000000000E+00  0.00000000000E+00  0.25682651120E+03  0.25682651120E+03  0.00000000000E+00 0.  1.
         21   -1    0    0  502  503 -0.00000000000E+00 -0.00000000000E+00 -0.18241188374E+03  0.18241188374E+03  0.00000000000E+00 0.  1.
         -6    2    1    2    0  503 -0.49329229407E+02  0.63574294483E+02 -0.69992949185E+02  0.20193700806E+03  0.17147734105E+03 0.  0.
        -24    2    3    3    0    0 -0.12205014132E+02  0.16050477606E+02 -0.10444354275E+03  0.13232627665E+03  0.78709654220E+02 0.  0.
          6    2    1    2  501    0  0.49329229407E+02 -0.63574294483E+02  0.14440757665E+03  0.23730138688E+03  0.17024493011E+03 0.  0.
         24    2    5    5    0    0  0.20596270287E+02  0.21180319091E+02  0.11487661071E+03  0.14294517134E+03  0.79773893309E+02 0.  0.
          5    1    5    5  501    0  0.28732959120E+02 -0.84754613575E+02  0.29530965941E+02  0.94356215542E+02  0.47000000000E+01 0. -1.
        -13    1    6    6    0    0  0.45910069285E+02  0.15272623248E+02  0.10412137430E+03  0.11481397157E+03  0.00000000000E+00 0.  1.
         14    1    6    6    0    0 -0.25313798998E+02  0.59076958431E+01  0.10755236413E+02  0.28131199765E+02  0.00000000000E+00 0. -1.
         -5    1    3    3    0  503 -0.37124215275E+02  0.47523816877E+02  0.34450593568E+02  0.69610731411E+02  0.47000000000E+01 0.  1.
         13    1    4    4    0    0 -0.31430241503E+02  0.36000413446E+02 -0.40516436388E+02  0.62653583033E+02  0.00000000000E+00 0. -1.
        -14    1    4    4    0    0  0.19225227371E+02 -0.19949935840E+02 -0.63927106365E+02  0.69672693615E+02  0.00000000000E+00 0.  1.
</event>
<event>
12    1  0.1032880E+000  0.2161294E+03  0.7818608E-02  0.1137069E+00
         21   -1    0    0  501  502  0.00000000000E+00  0.00000000000E+00  0.86061995936E+02  0.86061995936E+02  0.00000000000E+00 0. -1.
         21   -1    0    0  502  503 -0.00000000000E+00 -0.00000000000E+00 -0.61655884645E+03  0.61655884645E+03  0.00000000000E+00 0. -1.
         -6    2    1    2    0  503 -0.35016826328E+02 -0.12418170042E+03 -0.14161962836E+03  0.25839513002E+03  0.17339161236E+03 0.  0.
        -24    2    3    3    0    0  0.33781661005E+02 -0.47978791533E+02 -0.11566766670E+03  0.15239650033E+03  0.80015743053E+02 0.  0.
          6    2    1    2  501    0  0.35016826328E+02  0.12418170042E+03 -0.38887722216E+03  0.44422571237E+03  0.17164998331E+03 0.  0.
         24    2    5    5    0    0  0.88603566217E+02  0.10366433117E+03 -0.27747838134E+03  0.31882916988E+03  0.77851794790E+02 0.  0.
          5    1    5    5  501    0 -0.53586739888E+02  0.20517369254E+02 -0.11139884082E+03  0.12539654249E+03  0.47000000000E+01 0. -1.
        -13    1    6    6    0    0 -0.44033030695E+00  0.55494251973E+02 -0.10772438611E+03  0.12117899676E+03  0.00000000000E+00 0.  1.
         14    1    6    6    0    0  0.89043896524E+02  0.48170079194E+02 -0.16975399523E+03  0.19765017312E+03  0.00000000000E+00 0. -1.
         -5    1    3    3    0  503 -0.68798487333E+02 -0.76202908887E+02 -0.25951961664E+02  0.10599862969E+03  0.47000000000E+01 0.  1.
         13    1    4    4    0    0 -0.19885948634E+02 -0.31488313519E+02 -0.72747738006E+02  0.81726361881E+02  0.00000000000E+00 0. -1.
        -14    1    4    4    0    0  0.53667609639E+02 -0.16490478015E+02 -0.42919928692E+02  0.70670138449E+02  0.00000000000E+00 0.  1.
</event>
<event>
12    1  0.1032880E+000  0.2347160E+03  0.7818608E-02  0.1123877E+00
         21   -1    0    0  503  502  0.00000000000E+00  0.00000000000E+00  0.46809224396E+03  0.46809224396E+03  0.00000000000E+00 0. -1.
         21   -1    0    0  501  503 -0.00000000000E+00 -0.00000000000E+00 -0.11681614354E+03  0.11681614354E+03  0.00000000000E+00 0. -1.
          6    2    1    2  501    0  0.13651227365E+03  0.75775447723E+02  0.15340388465E+03  0.27791486979E+03  0.17124953632E+03 0.  0.
         24    2    3    3    0    0  0.10737930817E+03  0.97208027840E+02  0.17280486318E+03  0.23660417945E+03  0.71695888981E+02 0.  0.
         -6    2    1    2    0  502 -0.13651227365E+03 -0.75775447723E+02  0.19787221576E+03  0.30699351771E+03  0.17525434891E+03 0.  0.
        -24    2    5    5    0    0 -0.76334095832E+02  0.16650398196E+02  0.14890729302E+03  0.18623092524E+03  0.80027780535E+02 0.  0.
          5    1    3    3  501    0  0.29132965482E+02 -0.21432580117E+02 -0.19400978532E+02  0.41310690339E+02  0.47000000000E+01 0. -1.
        -11    1    4    4    0    0  0.41327622946E+02  0.20038843687E+02  0.13862465782E+02  0.47975990164E+02  0.00000000000E+00 0.  1.
         12    1    4    4    0    0  0.66051685221E+02  0.77169184153E+02  0.15894239740E+03  0.18862818929E+03  0.00000000000E+00 0. -1.
         -5    1    5    5    0  502 -0.60178177819E+02 -0.92425845919E+02  0.48964922747E+02  0.12076259247E+03  0.47000000000E+01 0.  1.
         13    1    6    6    0    0 -0.89334644773E-01 -0.20100638082E+02  0.60883453680E+02  0.64115821479E+02  0.00000000000E+00 0. -1.
        -14    1    6    6    0    0 -0.76244761187E+02  0.36751036278E+02  0.88023839336E+02  0.12211510376E+03  0.00000000000E+00 0.  1.
</event>
<event>
12    1  0.1032880E+000  0.1755725E+03  0.7818608E-02  0.1172185E+00
         21   -1    0    0  503  502  0.00000000000E+00  0.00000000000E+00  0.17592681424E+03  0.17592681424E+03  0.00000000000E+00 0.  1.
         21   -1    0    0  501  503 -0.00000000000E+00 -0.00000000000E+00 -0.17545819186E+03  0.17545819186E+03  0.00000000000E+00 0.  1.
          6    2    1    2  501    0 -0.27543650238E+02 -0.17079134791E+02  0.80393713698E+01  0.17575647327E+03  0.17255537341E+03 0.  0.
         24    2    3    3    0    0 -0.65095865499E+02 -0.28161356100E+02  0.47932281108E+02  0.11966263451E+03  0.83612850939E+02 0.  0.
         -6    2    1    2    0  502  0.27543650238E+02  0.17079134791E+02 -0.75707489963E+01  0.17562853283E+03  0.17244626929E+03 0.  0.
        -24    2    5    5    0    0  0.77152969455E+02  0.42879056398E+02  0.91257985663E+01  0.11708295052E+03  0.76380252217E+02 0.  0.
          5    1    3    3  501    0  0.37552215261E+02  0.11082221309E+02 -0.39892909738E+02  0.56093838766E+02  0.47000000000E+01 0. -1.
        -11    1    4    4    0    0 -0.58862208503E+01 -0.39341391019E+02 -0.41794959846E+01  0.39998260336E+02  0.00000000000E+00 0.  1.
         12    1    4    4    0    0 -0.59209644648E+02  0.11180034919E+02  0.52111777092E+02  0.79664374170E+02  0.00000000000E+00 0. -1.
         -5    1    5    5    0  502 -0.49609319217E+02 -0.25799921607E+02 -0.16696547563E+02  0.58545582315E+02  0.47000000000E+01 0.  1.
         13    1    6    6    0    0  0.75746290214E+02  0.11888983605E+02 -0.14570834099E+02  0.78045868684E+02  0.00000000000E+00 0. -1.
        -14    1    6    6    0    0  0.14066792405E+01  0.30990072793E+02  0.23696632666E+02  0.39037081831E+02  0.00000000000E+00 0.  1.
</event>
<event>
12    1  0.1032880E+000  0.2113621E+03  0.7818608E-02  0.1140633E+00
         21   -1    0    0  501  502  0.00000000000E+00  0.00000000000E+00  0.59500792134E+03  0.59500792134E+03  0.00000000000E+00 0.  1.
         21   -1    0    0  502  503 -0.00000000000E+00 -0.00000000000E+00 -0.84106242236E+02  0.84106242236E+02  0.00000000000E+00 0.  1.
         -6    2    1    2    0  503 -0.27662511275E+02  0.12012119714E+03  0.36862329296E+03  0.42492007829E+03  0.17169631414E+03 0.  0.
        -24    2    3    3    0    0 -0.24246624694E+02  0.79479741879E+02  0.96913411983E+02  0.15012607255E+03  0.78998101625E+02 0.  0.
          6    2    1    2  501    0  0.27662511275E+02 -0.12012119714E+03  0.14227838615E+03  0.25419408529E+03  0.17081328198E+03 0.  0.
         24    2    5    5    0    0  0.76195576279E+01 -0.15225513405E+03  0.12126987446E+03  0.21063082720E+03  0.80120405697E+02 0.  0.
          5    1    5    5  501    0  0.20042953647E+02  0.32133936916E+02  0.21008511681E+02  0.43563258093E+02  0.47000000000E+01 0. -1.
        -13    1    6    6    0    0  0.17647965943E+02 -0.71485944898E+02  0.10400359718E+03  0.12743013476E+03  0.00000000000E+00 0.  1.
         14    1    6    6    0    0 -0.10028408315E+02 -0.80769189153E+02  0.17266277286E+02  0.83200692432E+02  0.00000000000E+00 0. -1.
         -5    1    3    3    0  503 -0.34158865809E+01  0.40641455257E+02  0.27170988098E+03  0.27479400573E+03  0.47000000000E+01 0.  1.
         11    1    4    4    0    0 -0.30945192939E+01  0.20163513044E+02  0.83214598737E+02  0.85678543118E+02  0.00000000000E+00 0. -1.
        -12    1    4    4    0    0 -0.21152105401E+02  0.59316228835E+02  0.13698813246E+02  0.64447529436E+02  0.00000000000E+00 0.  1.
</event>
<event>
12    1  0.1032880E+000  0.4059269E+03  0.7818608E-02  0.1041773E+00
         21   -1    0    0  501  502  0.00000000000E+00  0.00000000000E+00  0.10975242228E+04  0.10975242228E+04  0.00000000000E+00 0.  1.
         21   -1    0    0  502  503 -0.00000000000E+00 -0.00000000000E+00 -0.15922621450E+03  0.15922621450E+03  0.00000000000E+00 0. -1.
         -6    2    1    2    0  503  0.16163264401E+03  0.33057943823E+03  0.62006799341E+03  0.74095297783E+03  0.17064326038E+03 0.  0.
        -24    2    3    3    0    0  0.42997440381E+02  0.23222595824E+03  0.34136178734E+03  0.42244558723E+03  0.78452079334E+02 0.  0.
          6    2    1    2  501    0 -0.16163264401E+03 -0.33057943823E+03  0.31823001492E+03  0.51579745950E+03  0.17137327749E+03 0.  0.
         24    2    5    5    0    0 -0.17389959952E+03 -0.21532928705E+03  0.20722091054E+03  0.35524159134E+03  0.81537168689E+02 0.  0.
          5    1    5    5  501    0  0.12266955513E+02 -0.11525015118E+03  0.11100910438E+03  0.16055586816E+03  0.47000000000E+01 0. -1.
        -13    1    6    6    0    0 -0.13378965899E+03 -0.17460383848E+03  0.20059359982E+03  0.29769777553E+03  0.00000000000E+00 0.  1.
         14    1    6    6    0    0 -0.40109940532E+02 -0.40725448571E+02  0.66273107144E+01  0.57543815811E+02  0.00000000000E+00 0. -1.
         -5    1    3    3    0  503  0.11863520363E+03  0.98353479989E+02  0.27870620606E+03  0.31850739059E+03  0.47000000000E+01 0.  1.
         13    1    4    4    0    0  0.25207121260E+02  0.10316268541E+03  0.89498786823E+02  0.13888114151E+03  0.00000000000E+00 0. -1.
        -14    1    4    4    0    0  0.17790319121E+02  0.12906327284E+03  0.25186300052E+03  0.28356444573E+03  0.00000000000E+00 0.  1.
</event>
<event>
12    1  0.1032880E+000  0.2591876E+03  0.7818608E-02  0.1109835E+00
         21   -1    0    0  501  502  0.00000000000E+00  0.00000000000E+00  0.18549508955E+03  0.18549508955E+03  0.00000000000E+00 0. -1.
         21   -1    0    0  502  503 -0.00000000000E+00 -0.00000000000E+00 -0.38033585334E+03  0.38033585334E+03  0.00000000000E+00 0. -1.
         -6    2    1    2    0  503 -0.38892407471E+02 -0.19027006793E+03 -0.58925804503E+01  0.24508243086E+03  0.14938325643E+03 0.  0.
        -24    2    3    3    0    0  0.81716670066E+01 -0.14400471027E+03  0.34206050868E+02  0.16771641339E+03  0.78451314083E+02 0.  0.
          6    2    1    2  501    0  0.38892407471E+02  0.19027006793E+03 -0.18894818333E+03  0.32074851203E+03  0.17164752801E+03 0.  0.
         24    2    5    5    0    0  0.47409265690E+02  0.36144932461E+02 -0.11723617494E+03  0.15047873665E+03  0.73112480839E+02 0.  0.
          5    1    5    5  501    0 -0.85168582188E+01  0.15412513547E+03 -0.71712008392E+02  0.17026977537E+03  0.47000000000E+01 0. -1.
        -11    1    6    6    0    0  0.34319633998E+02  0.29438528821E+02 -0.15671342281E+02  0.47854521477E+02  0.00000000000E+00 0.  1.
         12    1    6    6    0    0  0.13089631692E+02  0.67064036401E+01 -0.10156483266E+03  0.10262421518E+03  0.00000000000E+00 0. -1.
         -5    1    3    3    0  503 -0.47064074478E+02 -0.46265357662E+02 -0.40098631318E+02  0.77366017473E+02  0.47000000000E+01 0.  1.
         11    1    4    4    0    0  0.30165209959E+01 -0.15891802978E+01  0.24653133147E+02  0.24887785496E+02  0.00000000000E+00 0. -1.
        -12    1    4    4    0    0  0.51551460107E+01 -0.14241552997E+03  0.95529177204E+01  0.14282862789E+03  0.00000000000E+00 0.  1.
</event>
<event>
12    1  0.1032880E+000  0.3392625E+03  0.7818608E-02  0.1067136E+00
         21   -1    0    0  501  502  0.00000000000E+00  0.00000000000E+00  0.20885763092E+03  0.20885763092E+03  0.00000000000E+00 0.  1.
         21   -1    0    0  502  503 -0.00000000000E+00 -0.00000000000E+00 -0.56646049452E+03  0.56646049452E+03  0.00000000000E+00 0. -1.
         -6    2    1    2    0  503  0.82330517729E+02  0.28039684324E+03 -0.11408204065E+03  0.35770413667E+03  0.17186283351E+03 0.  0.
        -24    2    3    3    0    0  0.36914356350E+02  0.51210885501E+02 -0.12306256196E+02  0.10281351063E+03  0.80211903906E+02 0.  0.
          6    2    1    2  501    0 -0.82330517729E+02 -0.28039684324E+03 -0.24352082294E+03  0.41761398877E+03  0.17233208801E+03 0.  0.
         24    2    5    5    0    0 -0.13220680589E+02 -0.47232161600E+02 -0.91884410479E+02  0.13098246583E+03  0.79422905905E+02 0.  0.
          5    1    5    5  501    0 -0.69109837140E+02 -0.23316468164E+03 -0.15163641246E+03  0.28663152294E+03  0.47000000000E+01 0. -1.
        -11    1    6    6    0    0  0.27335598614E+02 -0.71391321000E+01 -0.76694788898E+01  0.29274956279E+02  0.00000000000E+00 0.  1.
         12    1    6    6    0    0 -0.40556279203E+02 -0.40093029500E+02 -0.84214931589E+02  0.10170750955E+03  0.00000000000E+00 0. -1.
         -5    1    3    3    0  503  0.45416161379E+02  0.22918595774E+03 -0.10177578445E+03  0.25489062604E+03  0.47000000000E+01 0.  1.
         11    1    4    4    0    0  0.26576150823E+01  0.57970495450E+02 -0.28116120871E+02  0.64483777134E+02  0.00000000000E+00 0. -1.
        -12    1    4    4    0    0  0.34256741268E+02 -0.67596099493E+01  0.15809864675E+02  0.38329733497E+02  0.00000000000E+00 0.  1.
</event>
<event>
12    1  0.1032880E+000  0.1731144E+03  0.7818608E-02  0.1175396E+00
         21   -1    0    0  501  502  0.00000000000E+00  0.00000000000E+00  0.11042538565E+02  0.11042538565E+02  0.00000000000E+00 0. -1.
         21   -1    0    0  502  503 -0.00000000000E+00 -0.00000000000E+00 -0.28208499722E+04  0.28208499722E+04  0.00000000000E+00 0. -1.
         -6    2    1    2    0  503  0.13092320880E+02 -0.11613672856E+02 -0.10637549135E+04  0.10772791619E+04  0.16926189883E+03 0.  0.
        -24    2    3    3    0    0 -0.36071698364E+02 -0.14440322107E+02 -0.32145700501E+03  0.33333469778E+03  0.79168960782E+02 0.  0.
          6    2    1    2  501    0 -0.13092320880E+02  0.11613672856E+02 -0.17460525202E+04  0.17546133489E+04  0.17222750854E+03 0.  0.
         24    2    5    5    0    0 -0.18847156919E+02  0.60440620443E+02 -0.68560417909E+03  0.69301551401E+03  0.78798022517E+02 0.  0.
          5    1    5    5  501    0  0.57548360384E+01 -0.48826947588E+02 -0.10604483411E+04  0.10615978349E+04  0.47000000000E+01 0. -1.
        -13    1    6    6    0    0  0.20778572775E+02  0.25892953266E+02 -0.46701010903E+03  0.46818867570E+03  0.00000000000E+00 0.  1.
         14    1    6    6    0    0 -0.39625729693E+02  0.34547667177E+02 -0.21859407006E+03  0.22482683831E+03  0.00000000000E+00 0. -1.
         -5    1    3    3    0  503  0.49164019244E+02  0.28266492516E+01 -0.74229790849E+03  0.74394446411E+03  0.47000000000E+01 0.  1.
         13    1    4    4    0    0 -0.20007073336E+02  0.75137280190E+01 -0.29367513638E+03  0.29445173598E+03  0.00000000000E+00 0. -1.
        -14    1    4    4    0    0 -0.16064625028E+02 -0.21954050126E+02 -0.27781868627E+02  0.38882961804E+02  0.00000000000E+00 0.  1.
</event>
<event>
12    1  0.1032880E+000  0.3608883E+03  0.7818608E-02  0.1058242E+00
         21   -1    0    0  503  502  0.00000000000E+00  0.00000000000E+00  0.17529318209E+03  0.17529318209E+03  0.00000000000E+00 0.  1.
         21   -1    0    0  501  503 -0.00000000000E+00 -0.00000000000E+00 -0.88229515389E+03  0.88229515389E+03  0.00000000000E+00 0. -1.
          6    2    1    2  501    0 -0.13442781443E+03 -0.28655799082E+03 -0.56372943035E+03  0.66930055274E+03  0.17316477661E+03 0.  0.
         24    2    3    3    0    0 -0.14247886670E+03 -0.21778040694E+03 -0.34165813510E+03  0.43663571728E+03  0.78688850673E+02 0.  0.
         -6    2    1    2    0  502  0.13442781443E+03  0.28655799082E+03 -0.14327254146E+03  0.38828778325E+03  0.17336107431E+03 0.  0.
        -24    2    5    5    0    0  0.11056681597E+03  0.90309888512E+02 -0.73227129460E+02  0.17849952178E+03  0.78223845656E+02 0.  0.
          5    1    3    3  501    0  0.80510522658E+01 -0.68777583881E+02 -0.22207129524E+03  0.23266483546E+03  0.47000000000E+01 0. -1.
        -13    1    4    4    0    0 -0.67691019396E+02 -0.10622117926E+03 -0.10269614150E+03  0.16251618538E+03  0.00000000000E+00 0.  1.
         14    1    4    4    0    0 -0.74787847300E+02 -0.11155922768E+03 -0.23896199360E+03  0.27411953190E+03  0.00000000000E+00 0. -1.
         -5    1    5    5    0  502  0.23860998457E+02  0.19624810231E+03 -0.70045411995E+02  0.20978826146E+03  0.47000000000E+01 0.  1.
         11    1    6    6    0    0 -0.45464467662E+01 -0.61028076834E+01  0.50823600386E+01  0.91512197756E+01  0.00000000000E+00 0. -1.
        -12    1    6    6    0    0  0.11511326274E+03  0.96412696196E+02 -0.78309489499E+02  0.16934830200E+03  0.00000000000E+00 0.  1.
</event>
<event>
12    1  0.1032880E+000  0.1875766E+03  0.7818608E-02  0.1162458E+00
         21   -1    0    0  501  502  0.00000000000E+00  0.00000000000E+00  0.68740625744E+02  0.68740625744E+02  0.00000000000E+00 0.  1.
         21   -1    0    0  502  503 -0.00000000000E+00 -0.00000000000E+00 -0.89369413996E+03  0.89369413996E+03  0.00000000000E+00 0.  1.
         -6    2    1    2    0  503 -0.15697962823E+02  0.73187016758E+02 -0.73066559305E+03  0.75249385344E+03  0.16362159128E+03 0.  0.
        -24    2    3    3    0    0  0.25105288401E+02  0.63951322313E+02 -0.67235850959E+03  0.68057717008E+03  0.79995449213E+02 0.  0.
          6    2    1    2  501    0  0.15697962823E+02 -0.73187016758E+02 -0.94287921158E+02  0.20994091226E+03  0.17199479383E+03 0.  0.
         24    2    5    5    0    0  0.55993261783E+02 -0.52581268186E+02 -0.54829226510E+01  0.11015751809E+03  0.78769164156E+02 0.  0.
          5    1    5    5  501    0 -0.40295298960E+02 -0.20605748572E+02 -0.88804998507E+02  0.99783394171E+02  0.47000000000E+01 0. -1.
        -11    1    6    6    0    0  0.23614806467E+01 -0.28249366300E+01  0.29033446156E+02  0.29265984581E+02  0.00000000000E+00 0.  1.
         12    1    6    6    0    0  0.53631781136E+02 -0.49756331556E+02 -0.34516368807E+02  0.80891533508E+02  0.00000000000E+00 0. -1.
         -5    1    3    3    0  503 -0.40803251224E+02  0.92356944443E+01 -0.58307083468E+02  0.71916683356E+02  0.47000000000E+01 0.  1.
         13    1    4    4    0    0  0.25235167902E+02  0.19623876923E+02 -0.74388556176E+02  0.80966459318E+02  0.00000000000E+00 0. -1.
        -14    1    4    4    0    0 -0.12987950131E+00  0.44327445390E+02 -0.59796995341E+03  0.59961071077E+03  0.00000000000E+00 0.  1.
</event>
<event>
12    1  0.1032880E+000  0.2094326E+03  0.7818608E-02  0.1142886E+00
         21   -1    0    0  501  502  0.00000000000E+00  0.00000000000E+00  0.19575437046E+03  0.19575437046E+03  0.00000000000E+00 0.  1.
         21   -1    0    0  502  503 -0.00000000000E+00 -0.00000000000E+00 -0.63070785562E+03  0.63070785562E+03  0.00000000000E+00 0.  1.
         -6    2    1    2    0  503 -0.29919051422E+02 -0.11519327125E+03  0.11540828525E+03  0.23912568141E+03  0.17232927733E+03 0.  0.
        -24    2    3    3    0    0 -0.75182006181E+02 -0.71085085396E+02  0.31024744383E+02  0.13359398427E+03  0.78609124464E+02 0.  0.
          6    2    1    2  501    0  0.29919051422E+02  0.11519327125E+03 -0.55036177041E+03  0.58733654467E+03  0.16703741795E+03 0.  0.
         24    2    5    5    0    0  0.48485076338E+02  0.33789497218E+02 -0.42545128895E+03  0.43701691825E+03  0.80513693355E+02 0.  0.
          5    1    5    5  501    0 -0.18566024915E+02  0.81403774034E+02 -0.12491048146E+03  0.15031962642E+03  0.47000000000E+01 0. -1.
        -13    1    6    6    0    0  0.11034755754E+02  0.18826772750E+01 -0.32471770045E+03  0.32491059585E+03  0.00000000000E+00 0.  1.
         14    1    6    6    0    0  0.37450320583E+02  0.31906819943E+02 -0.10073358850E+03  0.11210632241E+03  0.00000000000E+00 0. -1.
         -5    1    3    3    0  503  0.45262954759E+02 -0.44108185856E+02  0.84383540863E+02  0.10553169714E+03  0.47000000000E+01 0.  1.
         13    1    4    4    0    0 -0.87529420902E+02 -0.75242514495E+02  0.21389694648E+02  0.11738975487E+03  0.00000000000E+00 0. -1.
        -14    1    4    4    0    0  0.12347414720E+02  0.41574290997E+01  0.96350497345E+01  0.16204229398E+02  0.00000000000E+00 0.  1.
</event>
<event>
12    1  0.1032880E+000  0.2456700E+03  0.7818608E-02  0.1116755E+00
         21   -1    0    0  503  502  0.00000000000E+00  0.00000000000E+00  0.34996547495E+02  0.34996547495E+02  0.00000000000E+00 0.  1.
         21   -1    0    0  501  503 -0.00000000000E+00 -0.00000000000E+00 -0.26075498187E+04  0.26075498187E+04  0.00000000000E+00 0.  1.
          6    2    1    2  501    0  0.21129646258E+02  0.17569404008E+03 -0.51197599318E+03  0.56786721362E+03  0.17040803103E+03 0.  0.
         24    2    3    3    0    0  0.25285613364E+02  0.23982412023E+02 -0.12264259579E+03  0.14997216163E+03  0.78967870892E+02 0.  0.
         -6    2    1    2    0  502 -0.21129646258E+02 -0.17569404008E+03 -0.20605772781E+04  0.20746791526E+04  0.16431679694E+03 0.  0.
        -24    2    5    5    0    0 -0.34359339304E+02 -0.58011352423E+02 -0.67654316260E+03  0.68557988960E+03  0.88109323862E+02 0.  0.
          5    1    3    3  501    0 -0.41559671055E+01  0.15171162806E+03 -0.38933339739E+03  0.41789505199E+03  0.47000000000E+01 0. -1.
        -13    1    4    4    0    0  0.41984480264E+02 -0.93516475076E+01 -0.37656625195E+02  0.57167922083E+02  0.00000000000E+00 0.  1.
         14    1    4    4    0    0 -0.16698866901E+02  0.33334059530E+02 -0.84985970594E+02  0.92804239549E+02  0.00000000000E+00 0. -1.
         -5    1    5    5    0  502  0.13229693045E+02 -0.11768268766E+03 -0.13840341155E+04  0.13890992630E+04  0.47000000000E+01 0.  1.
         11    1    6    6    0    0  0.27262582620E+02 -0.26761816031E+02 -0.16342012938E+03  0.16782604654E+03  0.00000000000E+00 0. -1.
        -12    1    6    6    0    0 -0.61621921924E+02 -0.31249536392E+02 -0.51312303322E+03  0.51775384306E+03  0.00000000000E+00 0.  1.
</event>
<event>
12    1  0.1032880E+000  0.1924035E+03  0.7818608E-02  0.1159931E+00
         21   -1    0    0  501  502  0.00000000000E+00  0.00000000000E+00  0.45581183284E+03  0.45581183284E+03  0.00000000000E+00 0. -1.
         21   -1    0    0  502  503 -0.00000000000E+00 -0.00000000000E+00 -0.79590878013E+02  0.79590878013E+02  0.00000000000E+00 0. -1.
         -6    2    1    2    0  503  0.57986829870E+01 -0.29088512411E+02  0.26143568432E+03  0.32460397699E+03  0.19010354696E+03 0.  0.
        -24    2    3    3    0    0 -0.65451981443E+02  0.54247377365E+01  0.19693637915E+03  0.22237838341E+03  0.79717114348E+02 0.  0.
          6    2    1    2  501    0 -0.57986829870E+01  0.29088512411E+02  0.11478527051E+03  0.21079873386E+03  0.17430054960E+03 0.  0.
         24    2    5    5    0    0 -0.15456420693E+02 -0.51440920499E+01 -0.72583349817E+01  0.83590735889E+02  0.81666180736E+02 0.  0.
          5    1    5    5  501    0  0.96577377057E+01  0.34232604461E+02  0.12204360549E+03  0.12720799797E+03  0.47000000000E+01 0. -1.
        -13    1    6    6    0    0 -0.16212754265E+02  0.31704524182E+02  0.17008446254E+02  0.39462862269E+02  0.00000000000E+00 0.  1.
         14    1    6    6    0    0  0.75633357216E+00 -0.36848616232E+02 -0.24266781236E+02  0.44127873620E+02  0.00000000000E+00 0. -1.
         -5    1    3    3    0  503  0.71250664430E+02 -0.34513250148E+02  0.64499305168E+02  0.10222559359E+03  0.47000000000E+01 0.  1.
         13    1    4    4    0    0 -0.56910766142E+02  0.11684777842E+02  0.54854281972E+02  0.79902200137E+02  0.00000000000E+00 0. -1.
        -14    1    4    4    0    0 -0.85412153008E+01 -0.62600401054E+01  0.14208209717E+03  0.14247618327E+03  0.00000000000E+00 0.  1.
</event>
<event>
12    1  0.1032880E+000  0.2288586E+03  0.7818608E-02  0.1128027E+00
         21   -1    0    0  503  502  0.00000000000E+00  0.00000000000E+00  0.12651943704E+03  0.12651943704E+03  0.00000000000E+00 0. -1.
         21   -1    0    0  501  503 -0.00000000000E+00 -0.00000000000E+00 -0.83137434276E+03  0.83137434276E+03  0.00000000000E+00 0. -1.
          6    2    1    2  501    0  0.12987648257E+03 -0.67073148102E+02 -0.11931174832E+02  0.22916942754E+03  0.17609533118E+03 0.  0.
         24    2    3    3    0    0  0.43704364664E+02 -0.70521551970E+02  0.47362498261E+02  0.12440609873E+03  0.79688834712E+02 0.  0.
         -6    2    1    2    0  502 -0.12987648257E+03  0.67073148102E+02 -0.69292373089E+03  0.72872435227E+03  0.17184055646E+03 0.  0.
        -24    2    5    5    0    0 -0.65337331195E+02 -0.15742997473E+01 -0.53331889169E+03  0.54332324965E+03  0.80620519180E+02 0.  0.
          5    1    3    3  501    0  0.86172117903E+02  0.34484038686E+01 -0.59293673093E+02  0.10476332880E+03  0.47000000000E+01 0. -1.
        -13    1    4    4    0    0 -0.45721941936E+01 -0.66333015502E+02  0.29811589654E+02  0.72867721132E+02  0.00000000000E+00 0.  1.
         14    1    4    4    0    0  0.48276558858E+02 -0.41885364683E+01  0.17550908607E+02  0.51538377602E+02  0.00000000000E+00 0. -1.
         -5    1    5    5    0  502 -0.64539151372E+02  0.68647447849E+02 -0.15960483919E+03  0.18540110261E+03  0.47000000000E+01 0.  1.
         11    1    6    6    0    0 -0.49802480867E+02 -0.27030408781E+01 -0.12325792799E+03  0.13296657604E+03  0.00000000000E+00 0. -1.
        -12    1    6    6    0    0 -0.15534850328E+02  0.11287411307E+01 -0.41006096370E+03  0.41035667362E+03  0.00000000000E+00 0.  1.
</event>
<event>
12    1  0.1032880E+000  0.2077140E+03  0.7818608E-02  0.1143878E+00
         21   -1    0    0  501  502  0.00000000000E+00  0.00000000000E+00  0.29464964391E+03  0.29464964391E+03  0.00000000000E+00 0. -1.
         21   -1    0    0  502  503 -0.00000000000E+00 -0.00000000000E+00 -0.15265704572E+03  0.15265704572E+03  0.00000000000E+00 0. -1.
         -6    2    1    2    0  503 -0.17736991919E+01  0.11714225560E+03  0.12157321762E+03  0.23859147397E+03  0.16858348126E+03 0.  0.
        -24    2    3    3    0    0 -0.19864013724E+02 -0.32255875997E+01  0.52013290466E+02  0.98319058220E+02  0.80970805650E+02 0.  0.
          6    2    1    2  501    0  0.17736991919E+01 -0.11714225560E+03  0.20419380573E+02  0.20871521565E+03  0.17152153243E+03 0.  0.
         24    2    5    5    0    0  0.14501749063E+02  0.64571604282E+01 -0.37839445943E+00  0.82645963485E+02  0.81106204765E+02 0.  0.
          5    1    5    5  501    0 -0.12728049871E+02 -0.12359941603E+03  0.20797775033E+02  0.12606925217E+03  0.47000000000E+01 0. -1.
        -11    1    6    6    0    0  0.37343935703E+02 -0.24135996858E+02 -0.75413873502E-01  0.44464835156E+02  0.00000000000E+00 0.  1.
         12    1    6    6    0    0 -0.22842186640E+02  0.30593157287E+02 -0.30298058593E+00  0.38181128329E+02  0.00000000000E+00 0. -1.
         -5    1    3    3    0  503  0.18090314532E+02  0.12036784320E+03  0.69559927155E+02  0.14027241575E+03  0.47000000000E+01 0.  1.
         11    1    4    4    0    0  0.29824884113E+02  0.80564760310E+01  0.29134508000E+02  0.42464692095E+02  0.00000000000E+00 0. -1.
        -12    1    4    4    0    0 -0.49688897837E+02 -0.11282063631E+02  0.22878782466E+02  0.55854366124E+02  0.00000000000E+00 0.  1.
</event>
<event>
12    1  0.1032880E+000  0.2220272E+03  0.7818608E-02  0.1132381E+00
         21   -1    0    0  501  502  0.00000000000E+00  0.00000000000E+00  0.54071554136E+02  0.54071554136E+02  0.00000000000E+00 0.  1.
         21   -1    0    0  502  503 -0.00000000000E+00 -0.00000000000E+00 -0.92147434653E+03  0.92147434653E+03  0.00000000000E+00 0. -1.
         -6    2    1    2    0  503  0.47091241887E+01 -0.13974034489E+03 -0.38339343510E+03  0.44304242413E+03  0.17247180543E+03 0.  0.
        -24    2    3    3    0    0 -0.62072283385E+02 -0.73695205301E+02 -0.25340269654E+03  0.28260116083E+03  0.79790587412E+02 0.  0.
          6    2    1    2  501    0 -0.47091241887E+01  0.13974034489E+03 -0.48400935730E+03  0.53250347653E+03  0.17246841661E+03 0.  0.
         24    2    5    5    0    0  0.21663862830E+02  0.41488317952E+02 -0.36144411123E+03  0.37315064542E+03  0.80055950140E+02 0.  0.
          5    1    5    5  501    0 -0.26372987018E+02  0.98252026933E+02 -0.12256524607E+03  0.15935283111E+03  0.47000000000E+01 0. -1.
        -13    1    6    6    0    0 -0.39777833620E+01 -0.91918586930E+01 -0.22674932146E+03  0.22697041174E+03  0.00000000000E+00 0.  1.
         14    1    6    6    0    0  0.25641646191E+02  0.50680176645E+02 -0.13469478977E+03  0.14618023367E+03  0.00000000000E+00 0. -1.
         -5    1    3    3    0  503  0.66781407574E+02 -0.66045139584E+02 -0.12999073855E+03  0.16044126330E+03  0.47000000000E+01 0.  1.
         11    1    4    4    0    0 -0.59986493815E+02 -0.72214949462E+02 -0.13648142193E+03  0.16565191486E+03  0.00000000000E+00 0. -1.
        -12    1    4    4    0    0 -0.20857895702E+01 -0.14802558396E+01 -0.11692127462E+03  0.11694924597E+03  0.00000000000E+00 0.  1.
</event>
<event>
12    1  0.1032880E+000  0.2719741E+03  0.7818608E-02  0.1100277E+00
         21   -1    0    0  503  502  0.00000000000E+00  0.00000000000E+00  0.49645721010E+02  0.49645721010E+02  0.00000000000E+00 0.  1.
         21   -1    0    0  501  503 -0.00000000000E+00 -0.00000000000E+00 -0.15491847988E+04  0.15491847988E+04  0.00000000000E+00 0.  1.
          6    2    1    2  501    0 -0.32428001085E+02  0.20808730156E+03 -0.58624674701E+03  0.64590198448E+03  0.17074022623E+03 0.  0.
         24    2    3    3    0    0 -0.22814762858E+02  0.10252101601E+03 -0.45701068366E+03  0.47868743648E+03  0.96186406195E+02 0.  0.
         -6    2    1    2    0  502  0.32428001085E+02 -0.20808730156E+03 -0.91329233080E+03  0.95292853535E+03  0.17209884269E+03 0.  0.
        -24    2    5    5    0    0  0.11765231195E+02 -0.38961255702E+02 -0.19922109957E+03  0.21879613399E+03  0.80785528565E+02 0.  0.
          5    1    3    3  501    0 -0.96132382277E+01  0.10556628555E+03 -0.12923606335E+03  0.16721454800E+03  0.47000000000E+01 0. -1.
        -13    1    4    4    0    0 -0.58653256549E+02  0.68219197838E+02 -0.24633750863E+03  0.26225222900E+03  0.00000000000E+00 0.  1.
         14    1    4    4    0    0  0.35838493691E+02  0.34301818177E+02 -0.21067317503E+03  0.21643520748E+03  0.00000000000E+00 0. -1.
         -5    1    5    5    0  502  0.20662769890E+02 -0.16912604586E+03 -0.71407123123E+03  0.73413240136E+03  0.47000000000E+01 0.  1.
         11    1    6    6    0    0  0.10086654425E+02 -0.61112163050E+02 -0.17635608892E+03  0.18691684560E+03  0.00000000000E+00 0. -1.
        -12    1    6    6    0    0  0.16785767706E+01  0.22150907348E+02 -0.22865010646E+02  0.31879288388E+02  0.00000000000E+00 0.  1.
</event>
<event>
12    1  0.1032880E+000  0.2356759E+03  0.7818608E-02  0.1122820E+00
         21   -1    0    0  501  502  0.00000000000E+00  0.00000000000E+00  0.26093567407E+03  0.26093567407E+03  0.00000000000E+00 0.  1.
         21   -1    0    0  502  503 -0.00000000000E+00 -0.00000000000E+00 -0.22106265147E+03  0.22106265147E+03  0.00000000000E+00 0.  1.
         -6    2    1    2    0  503 -0.12286532458E+03  0.10595761462E+03  0.68034074712E+02  0.24529932455E+03  0.17093922670E+03 0.  0.
        -24    2    3    3    0    0 -0.69704233870E+02  0.12289868554E+03  0.61708413465E+01  0.16185921974E+03  0.78724587031E+02 0.  0.
          6    2    1    2  501    0  0.12286532458E+03 -0.10595761462E+03 -0.28161052116E+02  0.23669900099E+03  0.17003078584E+03 0.  0.
         24    2    5    5    0    0  0.14811697029E+03 -0.66063444509E+02 -0.45995776213E+02  0.18601016786E+03  0.78620325171E+02 0.  0.
          5    1    5    5  501    0 -0.25251645716E+02 -0.39894170112E+02  0.17834724097E+02  0.50688833128E+02  0.47000000000E+01 0. -1.
        -11    1    6    6    0    0  0.61745358014E+02 -0.41064144271E+02  0.17180872109E+02  0.76117905564E+02  0.00000000000E+00 0.  1.
         12    1    6    6    0    0  0.86371612279E+02 -0.24999300237E+02 -0.63176648322E+02  0.10989226230E+03  0.00000000000E+00 0. -1.
         -5    1    3    3    0  503 -0.53161090707E+02 -0.16941070921E+02  0.61863233365E+02  0.83440104815E+02  0.47000000000E+01 0.  1.
         13    1    4    4    0    0 -0.64818633881E+02  0.34995852584E+02  0.46159607914E+01  0.73806992150E+02  0.00000000000E+00 0. -1.
        -14    1    4    4    0    0 -0.48855999894E+01  0.87902832957E+02  0.15548805551E+01  0.88052227585E+02  0.00000000000E+00 0.  1.
</event>
<event>
12    1  0.1032880E+000  0.3058802E+03  0.7818608E-02  0.1082344E+00
         21   -1    0    0  503  502  0.00000000000E+00  0.00000000000E+00  0.82603788599E+03  0.82603788599E+03  0.00000000000E+00 0.  1.
         21   -1    0    0  501  503 -0.00000000000E+00 -0.00000000000E+00 -0.21162557895E+03  0.21162557895E+03  0.00000000000E+00 0.  1.
          6    2    1    2  501    0 -0.78345075150E+02 -0.23997945194E+03  0.66096372144E+03  0.72831018924E+03  0.17272695951E+03 0.  0.
         24    2    3    3    0    0 -0.99914959131E+02 -0.22525256079E+03  0.48449239122E+03  0.54985470009E+03  0.82979508705E+02 0.  0.
         -6    2    1    2    0  502  0.78345075150E+02  0.23997945194E+03 -0.46551414393E+02  0.30935327570E+03  0.17263929695E+03 0.  0.
        -24    2    5    5    0    0  0.69331432953E+02  0.23815790361E+03 -0.80893652379E+02  0.27349183271E+03  0.82024172750E+02 0.  0.
          5    1    3    3  501    0  0.21569883981E+02 -0.14726891154E+02  0.17647133021E+03  0.17845548914E+03  0.47000000000E+01 0. -1.
        -11    1    4    4    0    0 -0.53307577181E+02 -0.65819008420E+02  0.23796294345E+03  0.25258701888E+03  0.00000000000E+00 0.  1.
         12    1    4    4    0    0 -0.46607381950E+02 -0.15943355237E+03  0.24652944777E+03  0.29726768121E+03  0.00000000000E+00 0. -1.
         -5    1    5    5    0  502  0.90136421964E+01  0.18215483321E+01  0.34342237986E+02  0.35861442997E+02  0.47000000000E+01 0.  1.
         11    1    6    6    0    0  0.65568522057E+02  0.12553598194E+03 -0.13688100403E+02  0.14228801053E+03  0.00000000000E+00 0. -1.
        -12    1    6    6    0    0  0.37629108964E+01  0.11262192166E+03 -0.67205551976E+02  0.13120382218E+03  0.00000000000E+00 0.  1.
</event>
<event>
12    1  0.1032880E+000  0.1819906E+03  0.7818608E-02  0.1165943E+00
         21   -1    0    0  501  502  0.00000000000E+00  0.00000000000E+00  0.92142722569E+03  0.92142722569E+03  0.00000000000E+00 0. -1.
         21   -1    0    0  502  503 -0.00000000000E+00 -0.00000000000E+00 -0.45989251345E+02  0.45989251345E+02  0.00000000000E+00 0. -1.
         -6    2    1    2    0  503 -0.56061320215E+02 -0.13997850612E+02  0.21138097892E+03  0.27893101408E+03  0.17257398681E+03 0.  0.
        -24    2    3    3    0    0 -0.87255058422E+02 -0.43797821494E+02  0.19396361217E+03  0.23217053684E+03  0.82155833273E+02 0.  0.
          6    2    1    2  501    0  0.56061320215E+02  0.13997850612E+02  0.66405699543E+03  0.68848546295E+03  0.17234189297E+03 0.  0.
         24    2    5    5    0    0 -0.14392532349E+02 -0.34012613321E+02  0.43294453185E+03  0.44210402938E+03  0.81553677298E+02 0.  0.
          5    1    5    5  501    0  0.70453852565E+02  0.48010463933E+02  0.23111246358E+03  0.24638143357E+03  0.47000000000E+01 0. -1.
        -13    1    6    6    0    0 -0.11505284262E+02 -0.28873208382E+02  0.43481120261E+03  0.43592065292E+03  0.00000000000E+00 0.  1.
         14    1    6    6    0    0 -0.28872480870E+01 -0.51394049397E+01 -0.18666707615E+01  0.61833764548E+01  0.00000000000E+00 0. -1.
         -5    1    3    3    0  503  0.31193738207E+02  0.29799970882E+02  0.17417366744E+02  0.46760477246E+02  0.47000000000E+01 0.  1.
         11    1    4    4    0    0 -0.68588540740E+02  0.10870844588E+02  0.11481229496E+03  0.13418057332E+03  0.00000000000E+00 0. -1.
        -12    1    4    4    0    0 -0.18666517683E+02 -0.54668666082E+02  0.79151317215E+02  0.97989963519E+02  0.00000000000E+00 0.  1.
</event>
<event>
12    1  0.1032880E+000  0.1850790E+03  0.7818608E-02  0.1163183E+00
         21   -1    0    0  503  502  0.00000000000E+00  0.00000000000E+00  0.52598563222E+03  0.52598563222E+03  0.00000000000E+00 0.  1.
         21   -1    0    0  501  503 -0.00000000000E+00 -0.00000000000E+00 -0.16440009969E+03  0.16440009969E+03  0.00000000000E+00 0.  1.
          6    2    1    2  501    0  0.13695957281E+02 -0.64718716007E+02  0.44962835412E+03  0.48623029060E+03  0.17285296416E+03 0.  0.
         24    2    3    3    0    0  0.33092503835E+02  0.15346141018E+02  0.13218119195E+03  0.15823425691E+03  0.78965781823E+02 0.  0.
         -6    2    1    2    0  502 -0.13695957281E+02  0.64718716007E+02 -0.88042821586E+02  0.20415544131E+03  0.17190641157E+03 0.  0.
        -24    2    5    5    0    0 -0.43858441217E+02  0.10051832893E+03 -0.58496734178E+02  0.14859962251E+03  0.81440055154E+02 0.  0.
          5    1    3    3  501    0 -0.19396546554E+02 -0.80064857026E+02  0.31744716217E+03  0.32799603369E+03  0.47000000000E+01 0. -1.
        -11    1    4    4    0    0 -0.10520523717E+02 -0.19147637060E+02  0.76438750781E+02  0.79499660661E+02  0.00000000000E+00 0.  1.
         12    1    4    4    0    0  0.43613027552E+02  0.34493778078E+02  0.55742441171E+02  0.78734596246E+02  0.00000000000E+00 0. -1.
         -5    1    5    5    0  502  0.30162483936E+02 -0.35799612918E+02 -0.29546087408E+02  0.55555818808E+02  0.47000000000E+01 0.  1.
         13    1    6    6    0    0  0.23854936015E+01  0.58914469348E+02 -0.62930819840E+02  0.86237424382E+02  0.00000000000E+00 0. -1.
        -14    1    6    6    0    0 -0.46243934819E+02  0.41603859578E+02  0.44340856616E+01  0.62362198125E+02  0.00000000000E+00 0.  1.
</event>
<event>
12    1  0.1032880E+000  0.1895472E+03  0.7818608E-02  0.1159397E+00
         21   -1    0    0  503  502  0.00000000000E+00  0.00000000000E+00  0.11158414329E+04  0.11158414329E+04  0.00000000000E+00 0.  1.
         21   -1    0    0  501  503 -0.00000000000E+00 -0.00000000000E+00 -0.32119655122E+02  0.32119655122E+02  0.00000000000E+00 0.  1.
          6    2    1    2  501    0  0.60432908438E+02  0.53047504552E+02  0.48846735447E+03  0.52395467876E+03  0.17164490918E+03 0.  0.
         24    2    3    3    0    0  0.72432701065E+02 -0.21368220052E+02  0.32388310441E+03  0.34286972505E+03  0.83404352541E+02 0.  0.
         -6    2    1    2    0  502 -0.60432908438E+02 -0.53047504552E+02  0.59525442330E+03  0.62400640925E+03  0.16908576572E+03 0.  0.
        -24    2    5    5    0    0  0.12706782587E+02 -0.58612700991E+02  0.23182975049E+03  0.25322349619E+03  0.82341938089E+02 0.  0.
          5    1    3    3  501    0 -0.11999792627E+02  0.74415724604E+02  0.16458425006E+03  0.18108495371E+03  0.47000000000E+01 0. -1.
        -13    1    4    4    0    0  0.46281456006E+02 -0.48559795722E+02  0.14110867673E+03  0.15624239367E+03  0.00000000000E+00 0.  1.
         14    1    4    4    0    0  0.26151245060E+02  0.27191575671E+02  0.18277442768E+03  0.18662733138E+03  0.00000000000E+00 0. -1.
         -5    1    5    5    0  502 -0.73139691026E+02  0.55651964392E+01  0.36342467281E+03  0.37078291307E+03  0.47000000000E+01 0.  1.
         13    1    6    6    0    0 -0.34681390037E+02 -0.16281059518E+02  0.89177563699E+02  0.97059309606E+02  0.00000000000E+00 0. -1.
        -14    1    6    6    0    0  0.47388172625E+02 -0.42331641473E+02  0.14265218679E+03  0.15616418658E+03  0.00000000000E+00 0.  1.
</event>
<event>
12    1  0.1032880E+000  0.2682999E+03  0.7818608E-02  0.1102364E+00
         21   -1    0    0  501  502  0.00000000000E+00  0.00000000000E+00  0.19700624980E+03  0.19700624980E+03  0.00000000000E+00 0.  1.
         21   -1    0    0  502  503 -0.00000000000E+00 -0.00000000000E+00 -0.54617946010E+03  0.54617946010E+03  0.00000000000E+00 0.  1.
         -6    2    1    2    0  503  0.15108335298E+03 -0.13845739544E+03 -0.38881010185E+03  0.47197379354E+03  0.17201551265E+03 0.  0.
        -24    2    3    3    0    0  0.17853255266E+02 -0.37610584404E+02 -0.20153413181E+03  0.22094646996E+03  0.80424135179E+02 0.  0.
          6    2    1    2  501    0 -0.15108335298E+03  0.13845739544E+03  0.39636891552E+02  0.27121191635E+03  0.17317098632E+03 0.  0.
         24    2    5    5    0    0 -0.88175601178E+02  0.79709723480E+02  0.92092857205E+02  0.17030407459E+03  0.79961283216E+02 0.  0.
          5    1    5    5  501    0 -0.62907751800E+02  0.58747671955E+02 -0.52455965653E+02  0.10090784176E+03  0.47000000000E+01 0. -1.
        -11    1    6    6    0    0 -0.10888102945E+02 -0.43508120712E+01 -0.11282288890E+02  0.16271766776E+02  0.00000000000E+00 0.  1.
         12    1    6    6    0    0 -0.77287498233E+02  0.84060535551E+02  0.10337514610E+03  0.15403230781E+03  0.00000000000E+00 0. -1.
         -5    1    3    3    0  503  0.13323009771E+03 -0.10084681103E+03 -0.18727597004E+03  0.25102732358E+03  0.47000000000E+01 0.  1.
         11    1    4    4    0    0  0.37786035830E+02 -0.51844816305E+02 -0.16427616710E+03  0.17635852279E+03  0.00000000000E+00 0. -1.
        -12    1    4    4    0    0 -0.19932780563E+02  0.14234231901E+02 -0.37257964710E+02  0.44587947173E+02  0.00000000000E+00 0.  1.
</event>
<event>
12    1  0.1032880E+000  0.1770708E+03  0.7818608E-02  0.1170734E+00
         21   -1    0    0  501  502  0.00000000000E+00  0.00000000000E+00  0.34149932803E+02  0.34149932803E+02  0.00000000000E+00 0.  1.
         21   -1    0    0  502  503 -0.00000000000E+00 -0.00000000000E+00 -0.92359572762E+03  0.92359572762E+03  0.00000000000E+00 0.  1.
         -6    2    1    2    0  503 -0.34366410836E+02  0.21369207187E+02 -0.48560504126E+03  0.51679055044E+03  0.17211195110E+03 0.  0.
        -24    2    3    3    0    0 -0.14836493892E+01 -0.39670340300E+02 -0.15300864863E+03  0.17701186842E+03  0.79659386720E+02 0.  0.
          6    2    1    2  501    0  0.34366410836E+02 -0.21369207187E+02 -0.40384075355E+03  0.44095510998E+03  0.17238434262E+03 0.  0.
         24    2    5    5    0    0  0.18092862083E+02  0.26469829649E+02 -0.66353418199E+02  0.99673417889E+02  0.67111925818E+02 0.  0.
          5    1    5    5  501    0  0.16273548753E+02 -0.47839036835E+02 -0.33748733536E+03  0.34128169210E+03  0.47000000000E+01 0. -1.
        -13    1    6    6    0    0 -0.18343935517E+02  0.27673846497E+02 -0.49269646391E+02  0.59412454971E+02  0.00000000000E+00 0.  1.
         14    1    6    6    0    0  0.36436797600E+02 -0.12040168482E+01 -0.17083771808E+02  0.40260962918E+02  0.00000000000E+00 0. -1.
         -5    1    3    3    0  503 -0.32882761447E+02  0.61039547486E+02 -0.33259639264E+03  0.33977868201E+03  0.47000000000E+01 0.  1.
         11    1    4    4    0    0  0.72584675857E+00 -0.23657005213E+02 -0.15825631133E+03  0.16001637674E+03  0.00000000000E+00 0. -1.
        -12    1    4    4    0    0 -0.22094961477E+01 -0.16013335087E+02  0.52476626996E+01  0.16995491686E+02  0.00000000000E+00 0.  1.
</event>
<event>
12    1  0.1032880E+000  0.1813110E+03  0.7818608E-02  0.1166881E+00
         21   -1    0    0  501  502  0.00000000000E+00  0.00000000000E+00  0.13307562216E+03  0.13307562216E+03  0.00000000000E+00 0.  1.
         21   -1    0    0  502  503 -0.00000000000E+00 -0.00000000000E+00 -0.24807422808E+03  0.24807422808E+03  0.00000000000E+00 0.  1.
         -6    2    1    2    0  503 -0.33830672248E+02  0.45169246662E+02 -0.36878551868E+02  0.18502348184E+03  0.17230463144E+03 0.  0.
        -24    2    3    3    0    0  0.30867196993E+02  0.47960346725E+02 -0.60155207319E+02  0.11604886903E+03  0.81213990957E+02 0.  0.
          6    2    1    2  501    0  0.33830672248E+02 -0.45169246662E+02 -0.78120054046E+02  0.19612636839E+03  0.17081579057E+03 0.  0.
         24    2    5    5    0    0 -0.38092939960E+02  0.44129050058E+01 -0.60768799854E+02  0.10693807444E+03  0.79198225505E+02 0.  0.
          5    1    5    5  501    0  0.71923612209E+02 -0.49582151668E+02 -0.17351254192E+02  0.89188293958E+02  0.47000000000E+01 0. -1.
        -11    1    6    6    0    0  0.18898486986E+02  0.15260390148E+02 -0.20234333475E+01  0.24374712313E+02  0.00000000000E+00 0.  1.
         12    1    6    6    0    0 -0.56991426946E+02 -0.10847485142E+02 -0.58745366506E+02  0.82563362124E+02  0.00000000000E+00 0. -1.
         -5    1    3    3    0  503 -0.64697869241E+02 -0.27911000632E+01  0.23276655452E+02  0.68974612815E+02  0.47000000000E+01 0.  1.
         11    1    4    4    0    0  0.35228600929E+02  0.45001352766E+02 -0.15131995091E+01  0.57170498047E+02  0.00000000000E+00 0. -1.
        -12    1    4    4    0    0 -0.43614039362E+01  0.29589939597E+01 -0.58642007810E+02  0.58878370983E+02  0.00000000000E+00 0.  1.
</event>
<event>
12    1  0.1032880E+000  0.1982751E+03  0.7818608E-02  0.1151449E+00
         21   -1    0    0  501  502  0.00000000000E+00  0.00000000000E+00  0.15011448340E+03  0.15011448340E+03  0.00000000000E+00 0.  1.
         21   -1    0    0  502  503 -0.00000000000E+00 -0.00000000000E+00 -0.33597374250E+03  0.33597374250E+03  0.00000000000E+00 0.  1.
         -6    2    1    2    0  503 -0.15799331687E+02  0.97956939206E+02 -0.20801366003E+03  0.28657929315E+03  0.17033152286E+03 0.  0.
        -24    2    3    3    0    0  0.13601627237E+02 -0.13759233284E+02 -0.10063425014E+03  0.12879036055E+03  0.78008870685E+02 0.  0.
          6    2    1    2  501    0  0.15799331687E+02 -0.97956939206E+02  0.22154400930E+02  0.19950893275E+03  0.17166192341E+03 0.  0.
         24    2    5    5    0    0  0.79790687766E+01  0.17006483202E+02 -0.64068385614E+01  0.80699928864E+02  0.78221128405E+02 0.  0.
          5    1    5    5  501    0  0.78202629103E+01 -0.11496342241E+03  0.28561239492E+02  0.11880900389E+03  0.47000000000E+01 0. -1.
        -11    1    6    6    0    0  0.38301746809E+02 -0.26560532041E+00  0.13393783831E+02  0.40576936801E+02  0.00000000000E+00 0.  1.
         12    1    6    6    0    0 -0.30322678033E+02  0.17272088523E+02 -0.19800622393E+02  0.40122992064E+02  0.00000000000E+00 0. -1.
         -5    1    3    3    0  503 -0.29400958924E+02  0.11171617249E+03 -0.10737940989E+03  0.15778893260E+03  0.47000000000E+01 0.  1.
         13    1    4    4    0    0 -0.29957378375E+02  0.39255849834E+01 -0.22763945238E+02  0.37829247142E+02  0.00000000000E+00 0. -1.
        -14    1    4    4    0    0  0.43559005612E+02 -0.17684818267E+02 -0.77870304897E+02  0.90961113405E+02  0.00000000000E+00 0.  1.
</event>
<event>
12    1  0.1032880E+000  0.2181710E+03  0.7818608E-02  0.1135335E+00
         21   -1    0    0  503  502  0.00000000000E+00  0.00000000000E+00  0.56952604290E+03  0.56952604290E+03  0.00000000000E+00 0.  1.
         21   -1    0    0  501  503 -0.00000000000E+00 -0.00000000000E+00 -0.83880670746E+02  0.83880670746E+02  0.00000000000E+00 0.  1.
          6    2    1    2  501    0 -0.78950020022E+02  0.10805963630E+03  0.26703030709E+03  0.34455213230E+03  0.17175854072E+03 0.  0.
         24    2    3    3    0    0 -0.97297267356E+02  0.45470291166E+02  0.23768885505E+03  0.27287885683E+03  0.80203323343E+02 0.  0.
         -6    2    1    2    0  502  0.78950020022E+02 -0.10805963630E+03  0.21861506506E+03  0.30885458134E+03  0.17230384525E+03 0.  0.
        -24    2    5    5    0    0  0.18047746678E+02 -0.52864674104E+02  0.30198407278E+02  0.10323722390E+03  0.81397700637E+02 0.  0.
          5    1    3    3  501    0  0.18347247334E+02  0.62589345132E+02  0.29341452037E+02  0.71673275468E+02  0.47000000000E+01 0. -1.
        -11    1    4    4    0    0 -0.37274519355E+02 -0.33135161843E-01  0.19525201333E+02  0.42078787746E+02  0.00000000000E+00 0.  1.
         12    1    4    4    0    0 -0.60022748001E+02  0.45503426328E+02  0.21816365372E+03  0.23080006908E+03  0.00000000000E+00 0. -1.
         -5    1    5    5    0  502  0.60902273344E+02 -0.55194962193E+02  0.18841665778E+03  0.20561735744E+03  0.47000000000E+01 0.  1.
         13    1    6    6    0    0  0.31025855112E+02 -0.61781420183E+02 -0.51722468230E-01  0.69134291350E+02  0.00000000000E+00 0. -1.
        -14    1    6    6    0    0 -0.12978108434E+02  0.89167460785E+01  0.30250129746E+02  0.34102932555E+02  0.00000000000E+00 0.  1.
</event>
<event>
12    1  0.1032880E+000  0.3753851E+03  0.7818608E-02  0.1052906E+00
         21   -1    0    0  501  502  0.00000000000E+00  0.00000000000E+00  0.55607749669E+03  0.55607749669E+03  0.00000000000E+00 0. -1.
         21   -1    0    0  502  503 -0.00000000000E+00 -0.00000000000E+00 -0.33118147041E+03  0.33118147041E+03  0.00000000000E+00 0. -1.
         -6    2    1    2    0  503  0.24047918291E+03  0.23156985979E+03  0.32960936050E+03  0.49754255129E+03  0.16568470790E+03 0.  0.
        -24    2    3    3    0    0  0.22783737786E+03  0.25130081680E+03  0.31419081428E+03  0.46910054947E+03  0.79230590424E+02 0.  0.
          6    2    1    2  501    0 -0.24047918291E+03 -0.23156985979E+03 -0.10471333422E+03  0.38971641581E+03  0.17163672395E+03 0.  0.
         24    2    5    5    0    0 -0.21039602648E+03 -0.11028355542E+03 -0.68041486748E+02  0.25940034495E+03  0.78929997368E+02 0.  0.
          5    1    5    5  501    0 -0.30083156435E+02 -0.12128630437E+03 -0.36671847475E+02  0.13031607086E+03  0.47000000000E+01 0. -1.
        -11    1    6    6    0    0 -0.74029463515E+02 -0.20327902628E+02  0.11627081147E+02  0.77645180853E+02  0.00000000000E+00 0.  1.
         12    1    6    6    0    0 -0.13636656296E+03 -0.89955652796E+02 -0.79668567895E+02  0.18175516409E+03  0.00000000000E+00 0. -1.
         -5    1    3    3    0  503  0.12641805053E+02 -0.19730957013E+02  0.15418546219E+02  0.28442001814E+02  0.47000000000E+01 0.  1.
         11    1    4    4    0    0  0.96993576802E+02  0.15692626545E+03  0.19560790690E+03  0.26887926653E+03  0.00000000000E+00 0. -1.
        -12    1    4    4    0    0  0.13084380106E+03  0.94374551351E+02  0.11858290738E+03  0.20022128294E+03  0.00000000000E+00 0.  1.
</event>
<event>
12    1  0.1032880E+000  0.2179801E+03  0.7818608E-02  0.1135470E+00
         21   -1    0    0  503  502  0.00000000000E+00  0.00000000000E+00  0.20181970233E+03  0.20181970233E+03  0.00000000000E+00 0.  1.
         21   -1    0    0  501  503 -0.00000000000E+00 -0.00000000000E+00 -0.23529746786E+03  0.23529746786E+03  0.00000000000E+00 0.  1.
          6    2    1    2  501    0 -0.11619580097E+03  0.65573356384E+02 -0.24218357739E+02  0.21894054015E+03  0.17189270502E+03 0.  0.
         24    2    3    3    0    0 -0.49854996877E+02  0.10089342202E+03  0.38681925489E+01  0.13856919183E+03  0.80755524202E+02 0.  0.
         -6    2    1    2    0  502  0.11619580097E+03 -0.65573356384E+02 -0.92594077876E+01  0.21817663004E+03  0.17237742321E+03 0.  0.
        -24    2    5    5    0    0  0.31109717740E+02 -0.74980717931E+02  0.38878701858E+02  0.11985314550E+03  0.79141016102E+02 0.  0.
          5    1    3    3  501    0 -0.66340804092E+02 -0.35320065636E+02 -0.28086550288E+02  0.80371348322E+02  0.47000000000E+01 0. -1.
        -13    1    4    4    0    0  0.24347570475E+01 -0.80923658479E+01  0.14958877532E+02  0.17180874364E+02  0.00000000000E+00 0.  1.
         14    1    4    4    0    0 -0.52289753925E+02  0.10898578787E+03 -0.11090684983E+02  0.12138831746E+03  0.00000000000E+00 0. -1.
         -5    1    5    5    0  502  0.85086083229E+02  0.94073615473E+01 -0.48138109645E+02  0.98323484534E+02  0.47000000000E+01 0.  1.
         11    1    6    6    0    0  0.36413089060E+02 -0.32670773824E+02  0.55593112808E+02  0.74053269400E+02  0.00000000000E+00 0. -1.
        -12    1    6    6    0    0 -0.53033713200E+01 -0.42309944107E+02 -0.16714410950E+02  0.45799876104E+02  0.00000000000E+00 0.  1.
</event>
<event>
12    1  0.1032880E+000  0.2592361E+03  0.7818608E-02  0.1107625E+00
         21   -1    0    0  501  502  0.00000000000E+00  0.00000000000E+00  0.72276976614E+03  0.72276976614E+03  0.00000000000E+00 0. -1.
         21   -1    0    0  502  503 -0.00000000000E+00 -0.00000000000E+00 -0.14681514892E+03  0.14681514892E+03  0.00000000000E+00 0. -1.
         -6    2    1    2    0  503  0.13436281564E+03 -0.13987728971E+03  0.55134135556E+03  0.60918296156E+03  0.17177766996E+03 0.  0.
        -24    2    3    3    0    0  0.50708730993E+02 -0.14137027122E+03  0.29945890140E+03  0.34372657044E+03  0.76911589595E+02 0.  0.
          6    2    1    2  501    0 -0.13436281564E+03  0.13987728971E+03  0.24613261657E+02  0.26040195350E+03  0.17200099515E+03 0.  0.
         24    2    5    5    0    0 -0.13262830471E+03  0.13062405604E+03  0.69277425851E+02  0.21451504442E+03  0.81021178238E+02 0.  0.
          5    1    5    5  501    0 -0.17345109233E+01  0.92532336787E+01 -0.44664164194E+02  0.45886909079E+02  0.47000000000E+01 0. -1.
        -11    1    6    6    0    0 -0.12265206908E+03  0.13820164004E+03  0.49826679632E+02  0.19137899927E+03  0.00000000000E+00 0.  1.
         12    1    6    6    0    0 -0.99762356367E+01 -0.75775840006E+01  0.19450746218E+02  0.23136045151E+02  0.00000000000E+00 0. -1.
         -5    1    3    3    0  503  0.83654084644E+02  0.14929815091E+01  0.25188245417E+03  0.26545639112E+03  0.47000000000E+01 0.  1.
         11    1    4    4    0    0  0.24232542030E+02 -0.10532561609E+03  0.13306151576E+03  0.17142365203E+03  0.00000000000E+00 0. -1.
        -12    1    4    4    0    0  0.26476188963E+02 -0.36044655131E+02  0.16639738563E+03  0.17230291841E+03  0.00000000000E+00 0.  1.
</event>
<event>
12    1  0.1032880E+000  0.2417891E+03  0.7818608E-02  0.1118714E+00
         21   -1    0    0  503  502  0.00000000000E+00  0.00000000000E+00  0.11248350477E+03  0.11248350477E+03  0.00000000000E+00 0.  1.
         21   -1    0    0  501  503 -0.00000000000E+00 -0.00000000000E+00 -0.77878509636E+03  0.77878509636E+03  0.00000000000E+00 0.  1.
          6    2    1    2  501    0  0.31772434543E+02 -0.16560586717E+03 -0.75150060323E+02  0.25258078654E+03  0.17237961400E+03 0.  0.
         24    2    3    3    0    0  0.70081495158E+01 -0.63538165151E+02  0.27109622362E+02  0.10591716354E+03  0.79983131453E+02 0.  0.
         -6    2    1    2    0  502 -0.31772434543E+02  0.16560586717E+03 -0.59115153127E+03  0.63868781459E+03  0.17328358475E+03 0.  0.
        -24    2    5    5    0    0  0.47745859653E+02  0.99009425937E+02 -0.29966478093E+03  0.32926115006E+03  0.80817018449E+02 0.  0.
          5    1    3    3  501    0  0.24764285028E+02 -0.10206770202E+03 -0.10225968268E+03  0.14666362300E+03  0.47000000000E+01 0. -1.
        -13    1    4    4    0    0  0.32231769035E+02 -0.62537467952E+02  0.36156000521E+02  0.79101695347E+02  0.00000000000E+00 0.  1.
         14    1    4    4    0    0 -0.25223619519E+02 -0.10006971989E+01 -0.90463781592E+01  0.26815468192E+02  0.00000000000E+00 0. -1.
         -5    1    5    5    0  502 -0.79518294196E+02  0.66596441231E+02 -0.29148675035E+03  0.30942666453E+03  0.47000000000E+01 0.  1.
         13    1    6    6    0    0 -0.22300814687E+02  0.17120712369E+02 -0.74794853145E+02  0.79904412799E+02  0.00000000000E+00 0. -1.
        -14    1    6    6    0    0  0.70046674340E+02  0.81888713568E+02 -0.22486992778E+03  0.24935673726E+03  0.00000000000E+00 0.  1.
</event>
<event>
12    1  0.1032880E+000  0.2413079E+03  0.7818608E-02  0.1119087E+00
         21   -1    0    0  501  502  0.00000000000E+00  0.00000000000E+00  0.66185986521E+03  0.66185986521E+03  0.00000000000E+00 0. -1.
         21   -1    0    0  502  503 -0.00000000000E+00 -0.00000000000E+00 -0.96505308349E+02  0.96505308349E+02  0.00000000000E+00 0. -1.
         -6    2    1    2    0  503 -0.20008579084E+01  0.16877618622E+03  0.16815730069E+03  0.29411969075E+03  0.17245321176E+03 0.  0.
        -24    2    3    3    0    0 -0.95260126314E+01  0.11608226679E+03  0.18984730887E+03  0.23644973711E+03  0.79376570313E+02 0.  0.
          6    2    1    2  501    0  0.20008579084E+01 -0.16877618622E+03  0.39719725617E+03  0.46424548281E+03  0.17108127756E+03 0.  0.
         24    2    5    5    0    0  0.36638044909E+02 -0.17590382476E+03  0.28167989653E+03  0.34334515885E+03  0.79106460524E+02 0.  0.
          5    1    5    5  501    0 -0.34637187000E+02  0.71276385429E+01  0.11551735964E+03  0.12090032396E+03  0.47000000000E+01 0. -1.
        -13    1    6    6    0    0  0.22154347592E+02 -0.92004808788E+02  0.78174089433E+02  0.12274725339E+03  0.00000000000E+00 0.  1.
         14    1    6    6    0    0  0.14483697316E+02 -0.83899015974E+02  0.20350580710E+03  0.22059790546E+03  0.00000000000E+00 0. -1.
         -5    1    3    3    0  503  0.75251547230E+01  0.52693919427E+02 -0.21690008178E+02  0.57669953641E+02  0.47000000000E+01 0.  1.
         11    1    4    4    0    0  0.24413360911E+02  0.27756815474E+02  0.97333371099E+02  0.10411646424E+03  0.00000000000E+00 0. -1.
        -12    1    4    4    0    0 -0.33939373543E+02  0.88325451318E+02  0.92513937767E+02  0.13233327287E+03  0.00000000000E+00 0.  1.
</event>
<event>
12    1  0.1032880E+000  0.1718985E+03  0.7818608E-02  0.1175906E+00
         21   -1    0    0  501  502  0.00000000000E+00  0.00000000000E+00  0.44327257260E+03  0.44327257260E+03  0.00000000000E+00 0.  1.
         21   -1    0    0  502  503 -0.00000000000E+00 -0.00000000000E+00 -0.15942195566E+03  0.15942195566E+03  0.00000000000E+00 0.  1.
         -6    2    1    2    0  503 -0.92270269644E+01  0.43350187706E+01  0.37181939801E+03  0.40959457703E+03  0.17150545875E+03 0.  0.
        -24    2    3    3    0    0  0.32023136742E+02  0.85949119414E+01  0.35354340116E+03  0.36403335715E+03  0.80174776715E+02 0.  0.
          6    2    1    2  501    0  0.92270269644E+01 -0.43350187706E+01 -0.87968781072E+02  0.19309995123E+03  0.17159590411E+03 0.  0.
         24    2    5    5    0    0  0.13223920611E+02 -0.54778481082E+02 -0.10133231743E+03  0.14055290419E+03  0.79443855996E+02 0.  0.
          5    1    5    5  501    0 -0.39968936462E+01  0.50443462311E+02  0.13363536357E+02  0.52547047041E+02  0.47000000000E+01 0. -1.
        -11    1    6    6    0    0  0.16270967247E+02 -0.22139161994E+02  0.61735042411E+01  0.28160238344E+02  0.00000000000E+00 0.  1.
         12    1    6    6    0    0 -0.30470466366E+01 -0.32639319088E+02 -0.10750582167E+03  0.11239266585E+03  0.00000000000E+00 0. -1.
         -5    1    3    3    0  503 -0.41250163706E+02 -0.42598931707E+01  0.18275996858E+02  0.45561219878E+02  0.47000000000E+01 0.  1.
         11    1    4    4    0    0 -0.40573465886E+01  0.39128757337E+02  0.14980775732E+03  0.15488668718E+03  0.00000000000E+00 0. -1.
        -12    1    4    4    0    0  0.36080483330E+02 -0.30533845396E+02  0.20373564384E+03  0.20914666998E+03  0.00000000000E+00 0.  1.
</event>
<event>
12    1  0.1032880E+000  0.4218385E+03  0.7818608E-02  0.1036524E+00
         21   -1    0    0  501  502  0.00000000000E+00  0.00000000000E+00  0.37540858793E+03  0.37540858793E+03  0.00000000000E+00 0. -1.
         21   -1    0    0  502  503 -0.00000000000E+00 -0.00000000000E+00 -0.48432375141E+03  0.48432375141E+03  0.00000000000E+00 0. -1.
         -6    2    1    2    0  503  0.38249397871E+03 -0.42830831698E+02  0.10479418673E+02  0.42196864392E+03  0.17266034386E+03 0.  0.
        -24    2    3    3    0    0  0.20038524331E+03 -0.90008272077E+02  0.90688380929E+01  0.23378420745E+03  0.79480041850E+02 0.  0.
          6    2    1    2  501    0 -0.38249397871E+03  0.42830831698E+02 -0.11939458216E+03  0.43776369543E+03  0.17101421839E+03 0.  0.
         24    2    5    5    0    0 -0.18843826813E+03 -0.25261850579E+02 -0.10849592060E+03  0.23176587259E+03  0.76137460695E+02 0.  0.
          5    1    5    5  501    0 -0.19405571058E+03  0.68092682277E+02 -0.10898661551E+02  0.20599782283E+03  0.47000000000E+01 0. -1.
        -11    1    6    6    0    0 -0.66422922019E+02 -0.25054493572E+02 -0.39729978867E+01  0.71102158406E+02  0.00000000000E+00 0.  1.
         12    1    6    6    0    0 -0.12201534611E+03 -0.20735700706E+00 -0.10452292272E+03  0.16066371419E+03  0.00000000000E+00 0. -1.
         -5    1    3    3    0  503  0.18210873540E+03  0.47177440379E+02  0.14105805799E+01  0.18818443647E+03  0.47000000000E+01 0.  1.
         13    1    4    4    0    0  0.15278814807E+03 -0.51575751157E+02  0.38658779852E+02  0.16582755368E+03  0.00000000000E+00 0. -1.
        -14    1    4    4    0    0  0.47597095232E+02 -0.38432520920E+02 -0.29589941759E+02  0.67956653774E+02  0.00000000000E+00 0.  1.
</event>
<event>
12    1  0.1032880E+000  0.2216542E+03  0.7818608E-02  0.1132897E+00
         21   -1    0    0  503  502  0.00000000000E+00  0.00000000000E+00  0.36754297309E+02  0.36754297309E+02  0.00000000000E+00 0. -1.
         21   -1    0    0  501  503 -0.00000000000E+00 -0.00000000000E+00 -0.13758042135E+04  0.13758042135E+04  0.00000000000E+00 0. -1.
          6    2    1    2  501    0 -0.10905969847E+03  0.85674774613E+02 -0.80183954238E+03  0.83191178819E+03  0.17290571641E+03 0.  0.
         24    2    3    3    0    0 -0.12101438486E+03  0.22079350498E+02 -0.42555210765E+03  0.45007201023E+03  0.79613058007E+02 0.  0.
         -6    2    1    2    0  502  0.10905969847E+03 -0.85674774613E+02 -0.53721037380E+03  0.58064672261E+03  0.17123506044E+03 0.  0.
        -24    2    5    5    0    0  0.46732890260E+02 -0.27286188917E+02 -0.12295815420E+03  0.15765635699E+03  0.82512544977E+02 0.  0.
          5    1    3    3  501    0  0.11954686391E+02  0.63595424116E+02 -0.37628743474E+03  0.38183977796E+03  0.47000000000E+01 0. -1.
        -13    1    4    4    0    0 -0.10177957864E+03  0.23111755068E+02 -0.21873412198E+03  0.24235893210E+03  0.00000000000E+00 0.  1.
         14    1    4    4    0    0 -0.19234806222E+02 -0.10324045698E+01 -0.20681798567E+03  0.20771307813E+03  0.00000000000E+00 0. -1.
         -5    1    5    5    0  502  0.62326808212E+02 -0.58388585696E+02 -0.41425221960E+03  0.42299036561E+03  0.47000000000E+01 0.  1.
         13    1    6    6    0    0  0.24182593288E+02  0.25780903633E+02 -0.74026183484E+02  0.82032485342E+02  0.00000000000E+00 0. -1.
        -14    1    6    6    0    0  0.22550296972E+02 -0.53067092551E+02 -0.48931970715E+02  0.75623871650E+02  0.00000000000E+00 0.  1.
</event>
<event>
12    1  0.1032880E+000  0.1735983E+03  0.7818608E-02  0.1174796E+00
         21   -1    0    0  501  502  0.00000000000E+00  0.00000000000E+00  0.31632534666E+03  0.31632534666E+03  0.00000000000E+00 0. -1.
         21   -1    0    0  502  503 -0.00000000000E+00 -0.00000000000E+00 -0.11836147842E+03  0.11836147842E+03  0.00000000000E+00 0. -1.
         -6    2    1    2    0  503  0.11593740164E+02  0.19353697373E+02  0.19840264075E+03  0.26362846543E+03  0.17212605706E+03 0.  0.
        -24    2    3    3    0    0  0.53779522921E+02  0.48728134330E+02  0.17749637849E+03  0.20793592002E+03  0.80409665434E+02 0.  0.
          6    2    1    2  501    0 -0.11593740164E+02 -0.19353697373E+02 -0.43877249967E+00  0.17105835965E+03  0.16956352636E+03 0.  0.
         24    2    5    5    0    0 -0.20497041225E+02 -0.62291418138E+02 -0.40458022473E+02  0.11150546717E+03  0.80599430227E+02 0.  0.
          5    1    5    5  501    0  0.89033010615E+01  0.42937720765E+02  0.40019249974E+02  0.59552892480E+02  0.47000000000E+01 0. -1.
        -13    1    6    6    0    0 -0.27590403200E+02 -0.14575531434E+02  0.17755443447E+02  0.35901702429E+02  0.00000000000E+00 0.  1.
         14    1    6    6    0    0  0.70933619751E+01 -0.47715886704E+02 -0.58213465920E+02  0.75603764737E+02  0.00000000000E+00 0. -1.
         -5    1    3    3    0  503 -0.42185782758E+02 -0.29374436957E+02  0.20906262255E+02  0.55692545416E+02  0.47000000000E+01 0.  1.
         13    1    4    4    0    0  0.22408499116E+02 -0.14694374226E+02  0.15015674529E+02  0.30717030262E+02  0.00000000000E+00 0. -1.
        -14    1    4    4    0    0  0.31371023805E+02  0.63422508556E+02  0.16248070396E+03  0.17721888976E+03  0.00000000000E+00 0.  1.
</event>
<event>
12    1  0.1032880E+000  0.2808842E+03  0.7818608E-02  0.1095209E+00
         21   -1    0    0  503  502  0.00000000000E+00  0.00000000000E+00  0.52973329969E+02  0.52973329969E+02  0.00000000000E+00 0.  1.
         21   -1    0    0  501  503 -0.00000000000E+00 -0.00000000000E+00 -0.16273756483E+04  0.16273756483E+04  0.00000000000E+00 0.  1.
          6    2    1    2  501    0  0.10397121502E+03  0.19613914282E+03 -0.54246207722E+03  0.61086906607E+03  0.17209106241E+03 0.  0.
         24    2    3    3    0    0 -0.31563784311E+01  0.44851491229E+02 -0.21951516847E+03  0.23846999159E+03  0.81605200268E+02 0.  0.
         -6    2    1    2    0  502 -0.10397121502E+03 -0.19613914282E+03 -0.10319402412E+04  0.10694799122E+04  0.17206407086E+03 0.  0.
        -24    2    5    5    0    0 -0.68692615631E+02 -0.47208926814E+02 -0.28603881789E+03  0.30802353658E+03  0.78185264168E+02 0.  0.
          5    1    3    3  501    0  0.10712759345E+03  0.15128765159E+03 -0.32294690875E+03  0.37239907448E+03  0.47000000000E+01 0. -1.
        -13    1    4    4    0    0 -0.35974770922E+02  0.46218275246E+02 -0.11734064691E+03  0.13114549373E+03  0.00000000000E+00 0.  1.
         14    1    4    4    0    0  0.32818392491E+02 -0.13667840173E+01 -0.10217452155E+03  0.10732449785E+03  0.00000000000E+00 0. -1.
         -5    1    5    5    0  502 -0.35278599388E+02 -0.14893021600E+03 -0.74590142327E+03  0.76145637567E+03  0.47000000000E+01 0.  1.
         13    1    6    6    0    0 -0.60836905519E+02 -0.54509630235E+02 -0.28585560284E+03  0.29729758582E+03  0.00000000000E+00 0. -1.
        -14    1    6    6    0    0 -0.78557101122E+01  0.73007034213E+01 -0.18321504905E+00  0.10725950754E+02  0.00000000000E+00 0.  1.
</event>
<event>
12    1  0.1032880E+000  0.2020198E+03  0.7818608E-02  0.1148578E+00
         21   -1    0    0  503  502  0.00000000000E+00  0.00000000000E+00  0.12233520433E+03  0.12233520433E+03  0.00000000000E+00 0. -1.
         21   -1    0    0  501  503 -0.00000000000E+00 -0.00000000000E+00 -0.38509397230E+03  0.38509397230E+03  0.00000000000E+00 0. -1.
          6    2    1    2  501    0  0.16552054168E+01 -0.99587288409E+02 -0.34213252063E+02  0.20239632449E+03  0.17283910967E+03 0.  0.
         24    2    3    3    0    0  0.45892372989E+02 -0.98626410786E+02  0.15003766603E+02  0.13604683160E+03  0.80314062104E+02 0.  0.
         -6    2    1    2    0  502 -0.16552054168E+01  0.99587288409E+02 -0.22854551590E+03  0.30503285214E+03  0.17576012155E+03 0.  0.
        -24    2    5    5    0    0  0.46325270293E+02 -0.18205544229E+02 -0.68325961083E+02  0.10041204866E+03  0.54191051380E+02 0.  0.
          5    1    3    3  501    0 -0.44237167573E+02 -0.96087762222E+00 -0.49217018667E+02  0.66349492892E+02  0.47000000000E+01 0. -1.
        -11    1    4    4    0    0 -0.71773241866E+01 -0.77694064586E+02  0.11758150499E+02  0.78905866433E+02  0.00000000000E+00 0.  1.
         12    1    4    4    0    0  0.53069697176E+02 -0.20932346200E+02  0.32456161038E+01  0.57140965162E+02  0.00000000000E+00 0. -1.
         -5    1    5    5    0  502 -0.47980475710E+02  0.11779283264E+03 -0.16021955482E+03  0.20462080348E+03  0.47000000000E+01 0.  1.
         13    1    6    6    0    0 -0.27311499273E+01 -0.10091429135E+02  0.51804997305E+01  0.11667634695E+02  0.00000000000E+00 0. -1.
        -14    1    6    6    0    0  0.49056420220E+02 -0.81141150936E+01 -0.73506460813E+02  0.88744413964E+02  0.00000000000E+00 0.  1.
</event>
<event>
12    1  0.1032880E+000  0.2082240E+03  0.7818608E-02  0.1145453E+00
         21   -1    0    0  503  502  0.00000000000E+00  0.00000000000E+00  0.15533792855E+03  0.15533792855E+03  0.00000000000E+00 0.  1.
         21   -1    0    0  501  503 -0.00000000000E+00 -0.00000000000E+00 -0.26331944533E+03  0.26331944533E+03  0.00000000000E+00 0.  1.
          6    2    1    2  501    0 -0.10837338910E+03  0.43422428288E+02 -0.54082621071E+02  0.20357063176E+03  0.15775225345E+03 0.  0.
         24    2    3    3    0    0 -0.12116127991E+03 -0.49213521743E+01 -0.30723609024E+02  0.14817762945E+03  0.79425400604E+02 0.  0.
         -6    2    1    2    0  502  0.10837338910E+03 -0.43422428288E+02 -0.53898895713E+02  0.21508674213E+03  0.17241495566E+03 0.  0.
        -24    2    5    5    0    0  0.52040435614E+02 -0.88944951077E+02 -0.40550503847E+02  0.14128991771E+03  0.87744436987E+02 0.  0.
          5    1    3    3  501    0  0.12787890815E+02  0.48343780462E+02 -0.23359012047E+02  0.55393002308E+02  0.47000000000E+01 0. -1.
        -13    1    4    4    0    0 -0.70099009606E+02 -0.34457076768E+02  0.65743843330E+01  0.78386120050E+02  0.00000000000E+00 0.  1.
         14    1    4    4    0    0 -0.51062270305E+02  0.29535724593E+02 -0.37297993357E+02  0.69791509400E+02  0.00000000000E+00 0. -1.
         -5    1    5    5    0  502  0.56332953482E+02  0.45522522789E+02 -0.13348391866E+02  0.73796824420E+02  0.47000000000E+01 0.  1.
         11    1    6    6    0    0  0.12598321769E+02 -0.37076867572E+01  0.23977578598E+02  0.27338414876E+02  0.00000000000E+00 0. -1.
        -12    1    6    6    0    0  0.39442113844E+02 -0.85237264319E+02 -0.64528082445E+02  0.11395150283E+03  0.00000000000E+00 0.  1.
</event>
<event>
12    1  0.1032880E+000  0.1897343E+03  0.7818608E-02  0.1161521E+00
         21   -1    0    0  501  502  0.00000000000E+00  0.00000000000E+00  0.58978165542E+02  0.58978165542E+02  0.00000000000E+00 0.  1.
         21   -1    0    0  502  503 -0.00000000000E+00 -0.00000000000E+00 -0.69466087349E+03  0.69466087349E+03  0.00000000000E+00 0.  1.
         -6    2    1    2    0  503  0.44962940936E+02  0.62952711646E+02 -0.16829908500E+03  0.25362113198E+03  0.17324660635E+03 0.  0.
        -24    2    3    3    0    0 -0.36076468048E+02  0.57088342485E+02 -0.74137355212E+02  0.12916110630E+03  0.81398117602E+02 0.  0.
          6    2    1    2  501    0 -0.44962940936E+02 -0.62952711646E+02 -0.46738362294E+03  0.50001790705E+03  0.15995545134E+03 0.  0.
         24    2    5    5    0    0 -0.28446821381E+02  0.84769733622E+01 -0.35721602232E+03  0.36760200041E+03  0.81528298005E+02 0.  0.
          5    1    5    5  501    0 -0.16516119555E+02 -0.71429685009E+02 -0.11016760062E+03  0.13241590664E+03  0.47000000000E+01 0. -1.
        -11    1    6    6    0    0 -0.32536223752E+01 -0.11204670843E+02 -0.31359536952E+01  0.12081593969E+02  0.00000000000E+00 0.  1.
         12    1    6    6    0    0 -0.25193199006E+02  0.19681644205E+02 -0.35408006863E+03  0.35552040644E+03  0.00000000000E+00 0. -1.
         -5    1    3    3    0  503  0.81039408984E+02  0.58643691614E+01 -0.94161729793E+02  0.12446002568E+03  0.47000000000E+01 0.  1.
         11    1    4    4    0    0 -0.31003951881E+02  0.65959854692E+02 -0.22143844351E+02  0.76172812117E+02  0.00000000000E+00 0. -1.
        -12    1    4    4    0    0 -0.50725161666E+01 -0.88715122068E+01 -0.51993510861E+02  0.52988294186E+02  0.00000000000E+00 0.  1.
</event>
<event>
12    1  0.1032880E+000  0.2366237E+03  0.7818608E-02  0.1122298E+00
         21   -1    0    0  501  502  0.00000000000E+00  0.00000000000E+00  0.32420310288E+03  0.32420310288E+03  0.00000000000E+00 0. -1.
         21   -1    0    0  502  503 -0.00000000000E+00 -0.00000000000E+00 -0.17222056826E+03  0.17222056826E+03  0.00000000000E+00 0.  1.
         -6    2    1    2    0  503  0.32209327408E+02 -0.15891959382E+03  0.89456318760E+02  0.25167830262E+03  0.17043079819E+03 0.  0.
        -24    2    3    3    0    0 -0.36748548000E+02 -0.13108497563E+03  0.41700471302E+02  0.16317595510E+03  0.79710328066E+02 0.  0.
          6    2    1    2  501    0 -0.32209327408E+02  0.15891959382E+03  0.62526215859E+02  0.24474536851E+03  0.17233075658E+03 0.  0.
         24    2    5    5    0    0  0.20448979002E+02  0.26784134795E+02  0.52228165792E+02  0.10205403520E+03  0.80942536283E+02 0.  0.
          5    1    5    5  501    0 -0.52658306409E+02  0.13213545903E+03  0.10298050067E+02  0.14269133331E+03  0.47000000000E+01 0. -1.
        -13    1    6    6    0    0  0.33044366594E+02 -0.92324093588E+01 -0.35296543562E+01  0.34490955424E+02  0.00000000000E+00 0.  1.
         14    1    6    6    0    0 -0.12595387592E+02  0.36016544154E+02  0.55757820148E+02  0.67563079778E+02  0.00000000000E+00 0. -1.
         -5    1    3    3    0  503  0.68957875408E+02 -0.27834618193E+02  0.47755847459E+02  0.88502347524E+02  0.47000000000E+01 0.  1.
         13    1    4    4    0    0  0.12761836385E+01 -0.57722703540E+02  0.54693726597E+02  0.79529509477E+02  0.00000000000E+00 0. -1.
        -14    1    4    4    0    0 -0.38024731639E+02 -0.73362272087E+02 -0.12993255295E+02  0.83646445622E+02  0.00000000000E+00 0.  1.
</event>
<event>
12    1  0.1032880E+000  0.2323883E+03  0.7818608E-02  0.1125116E+00
         21   -1    0    0  501  502  0.00000000000E+00  0.00000000000E+00  0.13009686845E+03  0.13009686845E+03  0.00000000000E+00 0. -1.
         21   -1    0    0  502  503 -0.00000000000E+00 -0.00000000000E+00 -0.44397068609E+03  0.44397068609E+03  0.00000000000E+00 0. -1.
         -6    2    1    2    0  503  0.14239362467E+03 -0.64459142876E+02 -0.23173385639E+03  0.32758976935E+03  0.17083193886E+03 0.  0.
        -24    2    3    3    0    0  0.17163104824E+01 -0.26343950964E+02 -0.10665863358E+03  0.13547320072E+03  0.79246290265E+02 0.  0.
          6    2    1    2  501    0 -0.14239362467E+03  0.64459142876E+02 -0.82139961242E+02  0.24647778519E+03  0.17196918304E+03 0.  0.
         24    2    5    5    0    0 -0.23296773867E+02 -0.16309080768E+02 -0.11848690655E+02  0.86257566301E+02  0.80568297027E+02 0.  0.
          5    1    5    5  501    0 -0.11909685080E+03  0.80768223644E+02 -0.70291270587E+02  0.16022021889E+03  0.47000000000E+01 0. -1.
        -11    1    6    6    0    0 -0.21032872523E+02 -0.15136699906E+02 -0.45579346939E+02  0.52430699767E+02  0.00000000000E+00 0.  1.
         12    1    6    6    0    0 -0.22639013438E+01 -0.11723808611E+01  0.33730656284E+02  0.33826866534E+02  0.00000000000E+00 0. -1.
         -5    1    3    3    0  503  0.14067731419E+03 -0.38115191912E+02 -0.12507522281E+03  0.19211656863E+03  0.47000000000E+01 0.  1.
         11    1    4    4    0    0 -0.33165886526E+02  0.39685987668E+01 -0.65780024082E+02  0.73774910190E+02  0.00000000000E+00 0. -1.
        -12    1    4    4    0    0  0.34882197009E+02 -0.30312549731E+02 -0.40878609502E+02  0.61698290529E+02  0.00000000000E+00 0.  1.
</event>
<event>
12    1  0.1032880E+000  0.5632160E+03  0.7818608E-02  0.9984827E-01
         21   -1    0    0  503  502  0.00000000000E+00  0.00000000000E+00  0.22830822861E+03  0.22830822861E+03  0.00000000000E+00 0. -1.
         21   -1    0    0  501  503 -0.00000000000E+00 -0.00000000000E+00 -0.15514061656E+04  0.15514061656E+04  0.00000000000E+00 0. -1.
          6    2    1    2  501    0 -0.13538359820E+03  0.51902461071E+03 -0.37388265648E+03  0.67598349114E+03  0.17161053082E+03 0.  0.
         24    2    3    3    0    0 -0.26802767206E+02  0.33985986963E+03 -0.19493112523E+03  0.40041944805E+03  0.78195086030E+02 0.  0.
         -6    2    1    2    0  502  0.13538359820E+03 -0.51902461071E+03 -0.94921528049E+03  0.11037309031E+04  0.17174688491E+03 0.  0.
        -24    2    5    5    0    0  0.88969130552E+02 -0.48591228855E+03 -0.80381351833E+03  0.94747953147E+03  0.87034659466E+02 0.  0.
          5    1    3    3  501    0 -0.10858083099E+03  0.17916474108E+03 -0.17895153125E+03  0.27556404309E+03  0.47000000000E+01 0. -1.
        -13    1    4    4    0    0  0.26315362073E+02  0.88837309328E+02 -0.42087382422E+02  0.10176400920E+03  0.00000000000E+00 0.  1.
         14    1    4    4    0    0 -0.53118129279E+02  0.25102256030E+03 -0.15284374281E+03  0.29865543885E+03  0.00000000000E+00 0. -1.
         -5    1    5    5    0  502  0.46414467644E+02 -0.33112322158E+02 -0.14540176216E+03  0.15625137159E+03  0.47000000000E+01 0.  1.
         11    1    6    6    0    0  0.75029906536E+02 -0.34105856658E+03 -0.49151860692E+03  0.60294359078E+03  0.00000000000E+00 0. -1.
        -12    1    6    6    0    0  0.13939224017E+02 -0.14485372197E+03 -0.31229491141E+03  0.34453594069E+03  0.00000000000E+00 0.  1.
</event>
<event>
12    1  0.1032880E+000  0.1853812E+03  0.7818608E-02  0.1162729E+00
         21   -1    0    0  501  502  0.00000000000E+00  0.00000000000E+00  0.62529974754E+03  0.62529974754E+03  0.00000000000E+00 0. -1.
         21   -1    0    0  502  503 -0.00000000000E+00 -0.00000000000E+00 -0.56344045214E+02  0.56344045214E+02  0.00000000000E+00 0. -1.
         -6    2    1    2    0  503 -0.31746539766E+02 -0.57320401591E+02  0.33886480092E+03  0.38625837153E+03  0.17341483513E+03 0.  0.
        -24    2    3    3    0    0  0.13689399774E+02 -0.83821472128E+02  0.15031245853E+03  0.19045028394E+03  0.80399232637E+02 0.  0.
          6    2    1    2  501    0  0.31746539766E+02  0.57320401591E+02  0.23009090141E+03  0.29538542123E+03  0.17325487854E+03 0.  0.
         24    2    5    5    0    0 -0.16323156886E+02  0.94666587336E+02  0.15491848234E+03  0.19854319948E+03  0.78685816250E+02 0.  0.
          5    1    5    5  501    0  0.48069696652E+02 -0.37346185745E+02  0.75172419064E+02  0.96842221752E+02  0.47000000000E+01 0. -1.
        -11    1    6    6    0    0 -0.45473276311E+02  0.55291946536E+02  0.11446876933E+03  0.13501154530E+03  0.00000000000E+00 0.  1.
         12    1    6    6    0    0  0.29150119425E+02  0.39374640800E+02  0.40449713007E+02  0.63531654181E+02  0.00000000000E+00 0. -1.
         -5    1    3    3    0  503 -0.45435939541E+02  0.26501070537E+02  0.18855234240E+03  0.19580808759E+03  0.47000000000E+01 0.  1.
         11    1    4    4    0    0  0.45814169194E+02 -0.39365303268E+02  0.62520100356E+02  0.86932894516E+02  0.00000000000E+00 0. -1.
        -12    1    4    4    0    0 -0.32124769420E+02 -0.44456168860E+02  0.87792358173E+02  0.10351738943E+03  0.00000000000E+00 0.  1.
</event>
<event>
12    1  0.1032880E+000  0.2280209E+03  0.7818608E-02  0.1128568E+00
         21   -1    0    0  503  502  0.00000000000E+00  0.00000000000E+00  0.16030416991E+03  0.16030416991E+03  0.00000000000E+00 0.  1.
         21   -1    0    0  501  503 -0.00000000000E+00 -0.00000000000E+00 -0.32154194124E+03  0.32154194124E+03  0.00000000000E+00 0.  1.
          6    2    1    2  501    0 -0.11089674586E+03 -0.10121539534E+03 -0.96877226912E+02  0.24774730144E+03  0.17161259797E+03 0.  0.
         24    2    3    3    0    0 -0.18307769110E+02 -0.10481951384E+03 -0.71145458511E+02  0.15146686630E+03  0.80982902080E+02 0.  0.
         -6    2    1    2    0  502  0.11089674586E+03  0.10121539534E+03 -0.64360544416E+02  0.23409880971E+03  0.16768222486E+03 0.  0.
        -24    2    5    5    0    0  0.14404612003E+03  0.71041782635E+02 -0.50169262416E+02  0.18684618654E+03  0.81230061909E+02 0.  0.
          5    1    3    3  501    0 -0.92588976752E+02  0.36041184956E+01 -0.25731768401E+02  0.96280435142E+02  0.47000000000E+01 0. -1.
        -11    1    4    4    0    0 -0.26002492581E+02 -0.11670087893E+03 -0.63661761297E+02  0.13545495419E+03  0.00000000000E+00 0.  1.
         12    1    4    4    0    0  0.76947234710E+01  0.11881365086E+02 -0.74836972136E+01  0.16011912115E+02  0.00000000000E+00 0. -1.
         -5    1    5    5    0  502 -0.33149374167E+02  0.30173612709E+02 -0.14191282000E+02  0.47252623170E+02  0.47000000000E+01 0.  1.
         11    1    6    6    0    0  0.67050964094E+02  0.53262675657E+02 -0.63633262914E+02  0.10668615915E+03  0.00000000000E+00 0. -1.
        -12    1    6    6    0    0  0.76995155936E+02  0.17779106978E+02  0.13464000499E+02  0.80160027395E+02  0.00000000000E+00 0.  1.
</event>
<event>
12    1  0.1032880E+000  0.3403661E+03  0.7818608E-02  0.1066700E+00
         21   -1    0    0  503  502  0.00000000000E+00  0.00000000000E+00  0.62281518436E+03  0.62281518436E+03  0.00000000000E+00 0.  1.
         21   -1    0    0  501  503 -0.00000000000E+00 -0.00000000000E+00 -0.18621276440E+03  0.18621276440E+03  0.00000000000E+00 0.  1.
          6    2    1    2  501    0  0.28441514337E+03  0.71991421415E+02  0.19690638434E+03  0.39273081355E+03  0.17143695395E+03 0.  0.
         24    2    3    3    0    0  0.17643604160E+03 -0.23057815787E+02  0.12979332845E+03  0.23392245047E+03  0.78816654840E+02 0.  0.
         -6    2    1    2    0  502 -0.28441514337E+03 -0.71991421415E+02  0.23969603563E+03  0.41629713521E+03  0.17255253332E+03 0.  0.
        -24    2    5    5    0    0 -0.22435993567E+03 -0.92578039898E+01  0.11551914320E+03  0.26469197257E+03  0.79335239526E+02 0.  0.
          5    1    3    3  501    0  0.10797910177E+03  0.95049237202E+02  0.67113055887E+02  0.15880836308E+03  0.47000000000E+01 0. -1.
        -11    1    4    4    0    0  0.80490402549E+00  0.21282852192E+01 -0.86050401512E+01  0.89007968446E+01  0.00000000000E+00 0.  1.
         12    1    4    4    0    0  0.17563113757E+03 -0.25186101006E+02  0.13839836860E+03  0.22502165363E+03  0.00000000000E+00 0. -1.
         -5    1    5    5    0  502 -0.60055207707E+02 -0.62733617425E+02  0.12417689242E+03  0.15160516264E+03  0.47000000000E+01 0.  1.
         11    1    6    6    0    0 -0.16001550800E+03  0.18507214816E+01  0.11881540744E+03  0.19931254104E+03  0.00000000000E+00 0. -1.
        -12    1    6    6    0    0 -0.64344427665E+02 -0.11108525471E+02 -0.32962642338E+01  0.65379431533E+02  0.00000000000E+00 0.  1.
</event>
<event>
12    1  0.1032880E+000  0.2965692E+03  0.7818608E-02  0.1087728E+00
         21   -1    0    0  503  502  0.00000000000E+00  0.00000000000E+00  0.14460413509E+03  0.14460413509E+03  0.00000000000E+00 0.  1.
         21   -1    0    0  501  503 -0.00000000000E+00 -0.00000000000E+00 -0.66900481752E+03  0.66900481752E+03  0.00000000000E+00 0.  1.
          6    2    1    2  501    0  0.72306713147E+02 -0.22326246911E+03 -0.39408771535E+03  0.48967259332E+03  0.17146349577E+03 0.  0.
         24    2    3    3    0    0  0.42065698980E+02 -0.45790316737E+02 -0.10249691861E+03  0.14695088910E+03  0.84986289148E+02 0.  0.
         -6    2    1    2    0  502 -0.72306713147E+02  0.22326246911E+03 -0.13031296707E+03  0.32393635928E+03  0.18132541079E+03 0.  0.
        -24    2    5    5    0    0 -0.43855341654E+02  0.23556856695E+03 -0.81101204637E+02  0.26558562539E+03  0.80885587685E+02 0.  0.
          5    1    3    3  501    0  0.30241014167E+02 -0.17747215237E+03 -0.29159079674E+03  0.34272170423E+03  0.47000000000E+01 0. -1.
        -13    1    4    4    0    0  0.30600546134E+02 -0.45920128705E+02 -0.11646681964E+03  0.12887812739E+03  0.00000000000E+00 0.  1.
         14    1    4    4    0    0  0.11465152846E+02  0.12981196821E+00  0.13969901024E+02  0.18072761702E+02  0.00000000000E+00 0. -1.
         -5    1    5    5    0  502 -0.28451371493E+02 -0.12306097838E+02 -0.49211762437E+02  0.58350733894E+02  0.47000000000E+01 0.  1.
         13    1    6    6    0    0 -0.38339876931E+01  0.11991258230E+03 -0.22426761741E+01  0.11999481844E+03  0.00000000000E+00 0. -1.
        -14    1    6    6    0    0 -0.40021353961E+02  0.11565598464E+03 -0.78858528463E+02  0.14559080695E+03  0.00000000000E+00 0.  1.
</event>
<event>
12    1  0.1032880E+000  0.3306758E+03  0.7818608E-02  0.1070889E+00
         21   -1    0    0  501  502  0.00000000000E+00  0.00000000000E+00  0.51859511255E+03  0.51859511255E+03  0.00000000000E+00 0. -1.
         21   -1    0    0  502  503 -0.00000000000E+00 -0.00000000000E+00 -0.21124411542E+03  0.21124411542E+03  0.00000000000E+00 0. -1.
         -6    2    1    2    0  503 -0.16904244084E+03 -0.22656728822E+03  0.13301711251E+03  0.35642673349E+03  0.17157616744E+03 0.  0.
        -24    2    3    3    0    0 -0.71387872657E+02 -0.38612307776E+02  0.14649100039E+02  0.11374058692E+03  0.78327430109E+02 0.  0.
          6    2    1    2  501    0  0.16904244084E+03  0.22656728822E+03  0.17433388461E+03  0.37341249448E+03  0.17069418506E+03 0.  0.
         24    2    5    5    0    0  0.17197827775E+03  0.19008279768E+03  0.93508737669E+02  0.28456131797E+03  0.80766711409E+02 0.  0.
          5    1    5    5  501    0 -0.29358369147E+01  0.36484490544E+02  0.80825146946E+02  0.88851176512E+02  0.47000000000E+01 0. -1.
        -13    1    6    6    0    0  0.10279821693E+03  0.12856973295E+03  0.18957533217E+02  0.16570165268E+03  0.00000000000E+00 0.  1.
         14    1    6    6    0    0  0.69180060819E+02  0.61513064729E+02  0.74551204452E+02  0.11885966529E+03  0.00000000000E+00 0. -1.
         -5    1    3    3    0  503 -0.97654568178E+02 -0.18795498044E+03  0.11836801247E+03  0.24268614657E+03  0.47000000000E+01 0.  1.
         11    1    4    4    0    0  0.14570097228E+02  0.58048937643E+01  0.52053186144E+01  0.16525128342E+02  0.00000000000E+00 0. -1.
        -12    1    4    4    0    0 -0.85957969886E+02 -0.44417201541E+02  0.94437814248E+01  0.97215458581E+02  0.00000000000E+00 0.  1.
</event>
<event>
12    1  0.1032880E+000  0.1766850E+03  0.7818608E-02  0.1171577E+00
         21   -1    0    0  503  502  0.00000000000E+00  0.00000000000E+00  0.68617249940E+02  0.68617249940E+02  0.00000000000E+00 0.  1.
         21   -1    0    0  501  503 -0.00000000000E+00 -0.00000000000E+00 -0.44953664869E+03  0.44953664869E+03  0.00000000000E+00 0.  1.
          6    2    1    2  501    0  0.36708209159E+01  0.32724741542E+02 -0.19100773118E+03  0.26019519262E+03  0.17358917379E+03 0.  0.
         24    2    3    3    0    0 -0.22573552845E+02  0.13074533977E+02 -0.12294227802E+02  0.78438475821E+02  0.72944758037E+02 0.  0.
         -6    2    1    2    0  502 -0.36708209159E+01 -0.32724741542E+02 -0.18991166757E+03  0.25795870601E+03  0.17144056956E+03 0.  0.
        -24    2    5    5    0    0  0.16608525985E+02  0.26324394920E+02 -0.44305995376E+02  0.99462162822E+02  0.83431910583E+02 0.  0.
          5    1    3    3  501    0  0.26244373761E+02  0.19650207565E+02 -0.17871350338E+03  0.18175671680E+03  0.47000000000E+01 0. -1.
        -13    1    4    4    0    0 -0.41260609986E+02 -0.14575682697E+02 -0.33475063159E+01  0.43887290428E+02  0.00000000000E+00 0.  1.
         14    1    4    4    0    0  0.18687057141E+02  0.27650216675E+02 -0.89467214857E+01  0.34551185394E+02  0.00000000000E+00 0. -1.
         -5    1    5    5    0  502 -0.20279346901E+02 -0.59049136463E+02 -0.14560567219E+03  0.15849654319E+03  0.47000000000E+01 0.  1.
         11    1    6    6    0    0 -0.14111264777E+02  0.11147166903E+02  0.19816084291E+02  0.26759378173E+02  0.00000000000E+00 0. -1.
        -12    1    6    6    0    0  0.30719790762E+02  0.15177228017E+02 -0.64122079667E+02  0.72702784648E+02  0.00000000000E+00 0.  1.
</event>
<event>
12    1  0.1032880E+000  0.2396042E+03  0.7818608E-02  0.1120688E+00
         21   -1    0    0  503  502  0.00000000000E+00  0.00000000000E+00  0.37054041366E+03  0.37054041366E+03  0.00000000000E+00 0. -1.
         21   -1    0    0  501  503 -0.00000000000E+00 -0.00000000000E+00 -0.20787179279E+03  0.20787179279E+03  0.00000000000E+00 0. -1.
          6    2    1    2  501    0 -0.15882495370E+03  0.36577560444E+02  0.23103478611E+03  0.33284716784E+03  0.17563280131E+03 0.  0.
         24    2    3    3    0    0 -0.14573275615E+03 -0.28489323365E+01  0.23822508311E+03  0.29042495266E+03  0.79682559390E+02 0.  0.
         -6    2    1    2    0  502  0.15882495370E+03 -0.36577560444E+02 -0.68366165245E+02  0.24556503862E+03  0.17048452069E+03 0.  0.
        -24    2    5    5    0    0  0.12065765847E+03 -0.46315211981E+01 -0.10759341641E+03  0.18201852744E+03  0.83514546877E+02 0.  0.
          5    1    3    3  501    0 -0.13092197552E+02  0.39426492780E+02 -0.71902970012E+01  0.42422215178E+02  0.47000000000E+01 0. -1.
        -11    1    4    4    0    0 -0.46366355917E+02  0.31609857476E+02  0.11817588752E+03  0.13082263734E+03  0.00000000000E+00 0.  1.
         12    1    4    4    0    0 -0.99366400232E+02 -0.34458789813E+02  0.12004919560E+03  0.15960231532E+03  0.00000000000E+00 0. -1.
         -5    1    5    5    0  502  0.38167295229E+02 -0.31946039246E+02  0.39227251166E+02  0.63546511176E+02  0.47000000000E+01 0.  1.
         11    1    6    6    0    0 -0.38520114570E+01 -0.20755987736E+02 -0.18499913911E+02  0.28069482251E+02  0.00000000000E+00 0. -1.
        -12    1    6    6    0    0  0.12450966993E+03  0.16124466538E+02 -0.89093502500E+02  0.15394904519E+03  0.00000000000E+00 0.  1.
</event>
<event>
12    1  0.1032880E+000  0.1905985E+03  0.7818608E-02  0.1158416E+00
         21   -1    0    0  503  502  0.00000000000E+00  0.00000000000E+00  0.10891949734E+02  0.10891949734E+02  0.00000000000E+00 0. -1.
         21   -1    0    0  501  503 -0.00000000000E+00 -0.00000000000E+00 -0.33925504070E+04  0.33925504070E+04  0.00000000000E+00 0. -1.
          6    2    1    2  501    0  0.63130009516E+02 -0.49281298429E+02 -0.19856187743E+04  0.19947455204E+04  0.17295586119E+03 0.  0.
         24    2    3    3    0    0  0.23033908766E+02  0.24442458778E+02 -0.14462654998E+04  0.14488820445E+04  0.80295006774E+02 0.  0.
         -6    2    1    2    0  502 -0.63130009516E+02  0.49281298429E+02 -0.13960396830E+04  0.14086968364E+04  0.17054599304E+03 0.  0.
        -24    2    5    5    0    0 -0.48037183186E+02  0.29168276867E+02 -0.13650435838E+04  0.13685075939E+04  0.79439848795E+02 0.  0.
          5    1    3    3  501    0  0.40096100750E+02 -0.73723757207E+02 -0.53935327444E+03  0.54586347590E+03  0.47000000000E+01 0. -1.
        -13    1    4    4    0    0  0.22039310544E+02 -0.21944933747E+02 -0.93454242315E+03  0.93505981199E+03  0.00000000000E+00 0.  1.
         14    1    4    4    0    0  0.99459822224E+00  0.46387392525E+02 -0.51172307669E+03  0.51382223252E+03  0.00000000000E+00 0. -1.
         -5    1    5    5    0  502 -0.15092826329E+02  0.20113021561E+02 -0.30996099265E+02  0.40189242498E+02  0.47000000000E+01 0.  1.
         11    1    6    6    0    0 -0.22366816937E+02 -0.26773570482E+02 -0.40929749992E+03  0.41078162327E+03  0.00000000000E+00 0. -1.
        -12    1    6    6    0    0 -0.25670366250E+02  0.55941847349E+02 -0.95574608384E+03  0.95772597060E+03  0.00000000000E+00 0.  1.
</event>
<event>
12    1  0.1032880E+000  0.2311428E+03  0.7818608E-02  0.1126012E+00
         21   -1    0    0  501  502  0.00000000000E+00  0.00000000000E+00  0.48866130126E+02  0.48866130126E+02  0.00000000000E+00 0.  1.
         21   -1    0    0  502  503 -0.00000000000E+00 -0.00000000000E+00 -0.11638454540E+04  0.11638454540E+04  0.00000000000E+00 0.  1.
         -6    2    1    2    0  503  0.13655304042E+02 -0.15051704595E+03 -0.40224333020E+03  0.46343220775E+03  0.17357380574E+03 0.  0.
        -24    2    3    3    0    0 -0.26621959151E+02 -0.14147552943E+03 -0.21002124353E+03  0.26677151632E+03  0.79586839670E+02 0.  0.
          6    2    1    2  501    0 -0.13655304042E+02  0.15051704595E+03 -0.71273599372E+03  0.74927937642E+03  0.17488607359E+03 0.  0.
         24    2    5    5    0    0  0.13235112694E+02  0.10278133707E+03 -0.66127038778E+03  0.67396277129E+03  0.78791623107E+02 0.  0.
          5    1    5    5  501    0 -0.26890416736E+02  0.47735708873E+02 -0.51465605944E+02  0.75316605134E+02  0.47000000000E+01 0. -1.
        -11    1    6    6    0    0  0.43143783332E+02  0.37508929996E+02 -0.33945308795E+03  0.34423350329E+03  0.00000000000E+00 0.  1.
         12    1    6    6    0    0 -0.29908670638E+02  0.65272407078E+02 -0.32181729983E+03  0.32972926799E+03  0.00000000000E+00 0. -1.
         -5    1    3    3    0  503  0.40277263193E+02 -0.90415165209E+01 -0.19222208667E+03  0.19666069143E+03  0.47000000000E+01 0.  1.
         13    1    4    4    0    0  0.25604644540E+02 -0.61674932343E+02 -0.10910933624E+03  0.12792279842E+03  0.00000000000E+00 0. -1.
        -14    1    4    4    0    0 -0.52226603691E+02 -0.79800597083E+02 -0.10091190729E+03  0.13884871789E+03  0.00000000000E+00 0.  1.
</event>
<event>
12    1  0.1032880E+000  0.2954865E+03  0.7818608E-02  0.1087530E+00
         21   -1    0    0  503  502  0.00000000000E+00  0.00000000000E+00  0.26859310742E+03  0.26859310742E+03  0.00000000000E+00 0. -1.
         21   -1    0    0  501  503 -0.00000000000E+00 -0.00000000000E+00 -0.50113118168E+03  0.50113118168E+03  0.00000000000E+00 0. -1.
          6    2    1    2  501    0  0.13355356948E+02  0.24017825143E+03 -0.34443905601E+03  0.45375898092E+03  0.17144967610E+03 0.  0.
         24    2    3    3    0    0 -0.38894154674E+02  0.69128746543E+02 -0.16945805363E+03  0.20350234108E+03  0.80035192376E+02 0.  0.
         -6    2    1    2    0  502 -0.13355356948E+02 -0.24017825143E+03  0.11190098175E+03  0.31596530818E+03  0.17160503557E+03 0.  0.
        -24    2    5    5    0    0 -0.63413700260E+02 -0.13232794389E+03  0.10691201296E+03  0.19686658282E+03  0.76120239105E+02 0.  0.
          5    1    3    3  501    0  0.52249511622E+02  0.17104950489E+03 -0.17498100238E+03  0.25025663984E+03  0.47000000000E+01 0. -1.
        -13    1    4    4    0    0  0.23674409493E+01  0.70337150408E+02 -0.93177864095E+02  0.11676914773E+03  0.00000000000E+00 0.  1.
         14    1    4    4    0    0 -0.41261595623E+02 -0.12084038654E+01 -0.76280189535E+02  0.86733193350E+02  0.00000000000E+00 0. -1.
         -5    1    5    5    0  502  0.50058343312E+02 -0.10785030754E+03  0.49889687898E+01  0.11909872535E+03  0.47000000000E+01 0.  1.
         11    1    6    6    0    0 -0.13142194203E+02 -0.23460841097E+02  0.64146987149E+02  0.69555476375E+02  0.00000000000E+00 0. -1.
        -12    1    6    6    0    0 -0.50271506056E+02 -0.10886710280E+03  0.42765025814E+02  0.12731110645E+03  0.00000000000E+00 0.  1.
</event>
<event>
12    1  0.1032880E+000  0.2183160E+03  0.7818608E-02  0.1135203E+00
         21   -1    0    0  503  502  0.00000000000E+00  0.00000000000E+00  0.70159677165E+02  0.70159677165E+02  0.00000000000E+00 0.  1.
         21   -1    0    0  501  503 -0.00000000000E+00 -0.00000000000E+00 -0.95602201418E+03  0.95602201418E+03  0.00000000000E+00 0.  1.
          6    2    1    2  501    0 -0.10368929492E+03  0.84465206375E+02 -0.16664668173E+03  0.27465065584E+03  0.17255731005E+03 0.  0.
         24    2    3    3    0    0 -0.10082752114E+03  0.10468033336E+03 -0.78048774595E+02  0.18360934512E+03  0.80601607862E+02 0.  0.
         -6    2    1    2    0  502  0.10368929492E+03 -0.84465206375E+02 -0.71921565528E+03  0.75153103550E+03  0.17216822457E+03 0.  0.
        -24    2    5    5    0    0  0.43566942999E+02  0.13088390344E+02 -0.20482413424E+03  0.22450909255E+03  0.79887559647E+02 0.  0.
          5    1    3    3  501    0 -0.28617737853E+01 -0.20215126984E+02 -0.88597907138E+02  0.91041310719E+02  0.47000000000E+01 0. -1.
        -11    1    4    4    0    0 -0.42707235073E+02 -0.38815390590E+01 -0.16552825423E+02  0.45967056710E+02  0.00000000000E+00 0.  1.
         12    1    4    4    0    0 -0.58120286064E+02  0.10856187242E+03 -0.61495949173E+02  0.13764228841E+03  0.00000000000E+00 0. -1.
         -5    1    5    5    0  502  0.60122351924E+02 -0.97553596719E+02 -0.51439152104E+03  0.52702194295E+03  0.47000000000E+01 0.  1.
         13    1    6    6    0    0 -0.10919162585E+02 -0.10360183679E+02 -0.46843628912E+01  0.15764034163E+02  0.00000000000E+00 0. -1.
        -14    1    6    6    0    0  0.54486105583E+02  0.23448574023E+02 -0.20013977135E+03  0.20874505838E+03  0.00000000000E+00 0.  1.
</event>
<event>
12    1  0.1032880E+000  0.1898892E+03  0.7818608E-02  0.1159003E+00
         21   -1    0    0  501  502  0.00000000000E+00  0.00000000000E+00  0.19282382600E+03  0.19282382600E+03  0.00000000000E+00 0.  1.
         21   -1    0    0  502  503 -0.00000000000E+00 -0.00000000000E+00 -0.18748752681E+03  0.18748752681E+03  0.00000000000E+00 0.  1.
         -6    2    1    2    0  503  0.45661122540E+02 -0.62219615256E+02  0.24163013193E+02  0.18949118096E+03  0.17136755184E+03 0.  0.
        -24    2    3    3    0    0  0.94258534849E+02 -0.23156757341E+02  0.18932787031E+02  0.12674518016E+03  0.79277887621E+02 0.  0.
          6    2    1    2  501    0 -0.45661122540E+02  0.62219615256E+02 -0.18826713997E+02  0.19082017185E+03  0.17349834059E+03 0.  0.
         24    2    5    5    0    0 -0.61898200189E+02  0.96672205953E+02 -0.42391708428E+02  0.14578659927E+03  0.79245018726E+02 0.  0.
          5    1    5    5  501    0  0.16237077650E+02 -0.34452590697E+02  0.23564994431E+02  0.45033572575E+02  0.47000000000E+01 0. -1.
        -13    1    6    6    0    0 -0.17923948598E+02  0.57781639278E+02 -0.59281148673E+02  0.84700887593E+02  0.00000000000E+00 0.  1.
         14    1    6    6    0    0 -0.43974251592E+02  0.38890566675E+02  0.16889440245E+02  0.61085711677E+02  0.00000000000E+00 0. -1.
         -5    1    3    3    0  503 -0.48597412310E+02 -0.39062857915E+02  0.52302261625E+01  0.62746000808E+02  0.47000000000E+01 0.  1.
         11    1    4    4    0    0  0.68391511420E+02  0.15192760977E+02 -0.12026046075E+02  0.71083363768E+02  0.00000000000E+00 0. -1.
        -12    1    4    4    0    0  0.25867023429E+02 -0.38349518319E+02  0.30958833106E+02  0.55661816388E+02  0.00000000000E+00 0.  1.
</event>
<event>
12    1  0.1032880E+000  0.2149621E+03  0.7818608E-02  0.1137719E+00
         21   -1    0    0  503  502  0.00000000000E+00  0.00000000000E+00  0.32918348916E+03  0.32918348916E+03  0.00000000000E+00 0.  1.
         21   -1    0    0  501  503 -0.00000000000E+00 -0.00000000000E+00 -0.37913884259E+03  0.37913884259E+03  0.00000000000E+00 0.  1.
          6    2    1    2  501    0  0.47400932719E+02  0.11945011885E+03 -0.30607399262E+03  0.37394908987E+03  0.17216693509E+03 0.  0.
         24    2    3    3    0    0  0.17266030304E+02  0.34017640517E+02 -0.70741727155E+02  0.12173849162E+03  0.91436058059E+02 0.  0.
         -6    2    1    2    0  502 -0.47400932719E+02 -0.11945011885E+03  0.25611863919E+03  0.33437324188E+03  0.17231810186E+03 0.  0.
        -24    2    5    5    0    0 -0.61894526184E+02 -0.11609541438E+03  0.11370926972E+03  0.19111181369E+03  0.79277043963E+02 0.  0.
          5    1    3    3  501    0  0.30134902414E+02  0.85432478337E+02 -0.23533226546E+03  0.25221059824E+03  0.47000000000E+01 0. -1.
        -13    1    4    4    0    0  0.11047800158E+02 -0.30318099273E+02 -0.12090622985E+02  0.34459021983E+02  0.00000000000E+00 0.  1.
         14    1    4    4    0    0  0.62182301461E+01  0.64335739790E+02 -0.58651104170E+02  0.87279469641E+02  0.00000000000E+00 0. -1.
         -5    1    5    5    0  502  0.14493593465E+02 -0.33547044714E+01  0.14240936947E+03  0.14326142819E+03  0.47000000000E+01 0.  1.
         13    1    6    6    0    0 -0.66068057547E+02 -0.41485569760E+02  0.47948167121E+02  0.91570013960E+02  0.00000000000E+00 0. -1.
        -14    1    6    6    0    0  0.41735313626E+01 -0.74609844622E+02  0.65761102599E+02  0.99541799731E+02  0.00000000000E+00 0.  1.
</event>
<event>
12    1  0.1032880E+000  0.3129795E+03  0.7818608E-02  0.1078972E+00
         21   -1    0    0  501  502  0.00000000000E+00  0.00000000000E+00  0.52747045013E+03  0.52747045013E+03  0.00000000000E+00 0. -1.
         21   -1    0    0  502  503 -0.00000000000E+00 -0.00000000000E+00 -0.18772487161E+03  0.18772487161E+03  0.00000000000E+00 0. -1.
         -6    2    1    2    0  503  0.21192297380E+03 -0.15149498633E+03  0.13066762377E+03  0.33880484962E+03  0.17277910904E+03 0.  0.
        -24    2    3    3    0    0  0.31987281520E+02 -0.77678998256E+02  0.90003046975E+02  0.14005538105E+03  0.66766371389E+02 0.  0.
          6    2    1    2  501    0 -0.21192297380E+03  0.15149498633E+03  0.20907795476E+03  0.37639047212E+03  0.17347656507E+03 0.  0.
         24    2    5    5    0    0 -0.27208639999E+02  0.56588159301E+02  0.89011787919E+02  0.13646409727E+03  0.82199888030E+02 0.  0.
          5    1    5    5  501    0 -0.18471433380E+03  0.94906827028E+02  0.12006616684E+03  0.23992637485E+03  0.47000000000E+01 0. -1.
        -11    1    6    6    0    0 -0.27766699834E+02 -0.32199982040E+00 -0.33557483188E+01  0.27970597962E+02  0.00000000000E+00 0.  1.
         12    1    6    6    0    0  0.55805983496E+00  0.56910159121E+02  0.92367536238E+02  0.10849349931E+03  0.00000000000E+00 0. -1.
         -5    1    3    3    0  503  0.17993569228E+03 -0.73815988073E+02  0.40664576792E+02  0.19874946857E+03  0.47000000000E+01 0.  1.
         11    1    4    4    0    0  0.90556307973E+01 -0.53732355907E+02  0.12712332529E+02  0.55953319104E+02  0.00000000000E+00 0. -1.
        -12    1    4    4    0    0  0.22931650723E+02 -0.23946642349E+02  0.77290714446E+02  0.84102061950E+02  0.00000000000E+00 0.  1.
</event>
<event>
12    1  0.1032880E+000  0.4253810E+03  0.7818608E-02  0.1035385E+00
         21   -1    0    0  501  502  0.00000000000E+00  0.00000000000E+00  0.15706252239E+04  0.15706252239E+04  0.00000000000E+00 0.  1.
         21   -1    0    0  502  503 -0.00000000000E+00 -0.00000000000E+00 -0.12543356030E+03  0.12543356030E+03  0.00000000000E+00 0. -1.
         -6    2    1    2    0  503  0.13069255668E+03 -0.36681858484E+03  0.96750572908E+03  0.10568899295E+04  0.17120913750E+03 0.  0.
        -24    2    3    3    0    0  0.10154983565E+02 -0.13346886195E+03  0.46816466299E+03  0.49266923689E+03  0.75018427782E+02 0.  0.
          6    2    1    2  501    0 -0.13069255668E+03  0.36681858484E+03  0.47768593456E+03  0.63916885472E+03  0.16945959465E+03 0.  0.
         24    2    5    5    0    0 -0.49783616659E+02  0.30148373179E+03  0.31534621488E+03  0.44631872073E+03  0.79914430531E+02 0.  0.
          5    1    5    5  501    0 -0.80908940021E+02  0.65334853043E+02  0.16233971968E+03  0.19285013400E+03  0.47000000000E+01 0. -1.
        -11    1    6    6    0    0 -0.57737851989E+02  0.14452058202E+03  0.18785940840E+03  0.24394879689E+03  0.00000000000E+00 0.  1.
         12    1    6    6    0    0  0.79542353299E+01  0.15696314978E+03  0.12748680648E+03  0.20236992384E+03  0.00000000000E+00 0. -1.
         -5    1    3    3    0  503  0.12053757311E+03 -0.23334972289E+03  0.49934106609E+03  0.56422069262E+03  0.47000000000E+01 0.  1.
         11    1    4    4    0    0 -0.18178709680E+02 -0.45303196365E+02  0.80902441796E+02  0.94488359998E+02  0.00000000000E+00 0. -1.
        -12    1    4    4    0    0  0.28333693246E+02 -0.88165665586E+02  0.38726222119E+03  0.39818087690E+03  0.00000000000E+00 0.  1.
</event>
<event>
12    1  0.1032880E+000  0.2247090E+03  0.7818608E-02  0.1130628E+00
         21   -1    0    0  501  502  0.00000000000E+00  0.00000000000E+00  0.10870962687E+03  0.10870962687E+03  0.00000000000E+00 0. -1.
         21   -1    0    0  502  503 -0.00000000000E+00 -0.00000000000E+00 -0.49801908993E+03  0.49801908993E+03  0.00000000000E+00 0. -1.
         -6    2    1    2    0  503  0.88569962340E+02  0.11277704002E+03 -0.11366997510E+03  0.25182334565E+03  0.17300530394E+03 0.  0.
        -24    2    3    3    0    0  0.19284040674E+02  0.12963022753E+03 -0.61348504587E+02  0.16325588465E+03  0.75584222853E+02 0.  0.
          6    2    1    2  501    0 -0.88569962340E+02 -0.11277704002E+03 -0.27563948796E+03  0.35490537114E+03  0.17151500273E+03 0.  0.
         24    2    5    5    0    0 -0.55110586374E+02 -0.14536757361E+03 -0.19575900924E+03  0.26225196538E+03  0.79281747325E+02 0.  0.
          5    1    5    5  501    0 -0.33459375966E+02  0.32590533591E+02 -0.79880478717E+02  0.92653405765E+02  0.47000000000E+01 0. -1.
        -13    1    6    6    0    0 -0.17261458827E+02 -0.38588615909E+02 -0.80910462837E+01  0.43040728021E+02  0.00000000000E+00 0.  1.
         14    1    6    6    0    0 -0.37849127547E+02 -0.10677895770E+03 -0.18766796296E+03  0.21921123736E+03  0.00000000000E+00 0. -1.
         -5    1    3    3    0  503  0.69285921666E+02 -0.16853187517E+02 -0.52321470511E+02  0.88567460995E+02  0.47000000000E+01 0.  1.
         13    1    4    4    0    0  0.45369100585E+02  0.10880727942E+03 -0.49071234235E+02  0.12769246404E+03  0.00000000000E+00 0. -1.
        -14    1    4    4    0    0 -0.26085059911E+02  0.20822948116E+02 -0.12277270352E+02  0.35563420619E+02  0.00000000000E+00 0.  1.
</event>
<event>
12    1  0.1032880E+000  0.2188079E+03  0.7818608E-02  0.1136960E+00
         21   -1    0    0  503  502  0.00000000000E+00  0.00000000000E+00  0.73016009856E+02  0.73016009856E+02  0.00000000000E+00 0. -1.
         21   -1    0    0  501  503 -0.00000000000E+00 -0.00000000000E+00 -0.99142627267E+03  0.99142627267E+03  0.00000000000E+00 0. -1.
          6    2    1    2  501    0 -0.11902687662E+03 -0.65811976103E+01 -0.14214638492E+03  0.26092618535E+03  0.18348343231E+03 0.  0.
         24    2    3    3    0    0 -0.27410338928E+02  0.46930129288E+02 -0.21891953322E+02  0.10048843915E+03  0.81638869832E+02 0.  0.
         -6    2    1    2    0  502  0.11902687662E+03  0.65811976103E+01 -0.77626387789E+03  0.80351609718E+03  0.16982873956E+03 0.  0.
        -24    2    5    5    0    0  0.31226126076E+02  0.33988943149E+02 -0.57086515492E+03  0.57841416091E+03  0.80904865326E+02 0.  0.
          5    1    3    3  501    0 -0.91616537696E+02 -0.53511326898E+02 -0.12025443160E+03  0.16043774620E+03  0.47000000000E+01 0. -1.
        -13    1    4    4    0    0 -0.11925088907E+02 -0.19259099038E+02 -0.23301386739E+02  0.32497311661E+02  0.00000000000E+00 0.  1.
         14    1    4    4    0    0 -0.15485250020E+02  0.66189228327E+02  0.14094334173E+01  0.67991127489E+02  0.00000000000E+00 0. -1.
         -5    1    5    5    0  502  0.87800750548E+02 -0.27407745538E+02 -0.20539872297E+03  0.22510193627E+03  0.47000000000E+01 0.  1.
         13    1    6    6    0    0 -0.24716687323E+02 -0.31377403889E+01 -0.19682992328E+03  0.19840055127E+03  0.00000000000E+00 0. -1.
        -14    1    6    6    0    0  0.55942813399E+02  0.37126683537E+02 -0.37403523164E+03  0.38001360964E+03  0.00000000000E+00 0.  1.
</event>
<event>
12    1  0.1032880E+000  0.2224628E+03  0.7818608E-02  0.1132222E+00
         21   -1    0    0  503  502  0.00000000000E+00  0.00000000000E+00  0.12044996503E+03  0.12044996503E+03  0.00000000000E+00 0.  1.
         21   -1    0    0  501  503 -0.00000000000E+00 -0.00000000000E+00 -0.40925427430E+03  0.40925427430E+03  0.00000000000E+00 0.  1.
          6    2    1    2  501    0 -0.87035642471E+02  0.10793470312E+03 -0.14497251432E+03  0.26479432703E+03  0.17284068537E+03 0.  0.
         24    2    3    3    0    0  0.16253736097E+02  0.75176025186E+02 -0.81537046483E+02  0.13914411698E+03  0.82444991609E+02 0.  0.
         -6    2    1    2    0  502  0.87035642471E+02 -0.10793470312E+03 -0.14383179495E+03  0.26490991230E+03  0.17396716126E+03 0.  0.
        -24    2    5    5    0    0  0.98386456894E+02 -0.13516731472E+03 -0.97656213966E+02  0.20991236324E+03  0.81094797904E+02 0.  0.
          5    1    3    3  501    0 -0.10328937857E+03  0.32758677929E+02 -0.63435467842E+02  0.12565021005E+03  0.47000000000E+01 0. -1.
        -13    1    4    4    0    0  0.21508124216E+02  0.59704869451E+01 -0.63680284833E+02  0.67479069333E+02  0.00000000000E+00 0.  1.
         14    1    4    4    0    0 -0.52543881194E+01  0.69205538241E+02 -0.17856761650E+02  0.71665047648E+02  0.00000000000E+00 0. -1.
         -5    1    5    5    0  502 -0.11350814423E+02  0.27232611605E+02 -0.46175580981E+02  0.54997549053E+02  0.47000000000E+01 0.  1.
         13    1    6    6    0    0  0.25122424975E+02 -0.77694359421E+02 -0.10422796823E+02  0.82317582667E+02  0.00000000000E+00 0. -1.
        -14    1    6    6    0    0  0.73264031918E+02 -0.57472955299E+02 -0.87233417143E+02  0.12759478058E+03  0.00000000000E+00 0.  1.
</event>
<event>
12    1  0.1032880E+000  0.2230871E+03  0.7818608E-02  0.1132839E+00
         21   -1    0    0  503  502  0.00000000000E+00  0.00000000000E+00  0.41441301642E+02  0.41441301642E+02  0.00000000000E+00 0. -1.
         21   -1    0    0  501  503 -0.00000000000E+00 -0.00000000000E+00 -0.14174367525E+04  0.14174367525E+04  0.00000000000E+00 0. -1.
          6    2    1    2  501    0 -0.60476955260E+02 -0.11565571224E+03 -0.98699991960E+03  0.10104526234E+04  0.17266139383E+03 0.  0.
         24    2    3    3    0    0  0.45941115976E+01 -0.48538154929E+02 -0.75356279925E+03  0.75894916536E+03  0.75959758022E+02 0.  0.
         -6    2    1    2    0  502  0.60476955260E+02  0.11565571224E+03 -0.38899553131E+03  0.44842543081E+03  0.18092577961E+03 0.  0.
        -24    2    5    5    0    0  0.20477869341E+02  0.14928397430E+03 -0.27670575539E+03  0.32448241705E+03  0.77573937578E+02 0.  0.
          5    1    3    3  501    0 -0.65071066857E+02 -0.67117557311E+02 -0.23343712034E+03  0.25150345802E+03  0.47000000000E+01 0. -1.
        -13    1    4    4    0    0  0.33165851769E+02 -0.24656262408E+01 -0.38307659104E+03  0.38451752579E+03  0.00000000000E+00 0.  1.
         14    1    4    4    0    0 -0.28571740172E+02 -0.46072528689E+02 -0.37048620821E+03  0.37443163957E+03  0.00000000000E+00 0. -1.
         -5    1    5    5    0  502  0.39999085919E+02 -0.33628262064E+02 -0.11228977592E+03  0.12394301376E+03  0.47000000000E+01 0.  1.
         11    1    6    6    0    0 -0.23958673302E+01  0.12317129661E+03 -0.15540414876E+03  0.19831126528E+03  0.00000000000E+00 0. -1.
        -12    1    6    6    0    0  0.22873736671E+02  0.26112677697E+02 -0.12130160663E+03  0.12617115176E+03  0.00000000000E+00 0.  1.
</event>
<event>
12    1  0.1032880E+000  0.2278377E+03  0.7818608E-02  0.1128248E+00
         21   -1    0    0  503  502  0.00000000000E+00  0.00000000000E+00  0.73412492645E+02  0.73412492645E+02  0.00000000000E+00 0.  1.
         21   -1    0    0  501  503 -0.00000000000E+00 -0.00000000000E+00 -0.71152645146E+03  0.71152645146E+03  0.00000000000E+00 0.  1.
          6    2    1    2  501    0  0.34187364725E+02  0.14493595935E+03 -0.35469555752E+03  0.42156723926E+03  0.17243778726E+03 0.  0.
         24    2    3    3    0    0 -0.16948598836E+02  0.10311120827E+03 -0.32503165509E+03  0.34899841896E+03  0.72354290495E+02 0.  0.
         -6    2    1    2    0  502 -0.34187364725E+02 -0.14493595935E+03 -0.28341840129E+03  0.36337170484E+03  0.17186563783E+03 0.  0.
        -24    2    5    5    0    0  0.25645350871E+02 -0.13454281650E+03 -0.15700362759E+03  0.22304794960E+03  0.79629110570E+02 0.  0.
          5    1    3    3  501    0  0.51135963561E+02  0.41824751085E+02 -0.29663902427E+02  0.72568820301E+02  0.47000000000E+01 0. -1.
        -13    1    4    4    0    0  0.20979486740E+01  0.28267807164E+02 -0.20028511472E+03  0.20228098648E+03  0.00000000000E+00 0.  1.
         14    1    4    4    0    0 -0.19046547510E+02  0.74843401105E+02 -0.12474654037E+03  0.14671743249E+03  0.00000000000E+00 0. -1.
         -5    1    5    5    0  502 -0.59832715595E+02 -0.10393142848E+02 -0.12641477371E+03  0.14032375524E+03  0.47000000000E+01 0.  1.
         13    1    6    6    0    0 -0.69218510667E+01 -0.50798434377E+02 -0.11063216692E+03  0.12193387271E+03  0.00000000000E+00 0. -1.
        -14    1    6    6    0    0  0.32567201937E+02 -0.83744382128E+02 -0.46371460667E+02  0.10111407689E+03  0.00000000000E+00 0.  1.
</event>
<event>
12    1  0.1032880E+000  0.1018681E+04  0.7818608E-02  0.9288359E-01
         21   -1    0    0  503  502  0.00000000000E+00  0.00000000000E+00  0.14054201410E+04  0.14054201410E+04  0.00000000000E+00 0.  1.
         21   -1    0    0  501  503 -0.00000000000E+00 -0.00000000000E+00 -0.75925452366E+03  0.75925452366E+03  0.00000000000E+00 0. -1.
          6    2    1    2  501    0 -0.18814779294E+03  0.98592430568E+03  0.50345774908E+03  0.11363015122E+04  0.17396865494E+03 0.  0.
         24    2    3    3    0    0 -0.94976389063E+02  0.65274660369E+03  0.25694265930E+03  0.71147205097E+03  0.71234163386E+02 0.  0.
         -6    2    1    2    0  502  0.18814779294E+03 -0.98592430568E+03  0.14270786824E+03  0.10283731525E+04  0.17245137455E+03 0.  0.
        -24    2    5    5    0    0  0.83416628612E+02 -0.77664469617E+03  0.12079463243E+03  0.79327986963E+03  0.67574331900E+02 0.  0.
          5    1    3    3  501    0 -0.93171403874E+02  0.33317770199E+03  0.24651508978E+03  0.42482946118E+03  0.47000000000E+01 0. -1.
        -13    1    4    4    0    0 -0.12965816112E+02  0.29614619422E+03  0.94527297995E+02  0.31113677186E+03  0.00000000000E+00 0.  1.
         14    1    4    4    0    0 -0.82010572952E+02  0.35660040947E+03  0.16241536130E+03  0.40033527911E+03  0.00000000000E+00 0. -1.
         -5    1    5    5    0  502  0.10473116433E+03 -0.20927960952E+03  0.21913235809E+02  0.23509328285E+03  0.47000000000E+01 0.  1.
         11    1    6    6    0    0  0.57101108725E+02 -0.29979324591E+03  0.69146911576E+02  0.31291823579E+03  0.00000000000E+00 0. -1.
        -12    1    6    6    0    0  0.26315519887E+02 -0.47685145026E+03  0.51647720854E+02  0.48036163384E+03  0.00000000000E+00 0.  1.
</event>
<event>
12    1  0.1032880E+000  0.2209192E+03  0.7818608E-02  0.1133232E+00
         21   -1    0    0  501  502  0.00000000000E+00  0.00000000000E+00  0.17459136783E+03  0.17459136783E+03  0.00000000000E+00 0.  1.
         21   -1    0    0  502  503 -0.00000000000E+00 -0.00000000000E+00 -0.30995580671E+03  0.30995580671E+03  0.00000000000E+00 0. -1.
         -6    2    1    2    0  503  0.61197887596E+02 -0.12478493256E+03 -0.14387680325E+03  0.26363958809E+03  0.17172314070E+03 0.  0.
        -24    2    3    3    0    0  0.46804335572E+02 -0.56916897323E+02 -0.15885878379E+03  0.19250735708E+03  0.79954926752E+02 0.  0.
          6    2    1    2  501    0 -0.61197887596E+02  0.12478493256E+03  0.85123643683E+01  0.22090758646E+03  0.17149705702E+03 0.  0.
         24    2    5    5    0    0 -0.79415395362E+02  0.49552112592E+02 -0.35996723791E+02  0.13149280178E+03  0.85043376666E+02 0.  0.
          5    1    5    5  501    0  0.18217507766E+02  0.75232819969E+02  0.44509088159E+02  0.89414784675E+02  0.47000000000E+01 0. -1.
        -11    1    6    6    0    0 -0.37022389787E+02  0.33377145748E+02  0.24764384366E+02  0.55659374205E+02  0.00000000000E+00 0.  1.
         12    1    6    6    0    0 -0.42393005574E+02  0.16174966844E+02 -0.60761108157E+02  0.75833427580E+02  0.00000000000E+00 0. -1.
         -5    1    3    3    0  503  0.14393552024E+02 -0.67868035238E+02  0.14981980547E+02  0.71132231008E+02  0.47000000000E+01 0.  1.
         13    1    4    4    0    0  0.64764674817E+02 -0.24646966679E+02 -0.82911526398E+02  0.10805673177E+03  0.00000000000E+00 0. -1.
        -14    1    4    4    0    0 -0.17960339245E+02 -0.32269930644E+02 -0.75947257395E+02  0.84450625311E+02  0.00000000000E+00 0.  1.
</event>
<event>
12    1  0.1032880E+000  0.1748714E+03  0.7818608E-02  0.1172869E+00
         21   -1    0    0  501  502  0.00000000000E+00  0.00000000000E+00  0.17041402728E+03  0.17041402728E+03  0.00000000000E+00 0. -1.
         21   -1    0    0  502  503 -0.00000000000E+00 -0.00000000000E+00 -0.19036220077E+03  0.19036220077E+03  0.00000000000E+00 0. -1.
         -6    2    1    2    0  503 -0.18461098407E+02  0.15294955220E+02 -0.53240396782E+02  0.18276392578E+03  0.17318592584E+03 0.  0.
        -24    2    3    3    0    0  0.40961194962E+02  0.44826568635E+02 -0.56036529071E+02  0.11618289623E+03  0.81676998220E+02 0.  0.
          6    2    1    2  501    0  0.18461098407E+02 -0.15294955220E+02  0.33292223287E+02  0.17801230227E+03  0.17322026388E+03 0.  0.
         24    2    5    5    0    0 -0.20735613866E+02 -0.69648305900E+02  0.12221928391E+02  0.10760835132E+03  0.78417660908E+02 0.  0.
          5    1    5    5  501    0  0.39196712272E+02  0.54353350680E+02  0.21070294897E+02  0.70403950955E+02  0.47000000000E+01 0. -1.
        -13    1    6    6    0    0 -0.33554132420E+01 -0.23697889254E+02 -0.33047278444E+02  0.40804060652E+02  0.00000000000E+00 0.  1.
         14    1    6    6    0    0 -0.17380200624E+02 -0.45950416646E+02  0.45269206835E+02  0.66804290664E+02  0.00000000000E+00 0. -1.
         -5    1    3    3    0  503 -0.59422293369E+02 -0.29531613415E+02  0.27961322896E+01  0.66581029550E+02  0.47000000000E+01 0.  1.
         11    1    4    4    0    0  0.29254233883E+02  0.59283586713E+02 -0.67379614542E+02  0.94394736662E+02  0.00000000000E+00 0. -1.
        -12    1    4    4    0    0  0.11706961079E+02 -0.14457018079E+02  0.11343085471E+02  0.21788159569E+02  0.00000000000E+00 0.  1.
</event>
<event>
12    1  0.1032880E+000  0.1795160E+03  0.7818608E-02  0.1168282E+00
         21   -1    0    0  503  502  0.00000000000E+00  0.00000000000E+00  0.93853843445E+03  0.93853843445E+03  0.00000000000E+00 0. -1.
         21   -1    0    0  501  503 -0.00000000000E+00 -0.00000000000E+00 -0.34794110051E+02  0.34794110051E+02  0.00000000000E+00 0. -1.
          6    2    1    2  501    0  0.83775325342E+01 -0.45485803702E+02  0.39563279177E+03  0.43445515886E+03  0.17345557859E+03 0.  0.
         24    2    3    3    0    0 -0.30494478717E+02 -0.32502098322E+02  0.37794720699E+03  0.38957220248E+03  0.83283311948E+02 0.  0.
         -6    2    1    2    0  502 -0.83775325342E+01  0.45485803702E+02  0.50811153262E+03  0.53887738564E+03  0.17341385694E+03 0.  0.
        -24    2    5    5    0    0 -0.20854159486E+02 -0.38658901202E+02  0.23052574981E+03  0.24851217697E+03  0.81772698183E+02 0.  0.
          5    1    3    3  501    0  0.38872011251E+02 -0.12983705380E+02  0.17685584787E+02  0.44882956380E+02  0.47000000000E+01 0. -1.
        -11    1    4    4    0    0 -0.35665421294E+01 -0.48213049544E+02  0.32126370390E+03  0.32488087942E+03  0.00000000000E+00 0.  1.
         12    1    4    4    0    0 -0.26927936588E+02  0.15710951222E+02  0.56683503088E+02  0.64691323062E+02  0.00000000000E+00 0. -1.
         -5    1    5    5    0  502  0.12476626952E+02  0.84144704904E+02  0.27758578281E+03  0.29036520866E+03  0.47000000000E+01 0.  1.
         13    1    6    6    0    0 -0.12805547306E+02  0.19259897630E+01  0.19051792302E+03  0.19095750959E+03  0.00000000000E+00 0. -1.
        -14    1    6    6    0    0 -0.80486121802E+01 -0.40584890965E+02  0.40007826791E+02  0.57554667379E+02  0.00000000000E+00 0.  1.
</event>
<event>
12    1  0.1032880E+000  0.3206233E+03  0.7818608E-02  0.1075560E+00
         21   -1    0    0  501  502  0.00000000000E+00  0.00000000000E+00  0.47133966188E+03  0.47133966188E+03  0.00000000000E+00 0.  1.
         21   -1    0    0  502  503 -0.00000000000E+00 -0.00000000000E+00 -0.21703594894E+03  0.21703594894E+03  0.00000000000E+00 0.  1.
         -6    2    1    2    0  503 -0.20551919901E+03  0.17183749526E+03  0.12009380612E+03  0.34237671911E+03  0.17616194135E+03 0.  0.
        -24    2    3    3    0    0 -0.12536866105E+03  0.14670773062E+03  0.17408805386E+02  0.20962916477E+03  0.80005379956E+02 0.  0.
          6    2    1    2  501    0  0.20551919901E+03 -0.17183749526E+03  0.13420990683E+03  0.34599889171E+03  0.17302216054E+03 0.  0.
         24    2    5    5    0    0  0.19176886354E+03 -0.93549805187E+02  0.73308746675E+02  0.24575381477E+03  0.97436656661E+02 0.  0.
          5    1    5    5  501    0  0.13750335465E+02 -0.78287690074E+02  0.60901160152E+02  0.10024507694E+03  0.47000000000E+01 0. -1.
        -13    1    6    6    0    0  0.21079983339E+02 -0.21747873432E+02 -0.22052794059E+02  0.37465469731E+02  0.00000000000E+00 0.  1.
         14    1    6    6    0    0  0.17068888021E+03 -0.71801931755E+02  0.95361540734E+02  0.20828834504E+03  0.00000000000E+00 0. -1.
         -5    1    3    3    0  503 -0.80150537960E+02  0.25129764642E+02  0.10268500073E+03  0.13274755433E+03  0.47000000000E+01 0.  1.
         13    1    4    4    0    0 -0.69981234166E+02  0.26084985675E+02 -0.56972172030E+01  0.74901654834E+02  0.00000000000E+00 0. -1.
        -14    1    4    4    0    0 -0.55387426885E+02  0.12062274494E+03  0.23106022589E+02  0.13472750994E+03  0.00000000000E+00 0.  1.
</event>
<event>
12    1  0.1032880E+000  0.1726976E+03  0.7818608E-02  0.1175077E+00
         21   -1    0    0  501  502  0.00000000000E+00  0.00000000000E+00  0.89954578670E+02  0.89954578670E+02  0.00000000000E+00 0. -1.
         21   -1    0    0  502  503 -0.00000000000E+00 -0.00000000000E+00 -0.33188405982E+03  0.33188405982E+03  0.00000000000E+00 0. -1.
         -6    2    1    2    0  503  0.20814536025E+01 -0.97628801825E+01 -0.11327714847E+03  0.20648799488E+03  0.17235409304E+03 0.  0.
        -24    2    3    3    0    0 -0.89004568570E+00  0.58954865030E+02 -0.95221828568E+02  0.13522059075E+03  0.75769012362E+02 0.  0.
          6    2    1    2  501    0 -0.20814536025E+01  0.97628801825E+01 -0.12865233269E+03  0.21535064361E+03  0.17240890557E+03 0.  0.
         24    2    5    5    0    0 -0.19504962845E+02  0.64762910315E+02 -0.44323331529E+02  0.11306646876E+03  0.79023986943E+02 0.  0.
          5    1    5    5  501    0  0.17423509243E+02 -0.55000030132E+02 -0.84329001156E+02  0.10228417485E+03  0.47000000000E+01 0. -1.
        -13    1    6    6    0    0 -0.14467753052E+02  0.67452574679E+02 -0.63068481559E+02  0.93470846125E+02  0.00000000000E+00 0.  1.
         14    1    6    6    0    0 -0.50372097931E+01 -0.26896643639E+01  0.18745150030E+02  0.19595622637E+02  0.00000000000E+00 0. -1.
         -5    1    3    3    0  503  0.29714992882E+01 -0.68717745212E+02 -0.18055319900E+02  0.71267404133E+02  0.47000000000E+01 0.  1.
         11    1    4    4    0    0 -0.15667570560E+02 -0.70362083422E+01  0.14579631881E+01  0.17236781942E+02  0.00000000000E+00 0. -1.
        -12    1    4    4    0    0  0.14777524874E+02  0.65991073372E+02 -0.96679791756E+02  0.11798380880E+03  0.00000000000E+00 0.  1.
</event>
<event>
12    1  0.1032880E+000  0.1791821E+03  0.7818608E-02  0.1168927E+00
         21   -1    0    0  501  502  0.00000000000E+00  0.00000000000E+00  0.23798389544E+03  0.23798389544E+03  0.00000000000E+00 0. -1.
         21   -1    0    0  502  503 -0.00000000000E+00 -0.00000000000E+00 -0.16439302052E+03  0.16439302052E+03  0.00000000000E+00 0. -1.
         -6    2    1    2    0  503 -0.14979883571E+02 -0.44766220722E+02  0.12356372390E+03  0.21765622868E+03  0.17285204247E+03 0.  0.
        -24    2    3    3    0    0 -0.51361391901E+02 -0.81035993923E+02  0.10268982564E+03  0.16200624912E+03  0.80597764073E+02 0.  0.
          6    2    1    2  501    0  0.14979883571E+02  0.44766220722E+02 -0.49972848981E+02  0.18472068728E+03  0.17145272014E+03 0.  0.
         24    2    5    5    0    0 -0.65919888800E+01 -0.39069240151E+01 -0.88456475020E+02  0.11886098661E+03  0.79023210461E+02 0.  0.
          5    1    5    5  501    0  0.21571872451E+02  0.48673144737E+02  0.38483626039E+02  0.65859700673E+02  0.47000000000E+01 0. -1.
        -11    1    6    6    0    0 -0.38365857860E+02 -0.20506894292E+02 -0.50424914197E+02  0.66596874811E+02  0.00000000000E+00 0.  1.
         12    1    6    6    0    0  0.31773868980E+02  0.16599970277E+02 -0.38031560823E+02  0.52264111796E+02  0.00000000000E+00 0. -1.
         -5    1    3    3    0  503  0.36381508330E+02  0.36269773201E+02  0.20873898264E+02  0.55649979561E+02  0.47000000000E+01 0.  1.
         11    1    4    4    0    0 -0.27557285268E+02 -0.22521705463E+01 -0.32661894269E+01  0.27841412265E+02  0.00000000000E+00 0. -1.
        -12    1    4    4    0    0 -0.23804106633E+02 -0.78783823377E+02  0.10595601507E+03  0.13416483685E+03  0.00000000000E+00 0.  1.
</event>
<event>
12    1  0.1032880E+000  0.2281554E+03  0.7818608E-02  0.1127984E+00
         21   -1    0    0  501  502  0.00000000000E+00  0.00000000000E+00  0.36772267511E+03  0.36772267511E+03  0.00000000000E+00 0.  1.
         21   -1    0    0  502  503 -0.00000000000E+00 -0.00000000000E+00 -0.17939134530E+03  0.17939134530E+03  0.00000000000E+00 0.  1.
         -6    2    1    2    0  503 -0.93993421006E+02  0.11667537030E+03  0.22005323351E+03  0.31698317058E+03  0.17206684640E+03 0.  0.
        -24    2    3    3    0    0 -0.26346613493E+02 -0.85735587804E+01  0.89550831322E+02  0.12380876292E+03  0.80880210383E+02 0.  0.
          6    2    1    2  501    0  0.93993421006E+02 -0.11667537030E+03 -0.31721903698E+02  0.23013084982E+03  0.17177317497E+03 0.  0.
         24    2    5    5    0    0  0.11571436084E+03 -0.39529783822E+02 -0.74961087966E+01  0.14627251762E+03  0.79918963028E+02 0.  0.
          5    1    5    5  501    0 -0.21720939835E+02 -0.77145586474E+02 -0.24225794902E+02  0.83858332194E+02  0.47000000000E+01 0. -1.
        -11    1    6    6    0    0  0.39960458987E+02 -0.32127766773E+02  0.32081054214E+02  0.60483268098E+02  0.00000000000E+00 0.  1.
         12    1    6    6    0    0  0.75753901853E+02 -0.74020170491E+01 -0.39577163011E+02  0.85789249527E+02  0.00000000000E+00 0. -1.
         -5    1    3    3    0  503 -0.67646807513E+02  0.12524892908E+03  0.13050240219E+03  0.19317440767E+03  0.47000000000E+01 0.  1.
         11    1    4    4    0    0 -0.70327809414E+01  0.35623904585E+02  0.47711817859E+02  0.59957819749E+02  0.00000000000E+00 0. -1.
        -12    1    4    4    0    0 -0.19313832551E+02 -0.44197463365E+02  0.41839013463E+02  0.63850943167E+02  0.00000000000E+00 0.  1.
</event>
<event>
12    1  0.1032880E+000  0.2309224E+03  0.7818608E-02  0.1126130E+00
         21   -1    0    0  503  502  0.00000000000E+00  0.00000000000E+00  0.90451350907E+03  0.90451350907E+03  0.00000000000E+00 0. -1.
         21   -1    0    0  501  503 -0.00000000000E+00 -0.00000000000E+00 -0.81953750935E+02  0.81953750935E+02  0.00000000000E+00 0. -1.
          6    2    1    2  501    0 -0.68864950679E+02  0.13723384624E+03  0.67320288940E+03  0.71145340862E+03  0.17143019674E+03 0.  0.
         24    2    3    3    0    0 -0.10114291347E+03  0.14247632226E+03  0.51045519455E+03  0.54538639620E+03  0.79702096341E+02 0.  0.
         -6    2    1    2    0  502  0.68864950679E+02 -0.13723384624E+03  0.14935686874E+03  0.27501385138E+03  0.17248082279E+03 0.  0.
        -24    2    5    5    0    0  0.44427917671E+02 -0.74660183284E+02  0.16771645610E+03  0.20521559692E+03  0.80228727624E+02 0.  0.
          5    1    3    3  501    0  0.32277962789E+02 -0.52424760271E+01  0.16274769484E+03  0.16606701242E+03  0.47000000000E+01 0. -1.
        -13    1    4    4    0    0 -0.84446824834E+02  0.14849532557E+03  0.48615649111E+03  0.51529628544E+03  0.00000000000E+00 0.  1.
         14    1    4    4    0    0 -0.16696088634E+02 -0.60190033030E+01  0.24298703444E+02  0.30090110759E+02  0.00000000000E+00 0. -1.
         -5    1    5    5    0  502  0.24437033007E+02 -0.62573662954E+02 -0.18359587367E+02  0.69798254462E+02  0.47000000000E+01 0.  1.
         11    1    6    6    0    0  0.16801110847E+02  0.70117008980E+01  0.80666070808E+02  0.82694959065E+02  0.00000000000E+00 0. -1.
        -12    1    6    6    0    0  0.27626806824E+02 -0.81671884182E+02  0.87050385295E+02  0.12252063786E+03  0.00000000000E+00 0.  1.
</event>
<event>
12    1  0.1032880E+000  0.3855598E+03  0.7818608E-02  0.1048920E+00
         21   -1    0    0  501  502  0.00000000000E+00  0.00000000000E+00  0.53449329177E+03  0.53449329177E+03  0.00000000000E+00 0. -1.
         21   -1    0    0  502  503 -0.00000000000E+00 -0.00000000000E+00 -0.37631095770E+03  0.37631095770E+03  0.00000000000E+00 0.  1.
         -6    2    1    2    0  503  0.34030286817E+03  0.57155356336E+02 -0.15375254882E+03  0.41486098896E+03  0.17145558331E+03 0.  0.
        -24    2    3    3    0    0  0.25273660512E+03 -0.22820664374E+02 -0.11549675575E+03  0.29016291353E+03  0.80364429371E+02 0.  0.
          6    2    1    2  501    0 -0.34030286817E+03 -0.57155356336E+02  0.31193488289E+03  0.49594326050E+03  0.17199874892E+03 0.  0.
         24    2    5    5    0    0 -0.25002413295E+03 -0.10583530087E+03  0.21288060304E+03  0.35327641996E+03  0.75979601107E+02 0.  0.
          5    1    5    5  501    0 -0.90278735220E+02  0.48679944530E+02  0.99054279855E+02  0.14266684054E+03  0.47000000000E+01 0. -1.
        -11    1    6    6    0    0 -0.13679993292E+01 -0.42202928123E+01 -0.55162819231E+01  0.70789589518E+01  0.00000000000E+00 0.  1.
         12    1    6    6    0    0 -0.24865613363E+03 -0.10161500805E+03  0.21839688496E+03  0.34619746101E+03  0.00000000000E+00 0. -1.
         -5    1    3    3    0  503  0.87566263051E+02  0.79976020710E+02 -0.38255793077E+02  0.12469807543E+03  0.47000000000E+01 0.  1.
         13    1    4    4    0    0  0.67166993873E+02  0.23948533144E+01  0.51237994033E+01  0.67404700939E+02  0.00000000000E+00 0. -1.
        -14    1    4    4    0    0  0.18556961125E+03 -0.25215517688E+02 -0.12062055515E+03  0.22275821259E+03  0.00000000000E+00 0.  1.
</event>
<event>
12    1  0.1032880E+000  0.3501924E+03  0.7818608E-02  0.1062911E+00
         21   -1    0    0  501  502  0.00000000000E+00  0.00000000000E+00  0.13043975127E+03  0.13043975127E+03  0.00000000000E+00 0. -1.
         21   -1    0    0  502  503 -0.00000000000E+00 -0.00000000000E+00 -0.15968196350E+04  0.15968196350E+04  0.00000000000E+00 0.  1.
         -6    2    1    2    0  503 -0.20671945044E+03  0.22395744848E+03 -0.17751199507E+03  0.39261330604E+03  0.17246689471E+03 0.  0.
        -24    2    3    3    0    0 -0.18338977326E+03  0.12394853812E+03 -0.17016863721E+03  0.28954987464E+03  0.76724935804E+02 0.  0.
          6    2    1    2  501    0  0.20671945044E+03 -0.22395744848E+03 -0.12888678887E+04  0.13346460803E+04  0.16495410006E+03 0.  0.
         24    2    5    5    0    0  0.14690646212E+03 -0.82926714742E+02 -0.75209688699E+03  0.77642349052E+03  0.93409638546E+02 0.  0.
          5    1    5    5  501    0  0.59812988320E+02 -0.14103073374E+03 -0.53677100171E+03  0.55822258975E+03  0.47000000000E+01 0. -1.
        -11    1    6    6    0    0  0.71729602248E+02 -0.87298727588E+02 -0.52992982997E+03  0.54184114680E+03  0.00000000000E+00 0.  1.
         12    1    6    6    0    0  0.75176859871E+02  0.43720128457E+01 -0.22216705702E+03  0.23458234371E+03  0.00000000000E+00 0. -1.
         -5    1    3    3    0  503 -0.23329677182E+02  0.10000891036E+03 -0.73433578550E+01  0.10306343141E+03  0.47000000000E+01 0.  1.
         13    1    4    4    0    0  0.28939886338E+01  0.84702687086E+01  0.38007672850E+01  0.97245284803E+01  0.00000000000E+00 0. -1.
        -14    1    4    4    0    0 -0.18628376189E+03  0.11547826941E+03 -0.17396940450E+03  0.27982534616E+03  0.00000000000E+00 0.  1.
</event>
<event>
12    1  0.1032880E+000  0.3180007E+03  0.7818608E-02  0.1077720E+00
         21   -1    0    0  501  502  0.00000000000E+00  0.00000000000E+00  0.60140465188E+03  0.60140465188E+03  0.00000000000E+00 0. -1.
         21   -1    0    0  502  503 -0.00000000000E+00 -0.00000000000E+00 -0.17941281202E+03  0.17941281202E+03  0.00000000000E+00 0. -1.
         -6    2    1    2    0  503  0.22918598761E+03 -0.11610398712E+03  0.96059070246E+02  0.33219236999E+03  0.18739816692E+03 0.  0.
        -24    2    3    3    0    0  0.23710493328E+03 -0.77284136001E+02  0.11749349333E+03  0.28690202848E+03  0.79476197124E+02 0.  0.
          6    2    1    2  501    0 -0.22918598761E+03  0.11610398712E+03  0.32593276961E+03  0.44862509391E+03  0.17037004384E+03 0.  0.
         24    2    5    5    0    0 -0.60691684201E+02  0.64554625070E+02  0.71186537648E+02  0.13884226723E+03  0.79742534932E+02 0.  0.
          5    1    5    5  501    0 -0.16849430341E+03  0.51549362045E+02  0.25474623196E+03  0.30978282668E+03  0.47000000000E+01 0. -1.
        -11    1    6    6    0    0 -0.77609296583E+02  0.52799342940E+02  0.71883831507E+02  0.11822968647E+03  0.00000000000E+00 0.  1.
         12    1    6    6    0    0  0.16917612382E+02  0.11755282130E+02 -0.69729385920E+00  0.20612580756E+02  0.00000000000E+00 0. -1.
         -5    1    3    3    0  503 -0.79189456725E+01 -0.38819851115E+02 -0.21434423083E+02  0.45290341509E+02  0.47000000000E+01 0.  1.
         13    1    4    4    0    0  0.77549375112E+00  0.84896239644E+01  0.10868397964E+02  0.13812935239E+02  0.00000000000E+00 0. -1.
        -14    1    4    4    0    0  0.23632943953E+03 -0.85773759965E+02  0.10662509537E+03  0.27308909325E+03  0.00000000000E+00 0.  1.
</event>
<event>
12    1  0.1032880E+000  0.4281859E+03  0.7818608E-02  0.1034445E+00
         21   -1    0    0  503  502  0.00000000000E+00  0.00000000000E+00  0.11528091763E+03  0.11528091763E+03  0.00000000000E+00 0.  1.
         21   -1    0    0  501  503 -0.00000000000E+00 -0.00000000000E+00 -0.21389219558E+04  0.21389219558E+04  0.00000000000E+00 0.  1.
          6    2    1    2  501    0 -0.35296810893E+03 -0.17035598756E+03 -0.15827244076E+04  0.16395886854E+04  0.17212454327E+03 0.  0.
         24    2    3    3    0    0 -0.81508701723E+02 -0.22426915484E+02 -0.34896328014E+03  0.36767601944E+03  0.79143220790E+02 0.  0.
         -6    2    1    2    0  502  0.35296810893E+03  0.17035598756E+03 -0.44091663056E+03  0.61461418803E+03  0.17243977675E+03 0.  0.
        -24    2    5    5    0    0  0.32919929571E+03  0.19627385106E+03 -0.38503408947E+03  0.54842022661E+03  0.74952611671E+02 0.  0.
          5    1    3    3  501    0 -0.27145940721E+03 -0.14792907208E+03 -0.12337611274E+04  0.12719126659E+04  0.47000000000E+01 0. -1.
        -11    1    4    4    0    0 -0.22429960384E+02  0.25667577943E+02 -0.16641034470E+03  0.16986562484E+03  0.00000000000E+00 0.  1.
         12    1    4    4    0    0 -0.59078741339E+02 -0.48094493427E+02 -0.18255293544E+03  0.19781039461E+03  0.00000000000E+00 0. -1.
         -5    1    5    5    0  502  0.23768813227E+02 -0.25917863496E+02 -0.55882541090E+02  0.66193961424E+02  0.47000000000E+01 0.  1.
         11    1    6    6    0    0  0.12453767443E+03  0.45844601074E+02 -0.16969323129E+03  0.21542319407E+03  0.00000000000E+00 0. -1.
        -12    1    6    6    0    0  0.20466162128E+03  0.15042924998E+03 -0.21534085818E+03  0.33299703253E+03  0.00000000000E+00 0.  1.
</event>
<event>
12    1  0.1032880E+000  0.2530682E+03  0.7818608E-02  0.1111603E+00
         21   -1    0    0  503  502  0.00000000000E+00  0.00000000000E+00  0.11009162505E+04  0.11009162505E+04  0.00000000000E+00 0.  1.
         21   -1    0    0  501  503 -0.00000000000E+00 -0.00000000000E+00 -0.62062589536E+02  0.62062589536E+02  0.00000000000E+00 0.  1.
          6    2    1    2  501    0 -0.14494257753E+03 -0.11332794657E+03  0.66962580727E+03  0.71534871049E+03  0.17167842492E+03 0.  0.
         24    2    3    3    0    0 -0.10798151974E+03 -0.52606167351E+02  0.23874465712E+03  0.27861777522E+03  0.78749196303E+02 0.  0.
         -6    2    1    2    0  502  0.14494257753E+03  0.11332794657E+03  0.36922785365E+03  0.44763012950E+03  0.17375831109E+03 0.  0.
        -24    2    5    5    0    0  0.10157432648E+03  0.52936229091E+02  0.10955613684E+03  0.17748303022E+03  0.79862949777E+02 0.  0.
          5    1    3    3  501    0 -0.36961057787E+02 -0.60721779218E+02  0.43088115016E+03  0.43673093527E+03  0.47000000000E+01 0. -1.
        -11    1    4    4    0    0 -0.55449615141E+02  0.26379424972E+01  0.15847595597E+03  0.16791738201E+03  0.00000000000E+00 0.  1.
         12    1    4    4    0    0 -0.52531904599E+02 -0.55244109848E+02  0.80268701150E+02  0.11070039321E+03  0.00000000000E+00 0. -1.
         -5    1    5    5    0  502  0.43368251047E+02  0.60391717478E+02  0.25967171681E+03  0.27014709928E+03  0.47000000000E+01 0.  1.
         11    1    6    6    0    0  0.61204316130E+02  0.67670707820E+02  0.95946092628E+02  0.13240447764E+03  0.00000000000E+00 0. -1.
        -12    1    6    6    0    0  0.40370010350E+02 -0.14734478729E+02  0.13610044216E+02  0.45078552579E+02  0.00000000000E+00 0.  1.
</event>
<event>
12    1  0.1032880E+000  0.3616085E+03  0.7818608E-02  0.1058180E+00
         21   -1    0    0  503  502  0.00000000000E+00  0.00000000000E+00  0.26093550585E+04  0.26093550585E+04  0.00000000000E+00 0.  1.
         21   -1    0    0  501  503 -0.00000000000E+00 -0.00000000000E+00 -0.11738947320E+03  0.11738947320E+03  0.00000000000E+00 0. -1.
          6    2    1    2  501    0 -0.29668219577E+03  0.11441618171E+03  0.22788746191E+04  0.23070202820E+04  0.16721741574E+03 0.  0.
         24    2    3    3    0    0 -0.24444188485E+03  0.80660869200E+02  0.21061205033E+04  0.21233506173E+04  0.81340388016E+02 0.  0.
         -6    2    1    2    0  502  0.29668219577E+03 -0.11441618171E+03  0.21309096624E+03  0.41972424973E+03  0.17218971513E+03 0.  0.
        -24    2    5    5    0    0  0.29507841479E+03 -0.12249717152E+03  0.16005978736E+03  0.36585152525E+03  0.78430702503E+02 0.  0.
          5    1    3    3  501    0 -0.52240310922E+02  0.33755312507E+02  0.17275411584E+03  0.18366966474E+03  0.47000000000E+01 0. -1.
        -11    1    4    4    0    0 -0.42661351606E+02 -0.16507393589E+02  0.39288613318E+03  0.39554013527E+03  0.00000000000E+00 0.  1.
         12    1    4    4    0    0 -0.20178053324E+03  0.97168262788E+02  0.17132343701E+04  0.17278104820E+04  0.00000000000E+00 0. -1.
         -5    1    5    5    0  502  0.16037809820E+01  0.80809898109E+01  0.53031178874E+02  0.53872724477E+02  0.47000000000E+01 0.  1.
         13    1    6    6    0    0  0.18147766196E+03 -0.10973539263E+03  0.81751655934E+02  0.22728689235E+03  0.00000000000E+00 0. -1.
        -14    1    6    6    0    0  0.11360075283E+03 -0.12761778887E+02  0.78308131427E+02  0.13856463291E+03  0.00000000000E+00 0.  1.
</event>
<event>
12    1  0.1032880E+000  0.3023445E+03  0.7818608E-02  0.1084270E+00
         21   -1    0    0  501  502  0.00000000000E+00  0.00000000000E+00  0.76136298858E+02  0.76136298858E+02  0.00000000000E+00 0. -1.
         21   -1    0    0  502  503 -0.00000000000E+00 -0.00000000000E+00 -0.12061559665E+04  0.12061559665E+04  0.00000000000E+00 0. -1.
         -6    2    1    2    0  503  0.24754624559E+03 -0.26596994796E+01 -0.50316630063E+03  0.58701662219E+03  0.17356834655E+03 0.  0.
        -24    2    3    3    0    0  0.83401244583E+02 -0.57224112878E+02 -0.19537086128E+03  0.23391468357E+03  0.79472882555E+02 0.  0.
          6    2    1    2  501    0 -0.24754624559E+03  0.26596994796E+01 -0.62685336696E+03  0.69527564313E+03  0.17081234892E+03 0.  0.
         24    2    5    5    0    0 -0.21676478552E+03 -0.52524572711E+02 -0.48331691111E+03  0.53837565479E+03  0.80667875408E+02 0.  0.
          5    1    5    5  501    0 -0.30781460071E+02  0.55184272191E+02 -0.14353645586E+03  0.15689998834E+03  0.47000000000E+01 0. -1.
        -11    1    6    6    0    0 -0.17107394479E+03 -0.11336644505E+02 -0.30692081023E+03  0.35156108694E+03  0.00000000000E+00 0.  1.
         12    1    6    6    0    0 -0.45690840733E+02 -0.41187928207E+02 -0.17639610088E+03  0.18681456785E+03  0.00000000000E+00 0. -1.
         -5    1    3    3    0  503  0.16414500101E+03  0.54564413398E+02 -0.30779543936E+03  0.35310193862E+03  0.47000000000E+01 0.  1.
         13    1    4    4    0    0  0.25655286592E+02  0.15516470065E+01 -0.11840697329E+03  0.12116440345E+03  0.00000000000E+00 0. -1.
        -14    1    4    4    0    0  0.57745957991E+02 -0.58775759884E+02 -0.76963887983E+02  0.11275028012E+03  0.00000000000E+00 0.  1.
</event>
<event>
12    1  0.1032880E+000  0.1967602E+03  0.7818608E-02  0.1152559E+00
         21   -1    0    0  503  502  0.00000000000E+00  0.00000000000E+00  0.79722132022E+02  0.79722132022E+02  0.00000000000E+00 0.  1.
         21   -1    0    0  501  503 -0.00000000000E+00 -0.00000000000E+00 -0.60937044442E+03  0.60937044442E+03  0.00000000000E+00 0.  1.
          6    2    1    2  501    0  0.91769349700E+02  0.31419717830E+02 -0.42064857229E+03  0.46439187454E+03  0.17118930911E+03 0.  0.
         24    2    3    3    0    0  0.11308248483E+03  0.67077922994E+02 -0.30579134231E+03  0.34216245663E+03  0.79244593268E+02 0.  0.
         -6    2    1    2    0  502 -0.91769349700E+02 -0.31419717830E+02 -0.10899974011E+03  0.22470070191E+03  0.17088197647E+03 0.  0.
        -24    2    5    5    0    0  0.15273186289E+02  0.22430556970E+02 -0.40159066561E+02  0.86428922642E+02  0.71559820685E+02 0.  0.
          5    1    3    3  501    0 -0.21313135131E+02 -0.35658205164E+02 -0.11485722998E+03  0.12222941791E+03  0.47000000000E+01 0. -1.
        -11    1    4    4    0    0  0.25293045538E+02 -0.18128181920E+02 -0.58351394937E+02  0.66130586141E+02  0.00000000000E+00 0.  1.
         12    1    4    4    0    0  0.87789439293E+02  0.85206104914E+02 -0.24743994738E+03  0.27603187048E+03  0.00000000000E+00 0. -1.
         -5    1    5    5    0  502 -0.10704253599E+03 -0.53850274800E+02 -0.68840673549E+02  0.13827177927E+03  0.47000000000E+01 0.  1.
         11    1    6    6    0    0  0.20291646113E+02  0.31836467858E+02  0.67253914928E+01  0.38347652841E+02  0.00000000000E+00 0. -1.
        -12    1    6    6    0    0 -0.50184598248E+01 -0.94059108882E+01 -0.46884458054E+02  0.48081269801E+02  0.00000000000E+00 0.  1.
</event>
<event>
12    1  0.1032880E+000  0.1803691E+03  0.7818608E-02  0.1167811E+00
         21   -1    0    0  503  502  0.00000000000E+00  0.00000000000E+00  0.11607662091E+04  0.11607662091E+04  0.00000000000E+00 0. -1.
         21   -1    0    0  501  503 -0.00000000000E+00 -0.00000000000E+00 -0.28202453898E+02  0.28202453898E+02  0.00000000000E+00 0. -1.
          6    2    1    2  501    0 -0.60252619263E+01 -0.48545784952E+02  0.64014634981E+03  0.66507170666E+03  0.17360883850E+03 0.  0.
         24    2    3    3    0    0 -0.34093185052E+02 -0.48585754047E+02  0.20266335549E+03  0.22666405363E+03  0.82348265253E+02 0.  0.
         -6    2    1    2    0  502  0.60252619263E+01  0.48545784952E+02  0.49241740537E+03  0.52389695632E+03  0.17204686196E+03 0.  0.
        -24    2    5    5    0    0  0.54897922242E+02  0.31372341868E+02  0.17281203440E+03  0.20008659944E+03  0.78566165352E+02 0.  0.
          5    1    3    3  501    0  0.28067923125E+02  0.39969095085E-01  0.43748299432E+03  0.43840765302E+03  0.47000000000E+01 0. -1.
        -13    1    4    4    0    0 -0.58162939223E+02 -0.23423285316E+02  0.97833484079E+02  0.11620227365E+03  0.00000000000E+00 0.  1.
         14    1    4    4    0    0  0.24069754172E+02 -0.25162468732E+02  0.10482987141E+03  0.11046177999E+03  0.00000000000E+00 0. -1.
         -5    1    5    5    0  502 -0.48872660315E+02  0.17173443084E+02  0.31960537097E+03  0.32381035688E+03  0.47000000000E+01 0.  1.
         11    1    6    6    0    0  0.30762572559E+02  0.43935749741E+02  0.16227363416E+03  0.17090763096E+03  0.00000000000E+00 0. -1.
        -12    1    6    6    0    0  0.24135349682E+02 -0.12563407872E+02  0.10538400240E+02  0.29178968475E+02  0.00000000000E+00 0.  1.
</event>
<event>
12    1  0.1032880E+000  0.1734782E+03  0.7818608E-02  0.1174357E+00
         21   -1    0    0  501  502  0.00000000000E+00  0.00000000000E+00  0.73645231702E+03  0.73645231702E+03  0.00000000000E+00 0. -1.
         21   -1    0    0  502  503 -0.00000000000E+00 -0.00000000000E+00 -0.73834938284E+02  0.73834938284E+02  0.00000000000E+00 0. -1.
         -6    2    1    2    0  503  0.16032145255E+02 -0.12457743946E+02  0.60054490956E+02  0.18324919878E+03  0.17193458612E+03 0.  0.
        -24    2    3    3    0    0 -0.40869954528E+02 -0.24499152223E+02 -0.68909620746E+01  0.94442508977E+02  0.81248633840E+02 0.  0.
          6    2    1    2  501    0 -0.16032145255E+02  0.12457743946E+02  0.60256288779E+03  0.62703805652E+03  0.17228599922E+03 0.  0.
         24    2    5    5    0    0 -0.22697734991E+02  0.40264525937E+02  0.16039839161E+03  0.18392500223E+03  0.77229160233E+02 0.  0.
          5    1    5    5  501    0  0.66655897359E+01 -0.27806781991E+02  0.44216449617E+03  0.44311305430E+03  0.47000000000E+01 0. -1.
        -11    1    6    6    0    0 -0.69950168017E+01  0.59517052862E+02  0.81185032494E+02  0.10090698362E+03  0.00000000000E+00 0.  1.
         12    1    6    6    0    0 -0.15702718189E+02 -0.19252526925E+02  0.79213359118E+02  0.83018018612E+02  0.00000000000E+00 0. -1.
         -5    1    3    3    0  503  0.56902099783E+02  0.12041408278E+02  0.66945453030E+02  0.88806689807E+02  0.47000000000E+01 0.  1.
         11    1    4    4    0    0 -0.63183065214E+02 -0.24943483311E+02  0.67874516925E+01  0.68266731209E+02  0.00000000000E+00 0. -1.
        -12    1    4    4    0    0  0.22313110686E+02  0.44433108753E+00 -0.13678413767E+02  0.26175777768E+02  0.00000000000E+00 0.  1.
</event>
<event>
12    1  0.1032880E+000  0.4280073E+03  0.7818608E-02  0.1034562E+00
         21   -1    0    0  503  502  0.00000000000E+00  0.00000000000E+00  0.17442564842E+03  0.17442564842E+03  0.00000000000E+00 0.  1.
         21   -1    0    0  501  503 -0.00000000000E+00 -0.00000000000E+00 -0.12060637340E+04  0.12060637340E+04  0.00000000000E+00 0.  1.
          6    2    1    2  501    0  0.37487115039E+03 -0.11341152919E+03 -0.76517619969E+03  0.87631461391E+03  0.17041752147E+03 0.  0.
         24    2    3    3    0    0  0.31513231251E+03 -0.47380782589E+02 -0.53756453911E+03  0.63186022904E+03  0.93372385564E+02 0.  0.
         -6    2    1    2    0  502 -0.37487115039E+03  0.11341152919E+03 -0.26646188591E+03  0.50417476853E+03  0.17262591414E+03 0.  0.
        -24    2    5    5    0    0 -0.31144887423E+03  0.14909920287E+03 -0.21244295289E+03  0.41342164026E+03  0.80959686575E+02 0.  0.
          5    1    3    3  501    0  0.59738837881E+02 -0.66030746601E+02 -0.22761166059E+03  0.24445438487E+03  0.47000000000E+01 0. -1.
        -13    1    4    4    0    0  0.10968887490E+03 -0.21515370605E+02 -0.27929608118E+03  0.30083361084E+03  0.00000000000E+00 0.  1.
         14    1    4    4    0    0  0.20544343761E+03 -0.25865411983E+02 -0.25826845793E+03  0.33102661820E+03  0.00000000000E+00 0. -1.
         -5    1    5    5    0  502 -0.63422276163E+02 -0.35687673678E+02 -0.54018933026E+02  0.90753128274E+02  0.47000000000E+01 0.  1.
         11    1    6    6    0    0 -0.27309517643E+03  0.99666033323E+02 -0.18824254249E+03  0.34633733323E+03  0.00000000000E+00 0. -1.
        -12    1    6    6    0    0 -0.38353697797E+02  0.49433169545E+02 -0.24200410400E+02  0.67084307029E+02  0.00000000000E+00 0.  1.
</event>
<event>
12    1  0.1032880E+000  0.2464214E+03  0.7818608E-02  0.1116491E+00
         21   -1    0    0  501  502  0.00000000000E+00  0.00000000000E+00  0.54700570440E+02  0.54700570440E+02  0.00000000000E+00 0.  1.
         21   -1    0    0  502  503 -0.00000000000E+00 -0.00000000000E+00 -0.12438379489E+04  0.12438379489E+04  0.00000000000E+00 0.  1.
         -6    2    1    2    0  503  0.31878077998E+02 -0.16506152812E+03 -0.36865966063E+03  0.44343370366E+03  0.18017209618E+03 0.  0.
        -24    2    3    3    0    0 -0.48801611086E+02 -0.93504360680E+02 -0.25606477649E+03  0.28745505648E+03  0.77049185740E+02 0.  0.
          6    2    1    2  501    0 -0.31878077998E+02  0.16506152812E+03 -0.82047771786E+03  0.85510481571E+03  0.17250808800E+03 0.  0.
         24    2    5    5    0    0 -0.87049849085E-01  0.26651710940E+02 -0.45018538211E+03  0.45848604299E+03  0.82657438107E+02 0.  0.
          5    1    5    5  501    0 -0.31791028149E+02  0.13840981718E+03 -0.37029233574E+03  0.39661877272E+03  0.47000000000E+01 0. -1.
        -13    1    6    6    0    0  0.27828651043E+02  0.36615707703E+02 -0.37266612892E+03  0.37549325894E+03  0.00000000000E+00 0.  1.
         14    1    6    6    0    0 -0.27915700892E+02 -0.99639967627E+01 -0.77519253198E+02  0.82992784048E+02  0.00000000000E+00 0. -1.
         -5    1    3    3    0  503  0.80679689084E+02 -0.71557167439E+02 -0.11259488414E+03  0.15597864718E+03  0.47000000000E+01 0.  1.
         13    1    4    4    0    0  0.13664044987E+02 -0.35153971228E+02 -0.39420894924E+02  0.54557444727E+02  0.00000000000E+00 0. -1.
        -14    1    4    4    0    0 -0.62465656073E+02 -0.58350389451E+02 -0.21664388157E+03  0.23289761175E+03  0.00000000000E+00 0.  1.
</event>
<event>
12    1  0.1032880E+000  0.2483191E+03  0.7818608E-02  0.1115202E+00
         21   -1    0    0  501  502  0.00000000000E+00  0.00000000000E+00  0.14417415680E+03  0.14417415680E+03  0.00000000000E+00 0.  1.
         21   -1    0    0  502  503 -0.00000000000E+00 -0.00000000000E+00 -0.50489225650E+03  0.50489225650E+03  0.00000000000E+00 0.  1.
         -6    2    1    2    0  503 -0.12356074881E+03  0.12770446034E+03 -0.47972682953E+02  0.25291060376E+03  0.17345520272E+03 0.  0.
        -24    2    3    3    0    0 -0.21250164464E+02  0.23290780256E+02 -0.54953622418E+02  0.10648486909E+03  0.85586779320E+02 0.  0.
          6    2    1    2  501    0  0.12356074881E+03 -0.12770446034E+03 -0.31274541674E+03  0.39615580954E+03  0.16599410201E+03 0.  0.
         24    2    5    5    0    0  0.85331464226E+02 -0.12913779287E+03 -0.15304030148E+03  0.23186537621E+03  0.79888612916E+02 0.  0.
          5    1    5    5  501    0  0.38229284583E+02  0.14333325325E+01 -0.15970511526E+03  0.16429043333E+03  0.47000000000E+01 0. -1.
        -11    1    6    6    0    0 -0.18613992854E+01 -0.20664797814E+02  0.49376793819E+01  0.21327900827E+02  0.00000000000E+00 0.  1.
         12    1    6    6    0    0  0.87192863512E+02 -0.10847299506E+03 -0.15797798086E+03  0.21053747538E+03  0.00000000000E+00 0. -1.
         -5    1    3    3    0  503 -0.10231058435E+03  0.10441368008E+03  0.69809394650E+01  0.14642573467E+03  0.47000000000E+01 0.  1.
         11    1    4    4    0    0 -0.12692093629E+02  0.55873493211E+02 -0.30965905705E+02  0.65129285275E+02  0.00000000000E+00 0. -1.
        -12    1    4    4    0    0 -0.85580708349E+01 -0.32582712955E+02 -0.23987716713E+02  0.41355583819E+02  0.00000000000E+00 0.  1.
</event>
<event>
12    1  0.1032880E+000  0.2058807E+03  0.7818608E-02  0.1148723E+00
         21   -1    0    0  503  502  0.00000000000E+00  0.00000000000E+00  0.91050597621E+03  0.91050597621E+03  0.00000000000E+00 0.  1.
         21   -1    0    0  501  503 -0.00000000000E+00 -0.00000000000E+00 -0.57404623625E+02  0.57404623625E+02  0.00000000000E+00 0.  1.
          6    2    1    2  501    0 -0.76706791225E+01 -0.80703648355E+02  0.68697266205E+03  0.71715989162E+03  0.18924839117E+03 0.  0.
         24    2    3    3    0    0 -0.58457296212E+02  0.12864673262E+02  0.38809511331E+03  0.39985216964E+03  0.75373637899E+02 0.  0.
         -6    2    1    2    0  502  0.76706791225E+01  0.80703648355E+02  0.16612869054E+03  0.25075070822E+03  0.16942626030E+03 0.  0.
        -24    2    5    5    0    0  0.35702063045E+02  0.77223158155E+02  0.42466344596E+02  0.12381632320E+03  0.79303455202E+02 0.  0.
          5    1    3    3  501    0  0.50786617090E+02 -0.93568321617E+02  0.29887754874E+03  0.31730772198E+03  0.47000000000E+01 0. -1.
        -13    1    4    4    0    0 -0.46095710756E+01 -0.78525455535E+01  0.18119742938E+01  0.92840652740E+01  0.00000000000E+00 0.  1.
         14    1    4    4    0    0 -0.53847725137E+02  0.20717218816E+02  0.38628313902E+03  0.39056810436E+03  0.00000000000E+00 0. -1.
         -5    1    5    5    0  502 -0.28031383923E+02  0.34804901992E+01  0.12366234594E+03  0.12693438502E+03  0.47000000000E+01 0.  1.
         11    1    6    6    0    0  0.87115910490E+01  0.85899444930E+02  0.22760256919E+02  0.89289617274E+02  0.00000000000E+00 0. -1.
        -12    1    6    6    0    0  0.26990471996E+02 -0.86762867751E+01  0.19706087676E+02  0.34526705929E+02  0.00000000000E+00 0.  1.
</event>
<event>
12    1  0.1032880E+000  0.3645613E+03  0.7818608E-02  0.1056941E+00
         21   -1    0    0  501  502  0.00000000000E+00  0.00000000000E+00  0.14998467726E+04  0.14998467726E+04  0.00000000000E+00 0. -1.
         21   -1    0    0  502  503 -0.00000000000E+00 -0.00000000000E+00 -0.12925714143E+03  0.12925714143E+03  0.00000000000E+00 0. -1.
         -6    2    1    2    0  503  0.14470897680E+02 -0.31981698277E+03  0.11451230148E+04  0.12017535720E+04  0.17439214262E+03 0.  0.
        -24    2    3    3    0    0  0.71601105098E+01 -0.33628351110E+03  0.10921373664E+04  0.11455916356E+04  0.80487895991E+02 0.  0.
          6    2    1    2  501    0 -0.14470897680E+02  0.31981698277E+03  0.22546661642E+03  0.42735034210E+03  0.17117479495E+03 0.  0.
         24    2    5    5    0    0  0.31501819618E+02  0.13764268560E+03  0.15849082347E+03  0.22782888429E+03  0.82757391536E+02 0.  0.
          5    1    5    5  501    0 -0.45972717298E+02  0.18217429717E+03  0.66975792942E+02  0.19952145780E+03  0.47000000000E+01 0. -1.
        -11    1    6    6    0    0  0.12216686088E+02  0.12972513073E+03  0.95698921626E+02  0.16166675776E+03  0.00000000000E+00 0.  1.
         12    1    6    6    0    0  0.19285133530E+02  0.79175548688E+01  0.62791901847E+02  0.66162126538E+02  0.00000000000E+00 0. -1.
         -5    1    3    3    0  503  0.73107871700E+01  0.16466528334E+02  0.52985648334E+02  0.56161936343E+02  0.47000000000E+01 0.  1.
         11    1    4    4    0    0  0.36051331340E+02 -0.82641108076E+02  0.31019524802E+03  0.32303303722E+03  0.00000000000E+00 0. -1.
        -12    1    4    4    0    0 -0.28891220831E+02 -0.25364240303E+03  0.78194211842E+03  0.82255859841E+03  0.00000000000E+00 0.  1.
</event>
<event>
12    1  0.1032880E+000  0.1954394E+03  0.7818608E-02  0.1154270E+00
         21   -1    0    0  503  502  0.00000000000E+00  0.00000000000E+00  0.20712664645E+03  0.20712664645E+03  0.00000000000E+00 0.  1.
         21   -1    0    0  501  503 -0.00000000000E+00 -0.00000000000E+00 -0.31962918328E+03  0.31962918328E+03  0.00000000000E+00 0.  1.
          6    2    1    2  501    0  0.86604549651E+02  0.41300855850E+01 -0.22948077616E+03  0.30142657336E+03  0.17515463704E+03 0.  0.
         24    2    3    3    0    0  0.12544678383E+03 -0.93089057504E+01 -0.20579468130E+03  0.25375638631E+03  0.78849866454E+02 0.  0.
         -6    2    1    2    0  502 -0.86604549651E+02 -0.41300855850E+01  0.11697823933E+03  0.22532925637E+03  0.17196499549E+03 0.  0.
        -24    2    5    5    0    0 -0.10374713113E+03 -0.49677051659E+02  0.10184666479E+03  0.17414870571E+03  0.81998487137E+02 0.  0.
          5    1    3    3  501    0 -0.38842234183E+02  0.13438991335E+02 -0.23686094858E+02  0.47670187057E+02  0.47000000000E+01 0. -1.
        -13    1    4    4    0    0  0.74618749848E+02 -0.26292928801E+02 -0.17474558148E+03  0.19182099515E+03  0.00000000000E+00 0.  1.
         14    1    4    4    0    0  0.50828033986E+02  0.16984023051E+02 -0.31049099815E+02  0.61935391153E+02  0.00000000000E+00 0. -1.
         -5    1    5    5    0  502  0.17142581475E+02  0.45546966074E+02  0.15131574545E+02  0.51180550665E+02  0.47000000000E+01 0.  1.
         11    1    6    6    0    0 -0.74205611850E+02 -0.28656555797E+00  0.87704947941E+02  0.11488565116E+03  0.00000000000E+00 0. -1.
        -12    1    6    6    0    0 -0.29541519275E+02 -0.49390486101E+02  0.14141716845E+02  0.59263054543E+02  0.00000000000E+00 0.  1.
</event>
<event>
12    1  0.1032880E+000  0.1997686E+03  0.7818608E-02  0.1150311E+00
         21   -1    0    0  501  502  0.00000000000E+00  0.00000000000E+00  0.31328447296E+03  0.31328447296E+03  0.00000000000E+00 0.  1.
         21   -1    0    0  502  503 -0.00000000000E+00 -0.00000000000E+00 -0.12885386952E+03  0.12885386952E+03  0.00000000000E+00 0.  1.
         -6    2    1    2    0  503  0.50661299412E+00 -0.99747965256E+02  0.12319866851E+03  0.23319614530E+03  0.17103396455E+03 0.  0.
        -24    2    3    3    0    0  0.27530620377E+01  0.14664015471E+02  0.32274500286E+02  0.86961941933E+02  0.79360716200E+02 0.  0.
          6    2    1    2  501    0 -0.50661299412E+00  0.99747965256E+02  0.61231934925E+02  0.20894219718E+03  0.17308257763E+03 0.  0.
         24    2    5    5    0    0  0.79275675003E+01  0.11598444334E+03  0.93915345680E+02  0.17119231029E+03  0.83495374274E+02 0.  0.
          5    1    5    5  501    0 -0.84341804944E+01 -0.16236478088E+02 -0.32683410755E+02  0.37749886886E+02  0.47000000000E+01 0. -1.
        -11    1    6    6    0    0 -0.29233087021E+02  0.11909429499E+02  0.29904591434E+02  0.43482093748E+02  0.00000000000E+00 0.  1.
         12    1    6    6    0    0  0.37160654522E+02  0.10407501384E+03  0.64010754245E+02  0.12771021655E+03  0.00000000000E+00 0. -1.
         -5    1    3    3    0  503 -0.22464490436E+01 -0.11441198073E+03  0.90924168225E+02  0.14623420337E+03  0.47000000000E+01 0.  1.
         13    1    4    4    0    0 -0.34267078942E+02 -0.15217566400E+01  0.31470034562E+02  0.46550096861E+02  0.00000000000E+00 0. -1.
        -14    1    4    4    0    0  0.37020140980E+02  0.16185772111E+02  0.80446572491E+00  0.40411845072E+02  0.00000000000E+00 0.  1.
</event>
<event>
12    1  0.1032880E+000  0.1755760E+03  0.7818608E-02  0.1172713E+00
         21   -1    0    0  503  502  0.00000000000E+00  0.00000000000E+00  0.20901169004E+02  0.20901169004E+02  0.00000000000E+00 0. -1.
         21   -1    0    0  501  503 -0.00000000000E+00 -0.00000000000E+00 -0.16991472451E+04  0.16991472451E+04  0.00000000000E+00 0. -1.
          6    2    1    2  501    0  0.16682953072E+02 -0.30897451977E+02 -0.11688032310E+04  0.11819170563E+04  0.17202895584E+03 0.  0.
         24    2    3    3    0    0 -0.22299092184E+01 -0.75994339209E+01 -0.24662122069E+03  0.25923496360E+03  0.79485948221E+02 0.  0.
         -6    2    1    2    0  502 -0.16682953072E+02  0.30897451977E+02 -0.50944284515E+03  0.53813135789E+03  0.16976563964E+03 0.  0.
        -24    2    5    5    0    0  0.18084609018E+02  0.38501912155E+02 -0.48898475367E+03  0.49681266121E+03  0.76858836135E+02 0.  0.
          5    1    3    3  501    0  0.18912862290E+02 -0.23298018056E+02 -0.92218201030E+03  0.92268209267E+03  0.47000000000E+01 0. -1.
        -13    1    4    4    0    0  0.37454210686E+02  0.53406934236E-01 -0.14772890730E+03  0.15240292256E+03  0.00000000000E+00 0.  1.
         14    1    4    4    0    0 -0.39684119905E+02 -0.76528408551E+01 -0.98892313388E+02  0.10683204104E+03  0.00000000000E+00 0. -1.
         -5    1    5    5    0  502 -0.34767562090E+02 -0.76044601778E+01 -0.20458091483E+02  0.41318696681E+02  0.47000000000E+01 0.  1.
         13    1    6    6    0    0  0.74243721121E+01  0.18542891069E+02 -0.23769867278E+02  0.31047813141E+02  0.00000000000E+00 0. -1.
        -14    1    6    6    0    0  0.10660236906E+02  0.19959021086E+02 -0.46521488639E+03  0.46576484806E+03  0.00000000000E+00 0.  1.
</event>
<event>
12    1  0.1032880E+000  0.1913783E+03  0.7818608E-02  0.1157593E+00
         21   -1    0    0  501  502  0.00000000000E+00  0.00000000000E+00  0.40339949712E+03  0.40339949712E+03  0.00000000000E+00 0. -1.
         21   -1    0    0  502  503 -0.00000000000E+00 -0.00000000000E+00 -0.91771276539E+02  0.91771276539E+02  0.00000000000E+00 0. -1.
         -6    2    1    2    0  503  0.51836049611E+02  0.61235626574E+02  0.12220857882E+03  0.22706957212E+03  0.17374946285E+03 0.  0.
        -24    2    3    3    0    0  0.12028582662E+02  0.67489655244E+02  0.84659454743E+01  0.10630855216E+03  0.80810244796E+02 0.  0.
          6    2    1    2  501    0 -0.51836049611E+02 -0.61235626574E+02  0.18941964176E+03  0.26810120155E+03  0.17193509119E+03 0.  0.
         24    2    5    5    0    0 -0.80001600798E+02  0.10441098486E+02  0.11370885348E+03  0.16000372401E+03  0.78499781319E+02 0.  0.
          5    1    5    5  501    0  0.28165551187E+02 -0.71676725060E+02  0.75710788276E+02  0.10809747754E+03  0.47000000000E+01 0. -1.
        -11    1    6    6    0    0 -0.64647962762E+02 -0.18291174037E+02  0.37083038878E+02  0.76740327790E+02  0.00000000000E+00 0.  1.
         12    1    6    6    0    0 -0.15353638037E+02  0.28732272523E+02  0.76625814607E+02  0.83263396216E+02  0.00000000000E+00 0. -1.
         -5    1    3    3    0  503  0.39807466950E+02 -0.62540286699E+01  0.11374263335E+03  0.12076101996E+03  0.47000000000E+01 0.  1.
         13    1    4    4    0    0  0.13887998915E+02  0.34727159752E+02  0.44128145059E+02  0.57845875606E+02  0.00000000000E+00 0. -1.
        -14    1    4    4    0    0 -0.18594162528E+01  0.32762495492E+02 -0.35662199585E+02  0.48462676555E+02  0.00000000000E+00 0.  1.
</event>
<event>
12    1  0.1032880E+000  0.1776459E+03  0.7818608E-02  0.1170391E+00
         21   -1    0    0  503  502  0.00000000000E+00  0.00000000000E+00  0.19315953562E+04  0.19315953562E+04  0.00000000000E+00 0. -1.
         21   -1    0    0  501  503 -0.00000000000E+00 -0.00000000000E+00 -0.18658243760E+02  0.18658243760E+02  0.00000000000E+00 0. -1.
          6    2    1    2  501    0  0.26146484940E+02 -0.15933125572E+02  0.13054882127E+04  0.13173616374E+04  0.17379501455E+03 0.  0.
         24    2    3    3    0    0  0.32446572812E+02  0.30571740051E+02  0.36685900762E+03  0.37754821537E+03  0.77263911894E+02 0.  0.
         -6    2    1    2    0  502 -0.26146484940E+02  0.15933125572E+02  0.60744889974E+03  0.63289196254E+03  0.17498733465E+03 0.  0.
        -24    2    5    5    0    0 -0.16396137724E+02  0.63564631535E+02  0.22735677246E+03  0.24967408085E+03  0.79603699333E+02 0.  0.
          5    1    3    3  501    0 -0.63000878722E+01 -0.46504865624E+02  0.93862920510E+03  0.93981342207E+03  0.47000000000E+01 0. -1.
        -11    1    4    4    0    0  0.26064338290E+02  0.53293063010E+02  0.31545932195E+03  0.32098922739E+03  0.00000000000E+00 0.  1.
         12    1    4    4    0    0  0.63822345223E+01 -0.22721322958E+02  0.51399685669E+02  0.56558987980E+02  0.00000000000E+00 0. -1.
         -5    1    5    5    0  502 -0.97503472165E+01 -0.47631505963E+02  0.38009212728E+03  0.38321788169E+03  0.47000000000E+01 0.  1.
         11    1    6    6    0    0  0.13471297571E+02  0.68780554874E+02  0.18284088890E+03  0.19581376673E+03  0.00000000000E+00 0. -1.
        -12    1    6    6    0    0 -0.29867435295E+02 -0.52159233394E+01  0.44515883558E+02  0.53860314113E+02  0.00000000000E+00 0.  1.
</event>
<event>
12    1  0.1032880E+000  0.2052061E+03  0.7818608E-02  0.1148552E+00
         21   -1    0    0  503  502  0.00000000000E+00  0.00000000000E+00  0.13155313451E+03  0.13155313451E+03  0.00000000000E+00 0.  1.
         21   -1    0    0  501  503 -0.00000000000E+00 -0.00000000000E+00 -0.46069184492E+03  0.46069184492E+03  0.00000000000E+00 0.  1.
          6    2    1    2  501    0  0.49190557224E+02 -0.75199363962E+02  0.76374058907E+01  0.20534816002E+03  0.18448545090E+03 0.  0.
         24    2    3    3    0    0 -0.85381646883E+00 -0.67173510633E+02 -0.59678420855E+02  0.12095405957E+03  0.80965184359E+02 0.  0.
         -6    2    1    2    0  502 -0.49190557224E+02  0.75199363962E+02 -0.33677611631E+03  0.38689681941E+03  0.16791766164E+03 0.  0.
        -24    2    5    5    0    0 -0.74342879424E+00 -0.14078981298E+02 -0.20608692798E+03  0.22130847099E+03  0.79415659961E+02 0.  0.
          5    1    3    3  501    0  0.50044373693E+02 -0.80258533291E+01  0.67315826746E+02  0.84394100448E+02  0.47000000000E+01 0. -1.
        -11    1    4    4    0    0 -0.25419221038E+02 -0.28012340355E+02  0.83192688621E+01  0.38730327197E+02  0.00000000000E+00 0.  1.
         12    1    4    4    0    0  0.24565404569E+02 -0.39161170278E+02 -0.67997689717E+02  0.82223732378E+02  0.00000000000E+00 0. -1.
         -5    1    5    5    0  502 -0.48447128430E+02  0.89278345260E+02 -0.13068918832E+03  0.16558834841E+03  0.47000000000E+01 0.  1.
         13    1    6    6    0    0 -0.37805233024E+02  0.62559990929E+01 -0.93590690970E+02  0.10113155099E+03  0.00000000000E+00 0. -1.
        -14    1    6    6    0    0  0.37061804230E+02 -0.20334980391E+02 -0.11249623702E+03  0.12017692001E+03  0.00000000000E+00 0.  1.
</event>
<event>
12    1  0.1032880E+000  0.1788189E+03  0.7818608E-02  0.1169764E+00
         21   -1    0    0  503  502  0.00000000000E+00  0.00000000000E+00  0.16189170910E+03  0.16189170910E+03  0.00000000000E+00 0. -1.
         21   -1    0    0  501  503 -0.00000000000E+00 -0.00000000000E+00 -0.22449578288E+03  0.22449578288E+03  0.00000000000E+00 0. -1.
          6    2    1    2  501    0  0.48775371334E+02  0.86612243865E+01  0.39775177624E+02  0.18318914313E+03  0.17182009123E+03 0.  0.
         24    2    3    3    0    0  0.94473240424E+02  0.46252329387E+02  0.20115219295E+02  0.12065922728E+03  0.55583774170E+02 0.  0.
         -6    2    1    2    0  502 -0.48775371334E+02 -0.86612243865E+01 -0.10237925140E+03  0.20319834885E+03  0.16838647274E+03 0.  0.
        -24    2    5    5    0    0 -0.79927729954E+02  0.60659782439E+01 -0.23501278356E+02  0.11699403008E+03  0.81914924655E+02 0.  0.
          5    1    3    3  501    0 -0.45697869090E+02 -0.37591105001E+02  0.19659958329E+02  0.62529915848E+02  0.47000000000E+01 0. -1.
        -11    1    4    4    0    0 -0.66504743068E+01  0.85502631706E+01 -0.23149426312E+00  0.10834638821E+02  0.00000000000E+00 0.  1.
         12    1    4    4    0    0  0.10112371473E+03  0.37702066217E+02  0.20346713558E+02  0.10982458846E+03  0.00000000000E+00 0. -1.
         -5    1    5    5    0  502  0.31152358620E+02 -0.14727202630E+02 -0.78877973042E+02  0.86204318779E+02  0.47000000000E+01 0.  1.
         11    1    6    6    0    0 -0.68682128544E+02  0.11193757223E+02  0.19486152785E+02  0.72265103144E+02  0.00000000000E+00 0. -1.
        -12    1    6    6    0    0 -0.11245601410E+02 -0.51277789788E+01 -0.42987431140E+02  0.44728926931E+02  0.00000000000E+00 0.  1.
</event>
<event>
12    1  0.1032880E+000  0.2399724E+03  0.7818608E-02  0.1119868E+00
         21   -1    0    0  503  502  0.00000000000E+00  0.00000000000E+00  0.54002135166E+03  0.54002135166E+03  0.00000000000E+00 0. -1.
         21   -1    0    0  501  503 -0.00000000000E+00 -0.00000000000E+00 -0.10653102574E+03  0.10653102574E+03  0.00000000000E+00 0. -1.
          6    2    1    2  501    0  0.11488298058E+03  0.11951071992E+03  0.22315341368E+03  0.32744681705E+03  0.17304063268E+03 0.  0.
         24    2    3    3    0    0  0.11601354327E+03  0.14012792738E+03  0.14411613395E+03  0.24562182697E+03  0.80409225617E+02 0.  0.
         -6    2    1    2    0  502 -0.11488298058E+03 -0.11951071992E+03  0.21033691224E+03  0.31910556035E+03  0.17351031841E+03 0.  0.
        -24    2    5    5    0    0 -0.21833031644E+02 -0.11946347220E+02  0.13249808694E+03  0.15690395742E+03  0.80272737133E+02 0.  0.
          5    1    3    3  501    0 -0.11305626875E+01 -0.20617207459E+02  0.79037279733E+02  0.81824990089E+02  0.47000000000E+01 0. -1.
        -13    1    4    4    0    0  0.66977846461E+02  0.12196655721E+03  0.13232028078E+03  0.19201700368E+03  0.00000000000E+00 0.  1.
         14    1    4    4    0    0  0.49035696808E+02  0.18161370164E+02  0.11795853166E+02  0.53604823287E+02  0.00000000000E+00 0. -1.
         -5    1    5    5    0  502 -0.93049948937E+02 -0.10756437270E+03  0.77838825298E+02  0.16220160294E+03  0.47000000000E+01 0.  1.
         13    1    6    6    0    0 -0.23047246938E+01 -0.43661739640E+02  0.50205447870E+02  0.66575117425E+02  0.00000000000E+00 0. -1.
        -14    1    6    6    0    0 -0.19528306950E+02  0.31715392420E+02  0.82292639072E+02  0.90328839991E+02  0.00000000000E+00 0.  1.
</event>
<event>
12    1  0.1032880E+000  0.2209410E+03  0.7818608E-02  0.1133253E+00
         21   -1    0    0  501  502  0.00000000000E+00  0.00000000000E+00  0.83953687387E+02  0.83953687387E+02  0.00000000000E+00 0.  1.
         21   -1    0    0  502  503 -0.00000000000E+00 -0.00000000000E+00 -0.84595668411E+03  0.84595668411E+03  0.00000000000E+00 0.  1.
         -6    2    1    2    0  503  0.74804982638E+01 -0.13817310753E+03 -0.12030609009E+03  0.25124268612E+03  0.17176020063E+03 0.  0.
        -24    2    3    3    0    0 -0.19148247222E+02 -0.12508453741E+03 -0.14744667106E+03  0.21075686281E+03  0.81640293633E+02 0.  0.
          6    2    1    2  501    0 -0.74804982638E+01  0.13817310753E+03 -0.64169690663E+03  0.67866768538E+03  0.17224152139E+03 0.  0.
         24    2    5    5    0    0 -0.66408525263E+02  0.10394336824E+03 -0.35404907447E+03  0.38302000186E+03  0.78353421529E+02 0.  0.
          5    1    5    5  501    0  0.58928026999E+02  0.34229739282E+02 -0.28764783216E+03  0.29564768351E+03  0.47000000000E+01 0. -1.
        -11    1    6    6    0    0 -0.20816608087E+02  0.75944163683E+02 -0.28493933595E+03  0.29562014874E+03  0.00000000000E+00 0.  1.
         12    1    6    6    0    0 -0.45591917176E+02  0.27999204562E+02 -0.69109738526E+02  0.87399853129E+02  0.00000000000E+00 0. -1.
         -5    1    3    3    0  503  0.26628745486E+02 -0.13088570118E+02  0.27140580969E+02  0.40485823312E+02  0.47000000000E+01 0.  1.
         11    1    4    4    0    0 -0.44256769983E+02 -0.11554246570E+03 -0.12165180393E+03  0.17351623690E+03  0.00000000000E+00 0. -1.
        -12    1    4    4    0    0  0.25108522760E+02 -0.95420717065E+01 -0.25794867126E+02  0.37240625903E+02  0.00000000000E+00 0.  1.
</event>
<event>
12    1  0.1032880E+000  0.2624575E+03  0.7818608E-02  0.1106343E+00
         21   -1    0    0  501  502  0.00000000000E+00  0.00000000000E+00  0.67026689813E+03  0.67026689813E+03  0.00000000000E+00 0.  1.
         21   -1    0    0  502  503 -0.00000000000E+00 -0.00000000000E+00 -0.18791938712E+03  0.18791938712E+03  0.00000000000E+00 0.  1.
         -6    2    1    2    0  503  0.15975112625E+03 -0.10725348238E+03 -0.51702369751E+02  0.26312898534E+03  0.17187203399E+03 0.  0.
        -24    2    3    3    0    0  0.29299071805E+02 -0.46482936200E+02  0.25131902351E+02  0.99922388780E+02  0.79585000454E+02 0.  0.
          6    2    1    2  501    0 -0.15975112625E+03  0.10725348238E+03  0.53404988077E+03  0.59505729991E+03  0.17849421057E+03 0.  0.
         24    2    5    5    0    0 -0.57723574683E+02  0.23673275172E+02  0.37480181781E+03  0.38823054180E+03  0.79712708647E+02 0.  0.
          5    1    5    5  501    0 -0.10202755156E+03  0.83580207208E+02  0.15924806296E+03  0.20682675811E+03  0.47000000000E+01 0. -1.
        -11    1    6    6    0    0  0.23233285104E+01  0.11591455551E+02  0.23857129546E+03  0.23886402558E+03  0.00000000000E+00 0.  1.
         12    1    6    6    0    0 -0.60046903193E+02  0.12081819621E+02  0.13623052235E+03  0.14936651622E+03  0.00000000000E+00 0. -1.
         -5    1    3    3    0  503  0.13045205444E+03 -0.60770546179E+02 -0.76834272102E+02  0.16320659656E+03  0.47000000000E+01 0.  1.
         11    1    4    4    0    0  0.46183983197E+02 -0.59377266267E+02  0.16636627716E+02  0.77041530586E+02  0.00000000000E+00 0. -1.
        -12    1    4    4    0    0 -0.16884911391E+02  0.12894330067E+02  0.84952746355E+01  0.22880858194E+02  0.00000000000E+00 0.  1.
</event>
<event>
12    1  0.1032880E+000  0.2366145E+03  0.7818608E-02  0.1122121E+00
         21   -1    0    0  503  502  0.00000000000E+00  0.00000000000E+00  0.68597030220E+03  0.68597030220E+03  0.00000000000E+00 0.  1.
         21   -1    0    0  501  503 -0.00000000000E+00 -0.00000000000E+00 -0.10164017519E+03  0.10164017519E+03  0.00000000000E+00 0.  1.
          6    2    1    2  501    0  0.11259946799E+03 -0.11616537956E+03  0.11675758930E+03  0.26357756835E+03  0.17224332869E+03 0.  0.
         24    2    3    3    0    0  0.35851188002E+02  0.78191244769E+01  0.67525366705E+02  0.10960238378E+03  0.78144487923E+02 0.  0.
         -6    2    1    2    0  502 -0.11259946799E+03  0.11616537956E+03  0.46757253772E+03  0.52403290904E+03  0.17266550358E+03 0.  0.
        -24    2    5    5    0    0  0.56440128765E+01  0.28349039914E+02  0.13917726453E+03  0.16409016952E+03  0.81974080215E+02 0.  0.
          5    1    3    3  501    0  0.76748279984E+02 -0.12398450404E+03  0.49232222593E+02  0.15397518457E+03  0.47000000000E+01 0. -1.
        -11    1    4    4    0    0  0.47196282028E+02 -0.21753612542E+02  0.54640983518E+02  0.75407862824E+02  0.00000000000E+00 0.  1.
         12    1    4    4    0    0 -0.11345094025E+02  0.29572737019E+02  0.12884383187E+02  0.34194520955E+02  0.00000000000E+00 0. -1.
         -5    1    5    5    0  502 -0.11824348086E+03  0.87816339650E+02  0.32839527319E+03  0.35994273951E+03  0.47000000000E+01 0.  1.
         13    1    6    6    0    0 -0.13559409078E+02 -0.24886395265E+02  0.30990238067E+02  0.41995060415E+02  0.00000000000E+00 0. -1.
        -14    1    6    6    0    0  0.19203421955E+02  0.53235435179E+02  0.10818702646E+03  0.12209510911E+03  0.00000000000E+00 0.  1.
</event>
<event>
12    1  0.1032880E+000  0.2535059E+03  0.7818608E-02  0.1111111E+00
         21   -1    0    0  503  502  0.00000000000E+00  0.00000000000E+00  0.26245137150E+03  0.26245137150E+03  0.00000000000E+00 0. -1.
         21   -1    0    0  501  503 -0.00000000000E+00 -0.00000000000E+00 -0.24509266883E+03  0.24509266883E+03  0.00000000000E+00 0. -1.
          6    2    1    2  501    0  0.13522895516E+03  0.12769878020E+03  0.69669382184E+00  0.25349119938E+03  0.17223081607E+03 0.  0.
         24    2    3    3    0    0  0.86958909338E+02  0.13877143091E+03  0.42839037805E+02  0.18829405164E+03  0.82462747780E+02 0.  0.
         -6    2    1    2    0  502 -0.13522895516E+03 -0.12769878020E+03  0.16662008848E+02  0.25405284095E+03  0.17225380890E+03 0.  0.
        -24    2    5    5    0    0 -0.58115130146E+01 -0.31013285751E+02  0.28611233384E+02  0.91997809758E+02  0.81543833291E+02 0.  0.
          5    1    3    3  501    0  0.48270045826E+02 -0.11072650712E+02 -0.42142343983E+02  0.65197147746E+02  0.47000000000E+01 0. -1.
        -13    1    4    4    0    0  0.78423449620E+02  0.14995204342E+03  0.38166336710E+02  0.17347196325E+03  0.00000000000E+00 0.  1.
         14    1    4    4    0    0  0.85354597175E+01 -0.11180612508E+02  0.46727010949E+01  0.14822088387E+02  0.00000000000E+00 0. -1.
         -5    1    5    5    0  502 -0.12941744215E+03 -0.96685494447E+02 -0.11949224536E+02  0.16205503120E+03  0.47000000000E+01 0.  1.
         13    1    6    6    0    0 -0.22915241395E+02  0.21088456461E+02  0.18540757433E+02  0.36243495558E+02  0.00000000000E+00 0. -1.
        -14    1    6    6    0    0  0.17103728380E+02 -0.52101742212E+02  0.10070475951E+02  0.55754314200E+02  0.00000000000E+00 0.  1.
</event>
<event>
12    1  0.1032880E+000  0.1891634E+03  0.7818608E-02  0.1159220E+00
         21   -1    0    0  503  502  0.00000000000E+00  0.00000000000E+00  0.39071320392E+03  0.39071320392E+03  0.00000000000E+00 0. -1.
         21   -1    0    0  501  503 -0.00000000000E+00 -0.00000000000E+00 -0.18017706568E+03  0.18017706568E+03  0.00000000000E+00 0. -1.
          6    2    1    2  501    0 -0.27710926068E+02 -0.69926135439E+02  0.30543118636E+03  0.35926450721E+03  0.17356617382E+03 0.  0.
         24    2    3    3    0    0  0.32527291766E+02 -0.10750271740E+02  0.93433478459E+02  0.13102002449E+03  0.85222290919E+02 0.  0.
         -6    2    1    2    0  502  0.27710926068E+02  0.69926135439E+02 -0.94895048128E+02  0.21162576239E+03  0.17355930775E+03 0.  0.
        -24    2    5    5    0    0  0.69212435347E+02  0.36829403013E+02 -0.11027453279E+03  0.15616057044E+03  0.77967204926E+02 0.  0.
          5    1    3    3  501    0 -0.60238217834E+02 -0.59175863699E+02  0.21199770790E+03  0.22824448271E+03  0.47000000000E+01 0. -1.
        -13    1    4    4    0    0  0.67302898737E+01  0.36447868460E+02  0.28833190977E+02  0.46958458439E+02  0.00000000000E+00 0.  1.
         14    1    4    4    0    0  0.25797001893E+02 -0.47198140200E+02  0.64600287482E+02  0.84061566055E+02  0.00000000000E+00 0. -1.
         -5    1    5    5    0  502 -0.41501509280E+02  0.33096732425E+02  0.15379484666E+02  0.55465191953E+02  0.47000000000E+01 0.  1.
         11    1    6    6    0    0  0.17460576951E+02  0.17999027665E+02 -0.96067336880E+02  0.99286302980E+02  0.00000000000E+00 0. -1.
        -12    1    6    6    0    0  0.51751858397E+02  0.18830375348E+02 -0.14207195914E+02  0.56874267459E+02  0.00000000000E+00 0.  1.
</event>
<event>
12    1  0.1032880E+000  0.3599638E+03  0.7818608E-02  0.1059555E+00
         21   -1    0    0  501  502  0.00000000000E+00  0.00000000000E+00  0.97530361551E+03  0.97530361551E+03  0.00000000000E+00 0.  1.
         21   -1    0    0  502  503 -0.00000000000E+00 -0.00000000000E+00 -0.22067989223E+03  0.22067989223E+03  0.00000000000E+00 0. -1.
         -6    2    1    2    0  503 -0.16075373165E+03  0.25973204565E+03  0.76492823478E+03  0.84539288516E+03  0.19045059241E+03 0.  0.
        -24    2    3    3    0    0 -0.21396915972E+02  0.18272644228E+03  0.40786960794E+03  0.45441572723E+03  0.79304825524E+02 0.  0.
          6    2    1    2  501    0  0.16075373165E+03 -0.25973204565E+03 -0.10304511498E+02  0.35059062257E+03  0.17177049775E+03 0.  0.
         24    2    5    5    0    0  0.13523244766E+03 -0.10064745244E+03 -0.30235345306E+02  0.18817580837E+03  0.77963030779E+02 0.  0.
          5    1    5    5  501    0  0.25521283995E+02 -0.15908459321E+03  0.19930833809E+02  0.16241481420E+03  0.47000000000E+01 0. -1.
        -11    1    6    6    0    0  0.46403686916E+01 -0.33208503931E+02  0.11398534979E+02  0.35415594794E+02  0.00000000000E+00 0.  1.
         12    1    6    6    0    0  0.13059207897E+03 -0.67438948506E+02 -0.41633880285E+02  0.15276021358E+03  0.00000000000E+00 0. -1.
         -5    1    3    3    0  503 -0.13935681568E+03  0.77005603370E+02  0.35705862683E+03  0.39097715793E+03  0.47000000000E+01 0.  1.
         11    1    4    4    0    0 -0.44197562952E+02  0.72803184629E+02  0.13853771018E+03  0.16262356964E+03  0.00000000000E+00 0. -1.
        -12    1    4    4    0    0  0.22800646980E+02  0.10992325765E+03  0.26933189777E+03  0.29179215759E+03  0.00000000000E+00 0.  1.
</event>
<event>
12    1  0.1032880E+000  0.3027767E+03  0.7818608E-02  0.1084313E+00
         21   -1    0    0  501  502  0.00000000000E+00  0.00000000000E+00  0.37213912605E+03  0.37213912605E+03  0.00000000000E+00 0.  1.
         21   -1    0    0  502  503 -0.00000000000E+00 -0.00000000000E+00 -0.25400756755E+03  0.25400756755E+03  0.00000000000E+00 0. -1.
         -6    2    1    2    0  503 -0.19634963415E+03 -0.14542271012E+03  0.12341878538E+03  0.32696473329E+03  0.17880938673E+03 0.  0.
        -24    2    3    3    0    0 -0.10781271973E+03  0.34303096452E+01  0.56883287105E+02  0.14137090462E+03  0.71516954370E+02 0.  0.
          6    2    1    2  501    0  0.19634963415E+03  0.14542271012E+03 -0.52872268756E+01  0.29918196031E+03  0.17257157111E+03 0.  0.
         24    2    5    5    0    0  0.19039300513E+03  0.14103975248E+03  0.39928739102E+02  0.25312476406E+03  0.79599835381E+02 0.  0.
          5    1    5    5  501    0  0.59566290204E+01  0.43829576422E+01 -0.45215965978E+02  0.46057196249E+02  0.47000000000E+01 0. -1.
        -13    1    6    6    0    0  0.19882600699E+02  0.91735097025E+01  0.30266324908E+02  0.37356679647E+02  0.00000000000E+00 0.  1.
         14    1    6    6    0    0  0.17051040443E+03  0.13186624278E+03  0.96624141936E+01  0.21576808441E+03  0.00000000000E+00 0. -1.
         -5    1    3    3    0  503 -0.88536914420E+02 -0.14885301977E+03  0.66535498280E+02  0.18559382867E+03  0.47000000000E+01 0.  1.
         11    1    4    4    0    0 -0.35605322671E+02 -0.14920814520E+02  0.54553651819E+02  0.66831658929E+02  0.00000000000E+00 0. -1.
        -12    1    4    4    0    0 -0.72207397058E+02  0.18351124165E+02  0.23296352856E+01  0.74539245694E+02  0.00000000000E+00 0.  1.
</event>
<event>
12    1  0.1032880E+000  0.2115591E+03  0.7818608E-02  0.1141189E+00
         21   -1    0    0  503  502  0.00000000000E+00  0.00000000000E+00  0.60149499628E+03  0.60149499628E+03  0.00000000000E+00 0.  1.
         21   -1    0    0  501  503 -0.00000000000E+00 -0.00000000000E+00 -0.92992138385E+02  0.92992138385E+02  0.00000000000E+00 0. -1.
          6    2    1    2  501    0  0.11076902705E+02  0.11500073594E+03  0.94920865884E+02  0.23187759949E+03  0.17722692607E+03 0.  0.
         24    2    3    3    0    0  0.60151279409E+02  0.34049070380E+02  0.87064397199E+02  0.13677091883E+03  0.79677847419E+02 0.  0.
         -6    2    1    2    0  502 -0.11076902705E+02 -0.11500073594E+03  0.41358199201E+03  0.46260953518E+03  0.17207455037E+03 0.  0.
        -24    2    5    5    0    0  0.38620342939E+01 -0.10181188183E+03  0.14236476420E+03  0.19062057884E+03  0.75418196745E+02 0.  0.
          5    1    3    3  501    0 -0.49074376704E+02  0.80951665557E+02  0.78564686848E+01  0.95106680657E+02  0.47000000000E+01 0. -1.
        -13    1    4    4    0    0  0.74970362513E+02  0.43179890623E+02  0.80478948082E+02  0.11816056573E+03  0.00000000000E+00 0.  1.
         14    1    4    4    0    0 -0.14819083104E+02 -0.91308202428E+01  0.65854491169E+01  0.18610353097E+02  0.00000000000E+00 0. -1.
         -5    1    5    5    0  502 -0.14938936999E+02 -0.13188854108E+02  0.27121722780E+03  0.27198895634E+03  0.47000000000E+01 0.  1.
         11    1    6    6    0    0 -0.26427905691E+01 -0.72761209416E+02  0.38072481323E+02  0.82162593507E+02  0.00000000000E+00 0. -1.
        -12    1    6    6    0    0  0.65048248630E+01 -0.29050672413E+02  0.10429228288E+03  0.10845798533E+03  0.00000000000E+00 0.  1.
</event>
<event>
12    1  0.1032880E+000  0.3346350E+03  0.7818608E-02  0.1069109E+00
         21   -1    0    0  503  502  0.00000000000E+00  0.00000000000E+00  0.75995868756E+03  0.75995868756E+03  0.00000000000E+00 0.  1.
         21   -1    0    0  501  503 -0.00000000000E+00 -0.00000000000E+00 -0.15772012502E+03  0.15772012502E+03  0.00000000000E+00 0.  1.
          6    2    1    2  501    0  0.24788657856E+03 -0.14574048049E+03  0.41888907007E+03  0.53614235847E+03  0.17115061212E+03 0.  0.
         24    2    3    3    0    0  0.21635990168E+03 -0.77018757719E+02  0.23815992725E+03  0.34017879144E+03  0.79107288550E+02 0.  0.
         -6    2    1    2    0  502 -0.24788657856E+03  0.14574048049E+03  0.18334949247E+03  0.38153645412E+03  0.17107011997E+03 0.  0.
        -24    2    5    5    0    0 -0.14343873880E+03  0.15813989357E+03  0.14396913007E+03  0.26912649184E+03  0.78224423751E+02 0.  0.
          5    1    3    3  501    0  0.31526676879E+02 -0.68721722775E+02  0.18072914282E+03  0.19596356702E+03  0.47000000000E+01 0. -1.
        -13    1    4    4    0    0  0.10834239507E+03 -0.28383825341E+01  0.79543288892E+02  0.13443684686E+03  0.00000000000E+00 0.  1.
         14    1    4    4    0    0  0.10801750661E+03 -0.74180375185E+02  0.15861663836E+03  0.20574194459E+03  0.00000000000E+00 0. -1.
         -5    1    5    5    0  502 -0.10444783976E+03 -0.12399413079E+02  0.39380362398E+02  0.11240996227E+03  0.47000000000E+01 0.  1.
         11    1    6    6    0    0 -0.58289030364E+02  0.29562174321E+02  0.12640609820E+02  0.66568147248E+02  0.00000000000E+00 0. -1.
        -12    1    6    6    0    0 -0.85149708438E+02  0.12857771925E+03  0.13132852025E+03  0.20255834460E+03  0.00000000000E+00 0.  1.
</event>
<event>
12    1  0.1032880E+000  0.2607742E+03  0.7818608E-02  0.1106909E+00
         21   -1    0    0  501  502  0.00000000000E+00  0.00000000000E+00  0.65440902690E+03  0.65440902690E+03  0.00000000000E+00 0. -1.
         21   -1    0    0  502  503 -0.00000000000E+00 -0.00000000000E+00 -0.10392020238E+03  0.10392020238E+03  0.00000000000E+00 0. -1.
         -6    2    1    2    0  503 -0.18626174996E+03 -0.57670643585E+02  0.30361384084E+03  0.39923255095E+03  0.17083887953E+03 0.  0.
        -24    2    3    3    0    0 -0.76348803858E+02  0.37046346075E+01  0.22573457974E+03  0.25112769011E+03  0.79159030340E+02 0.  0.
          6    2    1    2  501    0  0.18626174996E+03  0.57670643585E+02  0.24687498368E+03  0.35909667832E+03  0.17315837890E+03 0.  0.
         24    2    5    5    0    0  0.88758528387E+02 -0.34815722635E+02  0.99656701643E+02  0.15970781524E+03  0.80528983374E+02 0.  0.
          5    1    5    5  501    0  0.97503221572E+02  0.92486366220E+02  0.14721828204E+03  0.19938886308E+03  0.47000000000E+01 0. -1.
        -13    1    6    6    0    0  0.40161353276E+02  0.23672909195E+02  0.52583605512E+02  0.70273583197E+02  0.00000000000E+00 0.  1.
         14    1    6    6    0    0  0.48597175112E+02 -0.58488631831E+02  0.47073096131E+02  0.89434232046E+02  0.00000000000E+00 0. -1.
         -5    1    3    3    0  503 -0.10991294610E+03 -0.61375278193E+02  0.77879261103E+02  0.14810486084E+03  0.47000000000E+01 0.  1.
         13    1    4    4    0    0 -0.19932477132E+01 -0.14125432796E+02  0.11888090774E+03  0.11973375094E+03  0.00000000000E+00 0. -1.
        -14    1    4    4    0    0 -0.74355556145E+02  0.17830067403E+02  0.10685367199E+03  0.13139393918E+03  0.00000000000E+00 0.  1.
</event>
<event>
12    1  0.1032880E+000  0.1763312E+03  0.7818608E-02  0.1171581E+00
         21   -1    0    0  501  502  0.00000000000E+00  0.00000000000E+00  0.21266838156E+03  0.21266838156E+03  0.00000000000E+00 0. -1.
         21   -1    0    0  502  503 -0.00000000000E+00 -0.00000000000E+00 -0.14996944425E+03  0.14996944425E+03  0.00000000000E+00 0. -1.
         -6    2    1    2    0  503  0.27231724045E+02  0.22933044028E+02  0.62336040549E+02  0.18702530595E+03  0.17269971572E+03 0.  0.
        -24    2    3    3    0    0 -0.35472577182E+02 -0.19978597384E+02  0.10442368048E+01  0.89290902757E+02  0.79462738433E+02 0.  0.
          6    2    1    2  501    0 -0.27231724045E+02 -0.22933044028E+02  0.36289676268E+00  0.17561251986E+03  0.17196550275E+03 0.  0.
         24    2    5    5    0    0 -0.20885632870E+02  0.26431982668E+02 -0.51168957790E+02  0.10381557865E+03  0.83812605022E+02 0.  0.
          5    1    5    5  501    0 -0.63460911752E+01 -0.49365026696E+02  0.51531854553E+02  0.71796941213E+02  0.47000000000E+01 0. -1.
        -11    1    6    6    0    0  0.14689233554E+02  0.60093782835E+01 -0.59823009223E+02  0.61892476459E+02  0.00000000000E+00 0.  1.
         12    1    6    6    0    0 -0.35574866424E+02  0.20422604384E+02  0.86540514326E+01  0.41923102189E+02  0.00000000000E+00 0. -1.
         -5    1    3    3    0  503  0.62704301227E+02  0.42911641412E+02  0.61291803744E+02  0.97734403191E+02  0.47000000000E+01 0.  1.
         11    1    4    4    0    0 -0.53035715039E+02 -0.10834333222E+02  0.23794911350E+02  0.59130090920E+02  0.00000000000E+00 0. -1.
        -12    1    4    4    0    0  0.17563137857E+02 -0.91442641618E+01 -0.22750674545E+02  0.30160811837E+02  0.00000000000E+00 0.  1.
</event>
<event>
12    1  0.1032880E+000  0.2651676E+03  0.7818608E-02  0.1104209E+00
         21   -1    0    0  501  502  0.00000000000E+00  0.00000000000E+00  0.92125176569E+03  0.92125176569E+03  0.00000000000E+00 0.  1.
         21   -1    0    0  502  503 -0.00000000000E+00 -0.00000000000E+00 -0.10217297432E+03  0.10217297432E+03  0.00000000000E+00 0.  1.
         -6    2    1    2    0  503 -0.90842210239E+02  0.18014726825E+03  0.66768213957E+03  0.71808102901E+03  0.17069147404E+03 0.  0.
        -24    2    3    3    0    0 -0.60683628505E+01  0.15394895028E+03  0.39673418897E+03  0.43293573447E+03  0.79361383323E+02 0.  0.
          6    2    1    2  501    0  0.90842210239E+02 -0.18014726825E+03  0.15139665181E+03  0.30534371100E+03  0.17207117785E+03 0.  0.
         24    2    5    5    0    0  0.84698464411E+02 -0.72168195611E+02  0.25021886375E+02  0.13894089528E+03  0.79349853508E+02 0.  0.
          5    1    5    5  501    0  0.61437458279E+01 -0.10797907264E+03  0.12637476543E+03  0.16640281572E+03  0.47000000000E+01 0. -1.
        -13    1    6    6    0    0  0.77364048764E+02 -0.31103594548E+02  0.42647081283E+02  0.93655769587E+02  0.00000000000E+00 0.  1.
         14    1    6    6    0    0  0.73344156472E+01 -0.41064601063E+02 -0.17625194909E+02  0.45285125691E+02  0.00000000000E+00 0. -1.
         -5    1    3    3    0  503 -0.84773847389E+02  0.26198317970E+02  0.27094795060E+03  0.28514529454E+03  0.47000000000E+01 0.  1.
         11    1    4    4    0    0 -0.12343656336E+02  0.13126767872E+03  0.38436518303E+03  0.40634980405E+03  0.00000000000E+00 0. -1.
        -12    1    4    4    0    0  0.62752934851E+01  0.22681271568E+02  0.12369005938E+02  0.26585930418E+02  0.00000000000E+00 0.  1.
</event>
<event>
12    1  0.1032880E+000  0.3775697E+03  0.7818608E-02  0.1052010E+00
         21   -1    0    0  501  502  0.00000000000E+00  0.00000000000E+00  0.48459381906E+03  0.48459381906E+03  0.00000000000E+00 0.  1.
         21   -1    0    0  502  503 -0.00000000000E+00 -0.00000000000E+00 -0.29840858971E+03  0.29840858971E+03  0.00000000000E+00 0.  1.
         -6    2    1    2    0  503  0.33279850094E+03  0.32499534435E+02  0.38840841282E+02  0.37770100055E+03  0.17128447945E+03 0.  0.
        -24    2    3    3    0    0  0.34703589276E+03  0.40062123636E+02  0.32182111838E+02  0.35963653934E+03  0.79144598644E+02 0.  0.
          6    2    1    2  501    0 -0.33279850094E+03 -0.32499534435E+02  0.14734438807E+03  0.40530140821E+03  0.17535050852E+03 0.  0.
         24    2    5    5    0    0 -0.14569670961E+03 -0.65386656055E+02  0.21377309801E+02  0.17731360614E+03  0.74028234921E+02 0.  0.
          5    1    5    5  501    0 -0.18710179133E+03  0.32887121620E+02  0.12596707827E+03  0.22798780208E+03  0.47000000000E+01 0. -1.
        -13    1    6    6    0    0  0.65247467879E+01 -0.80018629111E+01  0.97807821668E+01  0.14222019213E+02  0.00000000000E+00 0.  1.
         14    1    6    6    0    0 -0.15222145640E+03 -0.57384793144E+02  0.11596527634E+02  0.16309158692E+03  0.00000000000E+00 0. -1.
         -5    1    3    3    0  503 -0.14237391816E+02 -0.75625892012E+01  0.66587294438E+01  0.18064461214E+02  0.47000000000E+01 0.  1.
         13    1    4    4    0    0  0.11322217097E+03  0.41286690181E+01 -0.25533023207E+02  0.11613888746E+03  0.00000000000E+00 0. -1.
        -14    1    4    4    0    0  0.23381372178E+03  0.35933454618E+02  0.57715135045E+02  0.24349765188E+03  0.00000000000E+00 0.  1.
</event>
<event>
12    1  0.1032880E+000  0.1877116E+03  0.7818608E-02  0.1160586E+00
         21   -1    0    0  503  502  0.00000000000E+00  0.00000000000E+00  0.88872403578E+03  0.88872403578E+03  0.00000000000E+00 0. -1.
         21   -1    0    0  501  503 -0.00000000000E+00 -0.00000000000E+00 -0.47572091341E+02  0.47572091341E+02  0.00000000000E+00 0. -1.
          6    2    1    2  501    0  0.20995947491E+02  0.72645464424E+02  0.22882916305E+03  0.29584718783E+03  0.17159422886E+03 0.  0.
         24    2    3    3    0    0 -0.18044108806E+02  0.10419985375E+03  0.13444807207E+03  0.18884398314E+03  0.80016039013E+02 0.  0.
         -6    2    1    2    0  502 -0.20995947491E+02 -0.72645464424E+02  0.61232278140E+03  0.64044893929E+03  0.17180646643E+03 0.  0.
        -24    2    5    5    0    0 -0.12951342107E+02  0.23618677120E+02  0.20365971330E+03  0.22049763991E+03  0.80102129897E+02 0.  0.
          5    1    3    3  501    0  0.39040056298E+02 -0.31554389329E+02  0.94381090972E+02  0.10700320469E+03  0.47000000000E+01 0. -1.
        -11    1    4    4    0    0 -0.42311092406E+02  0.55573883634E+02  0.10746373844E+03  0.12816840548E+03  0.00000000000E+00 0.  1.
         12    1    4    4    0    0  0.24266983600E+02  0.48625970119E+02  0.26984333629E+02  0.60675577660E+02  0.00000000000E+00 0. -1.
         -5    1    5    5    0  502 -0.80446053842E+01 -0.96264141544E+02  0.40866306810E+03  0.41995129938E+03  0.47000000000E+01 0.  1.
         13    1    6    6    0    0 -0.25224138435E+02  0.14343891258E+02  0.20303888195E+03  0.20510190628E+03  0.00000000000E+00 0. -1.
        -14    1    6    6    0    0  0.12272796328E+02  0.92747858620E+01  0.62083134935E+00  0.15395733631E+02  0.00000000000E+00 0.  1.
</event>
<event>
12    1  0.1032880E+000  0.3781377E+03  0.7818608E-02  0.1051632E+00
         21   -1    0    0  501  502  0.00000000000E+00  0.00000000000E+00  0.10238613140E+03  0.10238613140E+03  0.00000000000E+00 0.  1.
         21   -1    0    0  502  503 -0.00000000000E+00 -0.00000000000E+00 -0.14402091090E+04  0.14402091090E+04  0.00000000000E+00 0.  1.
         -6    2    1    2    0  503  0.21204684453E+03 -0.26274448699E+03 -0.53421265974E+03  0.65450076347E+03  0.17026318987E+03 0.  0.
        -24    2    3    3    0    0  0.12303836991E+03 -0.12796384893E+03 -0.39898512861E+03  0.44379503472E+03  0.79067773994E+02 0.  0.
          6    2    1    2  501    0 -0.21204684453E+03  0.26274448699E+03 -0.80361031783E+03  0.88809447690E+03  0.17006977173E+03 0.  0.
         24    2    5    5    0    0 -0.28634655033E+02  0.90534013757E+02 -0.30755806908E+03  0.33186934097E+03  0.80801871917E+02 0.  0.
          5    1    5    5  501    0 -0.18341218950E+03  0.17221047323E+03 -0.49605224875E+03  0.55622513593E+03  0.47000000000E+01 0. -1.
        -11    1    6    6    0    0 -0.29897261459E+02 -0.38731453751E+01 -0.68399897483E+02  0.74748869380E+02  0.00000000000E+00 0.  1.
         12    1    6    6    0    0  0.12626064262E+01  0.94407159132E+02 -0.23915817160E+03  0.25712047159E+03  0.00000000000E+00 0. -1.
         -5    1    3    3    0  503  0.89008474623E+02 -0.13478063806E+03 -0.13522753113E+03  0.21070572875E+03  0.47000000000E+01 0.  1.
         13    1    4    4    0    0  0.49723183999E+02 -0.43210722050E+02 -0.69432888509E+02  0.95710435866E+02  0.00000000000E+00 0. -1.
        -14    1    4    4    0    0  0.73315185912E+02 -0.84753126880E+02 -0.32955224010E+03  0.34808459885E+03  0.00000000000E+00 0.  1.
</event>
<event>
12    1  0.1032880E+000  0.2423218E+03  0.7818608E-02  0.1118787E+00
         21   -1    0    0  501  502  0.00000000000E+00  0.00000000000E+00  0.34844504257E+03  0.34844504257E+03  0.00000000000E+00 0.  1.
         21   -1    0    0  502  503 -0.00000000000E+00 -0.00000000000E+00 -0.17411875181E+03  0.17411875181E+03  0.00000000000E+00 0.  1.
         -6    2    1    2    0  503 -0.38057229659E+02 -0.16497199735E+03  0.14309676825E+03  0.28141878707E+03  0.17336590205E+03 0.  0.
        -24    2    3    3    0    0 -0.15688978977E+01 -0.16314085656E+03  0.15959463526E+03  0.24105765419E+03  0.77594745446E+02 0.  0.
          6    2    1    2  501    0  0.38057229659E+02  0.16497199735E+03  0.31229522507E+02  0.24114500730E+03  0.16885354255E+03 0.  0.
         24    2    5    5    0    0  0.10460142147E+02  0.89768453404E+02  0.82401864804E+02  0.14597215993E+03  0.79686977296E+02 0.  0.
          5    1    5    5  501    0  0.27597087512E+02  0.75203543949E+02 -0.51172342297E+02  0.95172847377E+02  0.47000000000E+01 0. -1.
        -11    1    6    6    0    0 -0.28458864707E+02  0.40428127469E+02  0.10618487668E+02  0.50567704629E+02  0.00000000000E+00 0.  1.
         12    1    6    6    0    0  0.38919006854E+02  0.49340325934E+02  0.71783377136E+02  0.95404455298E+02  0.00000000000E+00 0. -1.
         -5    1    3    3    0  503 -0.36488331762E+02 -0.18311407888E+01 -0.16497867008E+02  0.40361132877E+02  0.47000000000E+01 0.  1.
         11    1    4    4    0    0  0.15779147311E+02 -0.40943477378E+02  0.64205675868E+01  0.44346065415E+02  0.00000000000E+00 0. -1.
        -12    1    4    4    0    0 -0.17348045208E+02 -0.12219737919E+03  0.15317406767E+03  0.19671158878E+03  0.00000000000E+00 0.  1.
</event>
<event>
12    1  0.1032880E+000  0.1864021E+03  0.7818608E-02  0.1161848E+00
         21   -1    0    0  501  502  0.00000000000E+00  0.00000000000E+00  0.18821958399E+03  0.18821958399E+03  0.00000000000E+00 0. -1.
         21   -1    0    0  502  503 -0.00000000000E+00 -0.00000000000E+00 -0.34568708965E+03  0.34568708965E+03  0.00000000000E+00 0. -1.
         -6    2    1    2    0  503 -0.57999466112E+02 -0.45062992339E+02  0.10378973146E+03  0.21296883216E+03  0.17084731126E+03 0.  0.
        -24    2    3    3    0    0  0.18155083437E+02 -0.36933387974E+02  0.10255148112E+03  0.13622751898E+03  0.79670875769E+02 0.  0.
          6    2    1    2  501    0  0.57999466112E+02  0.45062992339E+02 -0.26125723712E+03  0.32093784148E+03  0.17132175226E+03 0.  0.
         24    2    5    5    0    0 -0.24492026617E+02  0.21668357164E+02 -0.65950260865E+02  0.10758587804E+03  0.78459589446E+02 0.  0.
          5    1    5    5  501    0  0.82491492728E+02  0.23394635176E+02 -0.19530697626E+03  0.21335196344E+03  0.47000000000E+01 0. -1.
        -11    1    6    6    0    0 -0.13700650433E+01  0.17955610062E+02  0.14924732990E+02  0.23388643948E+02  0.00000000000E+00 0.  1.
         12    1    6    6    0    0 -0.23121961573E+02  0.37127471012E+01 -0.80874993855E+02  0.84197234094E+02  0.00000000000E+00 0. -1.
         -5    1    3    3    0  503 -0.76154549548E+02 -0.81296043650E+01  0.12382503405E+01  0.76741313176E+02  0.47000000000E+01 0.  1.
         11    1    4    4    0    0  0.46293883084E+01  0.23681178422E+02  0.13472148107E+02  0.27635633196E+02  0.00000000000E+00 0. -1.
        -12    1    4    4    0    0  0.13525695128E+02 -0.60614566396E+02  0.89079333017E+02  0.10859188579E+03  0.00000000000E+00 0.  1.
</event>
<event>
12    1  0.1032880E+000  0.2007394E+03  0.7818608E-02  0.1149238E+00
         21   -1    0    0  501  502  0.00000000000E+00  0.00000000000E+00  0.47455117946E+03  0.47455117946E+03  0.00000000000E+00 0. -1.
         21   -1    0    0  502  503 -0.00000000000E+00 -0.00000000000E+00 -0.10673478165E+03  0.10673478165E+03  0.00000000000E+00 0. -1.
         -6    2    1    2    0  503 -0.45328133528E+02 -0.91831078499E+02  0.31584327672E+03  0.37392756628E+03  0.17198041373E+03 0.  0.
        -24    2    3    3    0    0 -0.31962492063E+02 -0.12741804875E+03  0.20181464286E+03  0.25363753276E+03  0.79661081507E+02 0.  0.
          6    2    1    2  501    0  0.45328133528E+02  0.91831078499E+02  0.51973121096E+02  0.20735839483E+03  0.17265199658E+03 0.  0.
         24    2    5    5    0    0  0.30095174178E+02  0.44739978949E+02 -0.37982839474E+02  0.10457814600E+03  0.81157299743E+02 0.  0.
          5    1    5    5  501    0  0.15232959350E+02  0.47091099550E+02  0.89955960569E+02  0.10278024883E+03  0.47000000000E+01 0. -1.
        -11    1    6    6    0    0  0.47099456994E+02  0.49868833468E+02 -0.71118577882E+01  0.68962583491E+02  0.00000000000E+00 0.  1.
         12    1    6    6    0    0 -0.17004282816E+02 -0.51288545189E+01 -0.30870981686E+02  0.35615562511E+02  0.00000000000E+00 0. -1.
         -5    1    3    3    0  503 -0.13365641465E+02  0.35586970252E+02  0.11402863386E+03  0.12029003352E+03  0.47000000000E+01 0.  1.
         11    1    4    4    0    0 -0.33633883725E+01  0.10404695098E+02  0.59746900606E+01  0.12460617270E+02  0.00000000000E+00 0. -1.
        -12    1    4    4    0    0 -0.28599103690E+02 -0.13782274385E+03  0.19583995280E+03  0.24117691549E+03  0.00000000000E+00 0.  1.
</event>
<event>
12    1  0.1032880E+000  0.1894010E+03  0.7818608E-02  0.1159075E+00
         21   -1    0    0  501  502  0.00000000000E+00  0.00000000000E+00  0.15853839860E+03  0.15853839860E+03  0.00000000000E+00 0. -1.
         21   -1    0    0  502  503 -0.00000000000E+00 -0.00000000000E+00 -0.27151906177E+03  0.27151906177E+03  0.00000000000E+00 0. -1.
         -6    2    1    2    0  503 -0.60301188550E+01  0.78094637426E+02  0.31616838638E+02  0.19202179761E+03  0.17244596703E+03 0.  0.
        -24    2    3    3    0    0 -0.32684599999E+02 -0.12220996659E+02 -0.13289935792E+02  0.87589601837E+02  0.79231812551E+02 0.  0.
          6    2    1    2  501    0  0.60301188550E+01 -0.78094637426E+02 -0.14459750181E+03  0.23803566276E+03  0.17209707867E+03 0.  0.
         24    2    5    5    0    0 -0.48195245678E+01 -0.11870132432E+03 -0.12969480493E+03  0.19319373866E+03  0.79936512433E+02 0.  0.
          5    1    5    5  501    0  0.10849643423E+02  0.40606686890E+02 -0.14902696878E+02  0.44841924098E+02  0.47000000000E+01 0. -1.
        -13    1    6    6    0    0 -0.71648222161E+01 -0.11814993867E+03 -0.78700548059E+02  0.14214260076E+03  0.00000000000E+00 0.  1.
         14    1    6    6    0    0  0.23452976483E+01 -0.55138564502E+00 -0.50994256873E+02  0.51051137904E+02  0.00000000000E+00 0. -1.
         -5    1    3    3    0  503  0.26654481144E+02  0.90315634084E+02  0.44906774430E+02  0.10443219578E+03  0.47000000000E+01 0.  1.
         11    1    4    4    0    0  0.10088854748E+02  0.26774592876E+02 -0.26064248300E+01  0.28730772078E+02  0.00000000000E+00 0. -1.
        -12    1    4    4    0    0 -0.42773454747E+02 -0.38995589535E+02 -0.10683510962E+02  0.58858829759E+02  0.00000000000E+00 0.  1.
</event>
<event>
12    1  0.1032880E+000  0.1751434E+03  0.7818608E-02  0.1174484E+00
         21   -1    0    0  503  502  0.00000000000E+00  0.00000000000E+00  0.29938107325E+03  0.29938107325E+03  0.00000000000E+00 0. -1.
         21   -1    0    0  501  503 -0.00000000000E+00 -0.00000000000E+00 -0.11864193363E+03  0.11864193363E+03  0.00000000000E+00 0. -1.
          6    2    1    2  501    0  0.12141366647E+02  0.24636971073E+02  0.19844128883E+01  0.16776624540E+03  0.16549073108E+03 0.  0.
         24    2    3    3    0    0  0.21526800161E+02 -0.20504504402E+02  0.50840450440E+02  0.10042501304E+03  0.81342449045E+02 0.  0.
         -6    2    1    2    0  502 -0.12141366647E+02 -0.24636971073E+02  0.17875472673E+03  0.25025676149E+03  0.17297630246E+03 0.  0.
        -24    2    5    5    0    0  0.59764763095E+02 -0.24518398532E+02  0.87045457363E+02  0.13362406606E+03  0.78137702864E+02 0.  0.
          5    1    3    3  501    0 -0.93854335133E+01  0.45141475476E+02 -0.48856037552E+02  0.67341232359E+02  0.47000000000E+01 0. -1.
        -13    1    4    4    0    0 -0.21645927879E+02  0.15570440928E+02  0.30711632917E+02  0.40671725079E+02  0.00000000000E+00 0.  1.
         14    1    4    4    0    0  0.43172728040E+02 -0.36074945330E+02  0.20128817523E+02  0.59753287958E+02  0.00000000000E+00 0. -1.
         -5    1    5    5    0  502 -0.71906129742E+02 -0.11857254142E+00  0.91709269371E+02  0.11663269543E+03  0.47000000000E+01 0.  1.
         13    1    6    6    0    0  0.61315545537E+02 -0.42744583433E+02  0.87812703671E+02  0.11531594193E+03  0.00000000000E+00 0. -1.
        -14    1    6    6    0    0 -0.15507824428E+01  0.18226184901E+02 -0.76724630857E+00  0.18308124130E+02  0.00000000000E+00 0.  1.
</event>
<event>
12    1  0.1032880E+000  0.1877771E+03  0.7818608E-02  0.1160685E+00
         21   -1    0    0  503  502  0.00000000000E+00  0.00000000000E+00  0.47862379921E+03  0.47862379921E+03  0.00000000000E+00 0. -1.
         21   -1    0    0  501  503 -0.00000000000E+00 -0.00000000000E+00 -0.75898922191E+02  0.75898922191E+02  0.00000000000E+00 0. -1.
          6    2    1    2  501    0  0.31233833640E+02 -0.65715747375E+02  0.15074517352E+03  0.24079939569E+03  0.17310727832E+03 0.  0.
         24    2    3    3    0    0  0.39134703741E+02 -0.10914446146E+03  0.96307310760E+02  0.17055661772E+03  0.79814931167E+02 0.  0.
         -6    2    1    2    0  502 -0.31233833640E+02  0.65715747375E+02  0.25197970349E+03  0.31372332570E+03  0.17214657215E+03 0.  0.
        -24    2    5    5    0    0 -0.26451999207E+02 -0.22629435757E+02  0.82054828629E+02  0.12208749810E+03  0.83429986617E+02 0.  0.
          5    1    3    3  501    0 -0.79008701018E+01  0.43428714085E+02  0.54437862764E+02  0.70242777976E+02  0.47000000000E+01 0. -1.
        -11    1    4    4    0    0 -0.18634620400E+02 -0.16363332157E+01  0.12072966704E+02  0.22263943695E+02  0.00000000000E+00 0.  1.
         12    1    4    4    0    0  0.57769324141E+02 -0.10750812824E+03  0.84234344056E+02  0.14829267402E+03  0.00000000000E+00 0. -1.
         -5    1    5    5    0  502 -0.47818344328E+01  0.88345183132E+02  0.16992487486E+03  0.19163582760E+03  0.47000000000E+01 0.  1.
         11    1    6    6    0    0  0.25695482574E+02 -0.17109548267E+02  0.89908545016E+01  0.32153225830E+02  0.00000000000E+00 0. -1.
        -12    1    6    6    0    0 -0.52147481781E+02 -0.55198874897E+01  0.73063974127E+02  0.89934272272E+02  0.00000000000E+00 0.  1.
</event>
<event>
12    1  0.1032880E+000  0.2156579E+03  0.7818608E-02  0.1137336E+00
         21   -1    0    0  503  502  0.00000000000E+00  0.00000000000E+00  0.30718416483E+03  0.30718416483E+03  0.00000000000E+00 0.  1.
         21   -1    0    0  501  503 -0.00000000000E+00 -0.00000000000E+00 -0.15803295068E+03  0.15803295068E+03  0.00000000000E+00 0.  1.
          6    2    1    2  501    0 -0.95616384934E+02 -0.87901053830E+02  0.12460808379E+03  0.24906924145E+03  0.17216046049E+03 0.  0.
         24    2    3    3    0    0 -0.12693218085E+03 -0.10111669545E+03  0.11449452143E+03  0.21329625722E+03  0.77781316975E+02 0.  0.
         -6    2    1    2    0  502  0.95616384934E+02  0.87901053830E+02  0.24543130364E+02  0.21614787406E+03  0.17102178189E+03 0.  0.
        -24    2    5    5    0    0  0.58879650824E+02 -0.89833176077E+01  0.43616080327E+02  0.11068680787E+03  0.82472381422E+02 0.  0.
          5    1    3    3  501    0  0.31315795918E+02  0.13215641616E+02  0.10113562353E+02  0.35772984230E+02  0.47000000000E+01 0. -1.
        -11    1    4    4    0    0 -0.53998738046E+01  0.45476674306E+01 -0.82135579701E+01  0.10830625591E+02  0.00000000000E+00 0.  1.
         12    1    4    4    0    0 -0.12153230705E+03 -0.10566436288E+03  0.12270807940E+03  0.20246563163E+03  0.00000000000E+00 0. -1.
         -5    1    5    5    0  502  0.36736734110E+02  0.96884371437E+02 -0.19072949964E+02  0.10546106619E+03  0.47000000000E+01 0.  1.
         13    1    6    6    0    0  0.76277741285E+02 -0.88492053917E+01  0.16616029719E+02  0.78566498556E+02  0.00000000000E+00 0. -1.
        -14    1    6    6    0    0 -0.17398090461E+02 -0.13411221606E+00  0.27000050608E+02  0.32120309317E+02  0.00000000000E+00 0.  1.
</event>
<event>
12    1  0.1032880E+000  0.1971195E+03  0.7818608E-02  0.1152631E+00
         21   -1    0    0  501  502  0.00000000000E+00  0.00000000000E+00  0.30474983785E+03  0.30474983785E+03  0.00000000000E+00 0.  1.
         21   -1    0    0  502  503 -0.00000000000E+00 -0.00000000000E+00 -0.13241163425E+03  0.13241163425E+03  0.00000000000E+00 0.  1.
         -6    2    1    2    0  503 -0.35498101002E+02  0.86502762555E+02  0.39226547343E+02  0.20098466336E+03  0.17353175440E+03 0.  0.
        -24    2    3    3    0    0 -0.83061993672E+02  0.87583895350E+02  0.44258140894E+02  0.15291284555E+03  0.82784791969E+02 0.  0.
          6    2    1    2  501    0  0.35498101002E+02 -0.86502762555E+02  0.13311165626E+03  0.23617680874E+03  0.17122479040E+03 0.  0.
         24    2    5    5    0    0  0.56937851802E+02 -0.18548632354E+02  0.21008858424E+02  0.10326121895E+03  0.81458802325E+02 0.  0.
          5    1    5    5  501    0 -0.21439750800E+02 -0.67954130201E+02  0.11210279784E+03  0.13291558979E+03  0.47000000000E+01 0. -1.
        -13    1    6    6    0    0 -0.45551796192E+00 -0.13089598857E+02  0.40372479732E+02  0.42443871343E+02  0.00000000000E+00 0.  1.
         14    1    6    6    0    0  0.57393369764E+02 -0.54590334965E+01 -0.19363621307E+02  0.60817347605E+02  0.00000000000E+00 0. -1.
         -5    1    3    3    0  503  0.47563892670E+02 -0.10811327951E+01 -0.50315935512E+01  0.48071817811E+02  0.47000000000E+01 0.  1.
         11    1    4    4    0    0 -0.29196895005E+02  0.12899941837E+02  0.51453141552E+02  0.60549921164E+02  0.00000000000E+00 0. -1.
        -12    1    4    4    0    0 -0.53865098667E+02  0.74683953513E+02 -0.71950006580E+01  0.92362924386E+02  0.00000000000E+00 0.  1.
</event>
<event>
12    1  0.1032880E+000  0.2510597E+03  0.7818608E-02  0.1112713E+00
         21   -1    0    0  501  502  0.00000000000E+00  0.00000000000E+00  0.42601551053E+03  0.42601551053E+03  0.00000000000E+00 0. -1.
         21   -1    0    0  502  503 -0.00000000000E+00 -0.00000000000E+00 -0.19309463014E+03  0.19309463014E+03  0.00000000000E+00 0. -1.
         -6    2    1    2    0  503 -0.14731391765E+03  0.10869623957E+03  0.26651319190E+03  0.36581306849E+03  0.17109546105E+03 0.  0.
        -24    2    3    3    0    0 -0.15768365614E+03  0.41526891252E+02  0.18227847722E+03  0.25747641732E+03  0.80498721142E+02 0.  0.
          6    2    1    2  501    0  0.14731391765E+03 -0.10869623957E+03 -0.33592311511E+02  0.25329707218E+03  0.17179843001E+03 0.  0.
         24    2    5    5    0    0  0.34603557312E+01 -0.29608011874E+02 -0.11837688912E+02  0.87634316439E+02  0.81553872441E+02 0.  0.
          5    1    5    5  501    0  0.14385356192E+03 -0.79088227695E+02 -0.21754622599E+02  0.16566275574E+03  0.47000000000E+01 0. -1.
        -13    1    6    6    0    0  0.32741276924E+02 -0.18731669232E+02 -0.32824409130E+02  0.50003084721E+02  0.00000000000E+00 0.  1.
         14    1    6    6    0    0 -0.29280921193E+02 -0.10876342642E+02  0.20986720218E+02  0.37631231719E+02  0.00000000000E+00 0. -1.
         -5    1    3    3    0  503  0.10369738497E+02  0.67169348317E+02  0.84234714676E+02  0.10833665117E+03  0.47000000000E+01 0.  1.
         11    1    4    4    0    0 -0.30778010770E+02 -0.21415039975E+02  0.21606424312E+02  0.43275021151E+02  0.00000000000E+00 0. -1.
        -12    1    4    4    0    0 -0.12690564537E+03  0.62941931227E+02  0.16067205291E+03  0.21420139617E+03  0.00000000000E+00 0.  1.
</event>
<event>
12    1  0.1032880E+000  0.1851465E+03  0.7818608E-02  0.1162927E+00
         21   -1    0    0  503  502  0.00000000000E+00  0.00000000000E+00  0.64811895749E+02  0.64811895749E+02  0.00000000000E+00 0. -1.
         21   -1    0    0  501  503 -0.00000000000E+00 -0.00000000000E+00 -0.62014972376E+03  0.62014972376E+03  0.00000000000E+00 0. -1.
          6    2    1    2  501    0 -0.65075460820E+02  0.18021135770E+02 -0.40912217347E+03  0.44904158679E+03  0.17233054548E+03 0.  0.
         24    2    3    3    0    0 -0.61949299072E+02  0.55216763795E+02 -0.15679319894E+03  0.19392340042E+03  0.78329887880E+02 0.  0.
         -6    2    1    2    0  502  0.65075460820E+02 -0.18021135770E+02 -0.14621565454E+03  0.23592003272E+03  0.17239393049E+03 0.  0.
        -24    2    5    5    0    0  0.94404122564E+02 -0.26953689631E+02 -0.15792561085E+03  0.20276623965E+03  0.80839406460E+02 0.  0.
          5    1    3    3  501    0 -0.31261617477E+01 -0.37195628025E+02 -0.25232897452E+03  0.25511818637E+03  0.47000000000E+01 0. -1.
        -13    1    4    4    0    0 -0.15641337521E+02  0.48156709405E+02 -0.30233060788E+02  0.58972519573E+02  0.00000000000E+00 0.  1.
         14    1    4    4    0    0 -0.46307961551E+02  0.70600543899E+01 -0.12656013815E+03  0.13495088084E+03  0.00000000000E+00 0. -1.
         -5    1    5    5    0  502 -0.29328661745E+02  0.89325538605E+01  0.11709956311E+02  0.33153793071E+02  0.47000000000E+01 0.  1.
         11    1    6    6    0    0 -0.13952990617E+02  0.35902455456E+01 -0.14591283088E+02  0.20505641964E+02  0.00000000000E+00 0. -1.
        -12    1    6    6    0    0  0.10835711318E+03 -0.30543935176E+02 -0.14333432777E+03  0.18226059769E+03  0.00000000000E+00 0.  1.
</event>
<event>
12    1  0.1032880E+000  0.3119592E+03  0.7818608E-02  0.1079881E+00
         21   -1    0    0  503  502  0.00000000000E+00  0.00000000000E+00  0.51374041266E+03  0.51374041266E+03  0.00000000000E+00 0. -1.
         21   -1    0    0  501  503 -0.00000000000E+00 -0.00000000000E+00 -0.20779534765E+03  0.20779534765E+03  0.00000000000E+00 0.  1.
          6    2    1    2  501    0 -0.25435328686E+03 -0.19330661594E+02  0.39863543401E+02  0.31449589017E+03  0.17958088381E+03 0.  0.
         24    2    3    3    0    0 -0.15002689656E+03  0.61507507472E+02  0.25201075687E+02  0.18162044756E+03  0.77843751123E+02 0.  0.
         -6    2    1    2    0  502  0.25435328686E+03  0.19330661594E+02  0.26608152161E+03  0.40703987014E+03  0.17266386632E+03 0.  0.
        -24    2    5    5    0    0  0.19678856928E+03  0.25186094536E+02  0.27541510924E+03  0.34824200740E+03  0.77839148018E+02 0.  0.
          5    1    3    3  501    0 -0.10432639030E+03 -0.80838169066E+02  0.14662467714E+02  0.13287544261E+03  0.47000000000E+01 0. -1.
        -11    1    4    4    0    0 -0.67462172788E+02  0.49056079968E+02 -0.21242323181E+02  0.86074851340E+02  0.00000000000E+00 0.  1.
         12    1    4    4    0    0 -0.82564723771E+02  0.12451427504E+02  0.46443398868E+02  0.95545596218E+02  0.00000000000E+00 0. -1.
         -5    1    5    5    0  502  0.57564717579E+02 -0.58554329427E+01 -0.93335876353E+01  0.58797862742E+02  0.47000000000E+01 0.  1.
         13    1    6    6    0    0  0.11377022384E+03 -0.24398479234E+02  0.14624167774E+03  0.18688386214E+03  0.00000000000E+00 0. -1.
        -14    1    6    6    0    0  0.83018345440E+02  0.49584573771E+02  0.12917343150E+03  0.16135814526E+03  0.00000000000E+00 0.  1.
</event>
<event>
12    1  0.1032880E+000  0.2379537E+03  0.7818608E-02  0.1121243E+00
         21   -1    0    0  503  502  0.00000000000E+00  0.00000000000E+00  0.14600388753E+03  0.14600388753E+03  0.00000000000E+00 0.  1.
         21   -1    0    0  501  503 -0.00000000000E+00 -0.00000000000E+00 -0.41187337762E+03  0.41187337762E+03  0.00000000000E+00 0.  1.
          6    2    1    2  501    0  0.15963839097E+03 -0.40964318744E+02 -0.64328635633E+02  0.24604292388E+03  0.17098671219E+03 0.  0.
         24    2    3    3    0    0  0.12627047993E+03 -0.93209190985E+02 -0.58796097120E+02  0.18362783639E+03  0.75033418402E+02 0.  0.
         -6    2    1    2    0  502 -0.15963839097E+03  0.40964318744E+02 -0.20154085446E+03  0.31183434127E+03  0.17163755153E+03 0.  0.
        -24    2    5    5    0    0 -0.20482905950E+02 -0.67394882381E+01 -0.94674567728E+02  0.12994867539E+03  0.86362111621E+02 0.  0.
          5    1    3    3  501    0  0.33367911047E+02  0.52244872241E+02 -0.55325385133E+01  0.62415087483E+02  0.47000000000E+01 0. -1.
        -13    1    4    4    0    0  0.11179523126E+03 -0.58376236426E+02 -0.70046035141E+02  0.14426505381E+03  0.00000000000E+00 0.  1.
         14    1    4    4    0    0  0.14475248668E+02 -0.34832954559E+02  0.11249938022E+02  0.39362782585E+02  0.00000000000E+00 0. -1.
         -5    1    5    5    0  502 -0.13915548502E+03  0.47703806982E+02 -0.10686628673E+03  0.18188566588E+03  0.47000000000E+01 0.  1.
         13    1    6    6    0    0 -0.52013918024E+02  0.97692777797E+01 -0.49766506108E+02  0.72647034260E+02  0.00000000000E+00 0. -1.
        -14    1    6    6    0    0  0.31531012074E+02 -0.16508766018E+02 -0.44908061621E+02  0.57301641132E+02  0.00000000000E+00 0.  1.
</event>
<event>
12    1  0.1032880E+000  0.2326502E+03  0.7818608E-02  0.1124817E+00
         21   -1    0    0  503  502  0.00000000000E+00  0.00000000000E+00  0.28014450781E+03  0.28014450781E+03  0.00000000000E+00 0. -1.
         21   -1    0    0  501  503 -0.00000000000E+00 -0.00000000000E+00 -0.19736214404E+03  0.19736214404E+03  0.00000000000E+00 0. -1.
          6    2    1    2  501    0 -0.22321529913E+02  0.15460348057E+03  0.76618518768E+02  0.24494181633E+03  0.17241116283E+03 0.  0.
         24    2    3    3    0    0  0.64639043421E+01  0.10658623119E+03  0.11594771874E+03  0.17636242122E+03  0.79103877267E+02 0.  0.
         -6    2    1    2    0  502  0.22321529913E+02 -0.15460348057E+03  0.61638449995E+01  0.23256483552E+03  0.17218572192E+03 0.  0.
        -24    2    5    5    0    0 -0.48865472601E+02 -0.72868172492E+02  0.27188372168E+02  0.12205524021E+03  0.80378287526E+02 0.  0.
          5    1    3    3  501    0 -0.28785434255E+02  0.48017249385E+02 -0.39329199974E+02  0.68579395115E+02  0.47000000000E+01 0. -1.
        -11    1    4    4    0    0  0.17181790604E+02  0.11635472245E+03  0.96708739395E+02  0.15227020601E+03  0.00000000000E+00 0.  1.
         12    1    4    4    0    0 -0.10717886262E+02 -0.97684912557E+01  0.19238979346E+02  0.24092215207E+02  0.00000000000E+00 0. -1.
         -5    1    5    5    0  502  0.71187002514E+02 -0.81735308082E+02 -0.21024527169E+02  0.11050959532E+03  0.47000000000E+01 0.  1.
         13    1    6    6    0    0 -0.18410028442E+02  0.10555780065E+02  0.25572693753E+02  0.33231254954E+02  0.00000000000E+00 0. -1.
        -14    1    6    6    0    0 -0.30455444159E+02 -0.83423952558E+02  0.16156784151E+01  0.88823985252E+02  0.00000000000E+00 0.  1.
</event>
<event>
12    1  0.1032880E+000  0.1749904E+03  0.7818608E-02  0.1173449E+00
         21   -1    0    0  503  502  0.00000000000E+00  0.00000000000E+00  0.28725243864E+03  0.28725243864E+03  0.00000000000E+00 0.  1.
         21   -1    0    0  501  503 -0.00000000000E+00 -0.00000000000E+00 -0.14107605671E+03  0.14107605671E+03  0.00000000000E+00 0.  1.
          6    2    1    2  501    0  0.23420611422E+01 -0.96154793765E+01 -0.34911908292E+02  0.17843905153E+03  0.17471036339E+03 0.  0.
         24    2    3    3    0    0 -0.64568193602E+02 -0.19394597468E+00 -0.10702347295E+01  0.10272183848E+03  0.79884550816E+02 0.  0.
         -6    2    1    2    0  502 -0.23420611422E+01  0.96154793765E+01  0.18108829023E+03  0.24988944382E+03  0.17191225257E+03 0.  0.
        -24    2    5    5    0    0 -0.18499940059E+02  0.10129213450E+02  0.20456708241E+03  0.22099853425E+03  0.80918552790E+02 0.  0.
          5    1    3    3  501    0  0.66910254744E+02 -0.94215334018E+01 -0.33841673562E+02  0.75717213043E+02  0.47000000000E+01 0. -1.
        -13    1    4    4    0    0  0.60978562048E+01  0.22449706732E+02 -0.14356539791E+02  0.27336485096E+02  0.00000000000E+00 0.  1.
         14    1    4    4    0    0 -0.70666049807E+02 -0.22643652706E+02  0.13286305062E+02  0.75385353388E+02  0.00000000000E+00 0. -1.
         -5    1    5    5    0  502  0.16157878916E+02 -0.51373407358E+00 -0.23478792185E+02  0.28890909578E+02  0.47000000000E+01 0.  1.
         13    1    6    6    0    0 -0.46431967178E+02  0.19942920830E+02  0.96262558605E+02  0.10872041141E+03  0.00000000000E+00 0. -1.
        -14    1    6    6    0    0  0.27932027120E+02 -0.98137073795E+01  0.10830452381E+03  0.11227812284E+03  0.00000000000E+00 0.  1.
</event>
<event>
12    1  0.1032880E+000  0.2311310E+03  0.7818608E-02  0.1126105E+00
         21   -1    0    0  503  502  0.00000000000E+00  0.00000000000E+00  0.37159806888E+02  0.37159806888E+02  0.00000000000E+00 0. -1.
         21   -1    0    0  501  503 -0.00000000000E+00 -0.00000000000E+00 -0.23044730975E+04  0.23044730975E+04  0.00000000000E+00 0. -1.
          6    2    1    2  501    0  0.14971687448E+03  0.34998302173E+02 -0.40954454997E+03  0.46954149946E+03  0.17059442443E+03 0.  0.
         24    2    3    3    0    0  0.13461845656E+03  0.33534620656E+02 -0.16897695763E+03  0.22845031117E+03  0.66254304262E+02 0.  0.
         -6    2    1    2    0  502 -0.14971687448E+03 -0.34998302173E+02 -0.18577687407E+04  0.18720914050E+04  0.17257320488E+03 0.  0.
        -24    2    5    5    0    0 -0.52435307936E+02 -0.29610147752E+01 -0.13859805484E+04  0.13892909500E+04  0.80181257101E+02 0.  0.
          5    1    3    3  501    0  0.15098417914E+02  0.14636815161E+01 -0.24056759234E+03  0.24109118829E+03  0.47000000000E+01 0. -1.
        -13    1    4    4    0    0  0.77926929913E+02  0.41190848518E+01 -0.13543909456E+03  0.15631161698E+03  0.00000000000E+00 0.  1.
         14    1    4    4    0    0  0.56691526649E+02  0.29415535805E+02 -0.33537863064E+02  0.72138694190E+02  0.00000000000E+00 0. -1.
         -5    1    5    5    0  502 -0.97281566540E+02 -0.32037287397E+02 -0.47178819227E+03  0.48280045499E+03  0.47000000000E+01 0.  1.
         13    1    6    6    0    0  0.16004395340E+01 -0.69224400303E+01 -0.10126106499E+02  0.12370109761E+02  0.00000000000E+00 0. -1.
        -14    1    6    6    0    0 -0.54035747470E+02  0.39614252551E+01 -0.13758544419E+04  0.13769208402E+04  0.00000000000E+00 0.  1.
</event>
<event>
12    1  0.1032880E+000  0.2354881E+03  0.7818608E-02  0.1123096E+00
         21   -1    0    0  503  502  0.00000000000E+00  0.00000000000E+00  0.17733357570E+04  0.17733357570E+04  0.00000000000E+00 0. -1.
         21   -1    0    0  501  503 -0.00000000000E+00 -0.00000000000E+00 -0.70523846842E+02  0.70523846842E+02  0.00000000000E+00 0. -1.
          6    2    1    2  501    0  0.16024821960E+03  0.12101806345E+02  0.15397555816E+04  0.15574298571E+04  0.17004282729E+03 0.  0.
         24    2    3    3    0    0  0.87597332895E+02 -0.50545791986E+02  0.65660337110E+03  0.66907025096E+03  0.79365256604E+02 0.  0.
         -6    2    1    2    0  502 -0.16024821960E+03 -0.12101806345E+02  0.16305632854E+03  0.28642974673E+03  0.17212985776E+03 0.  0.
        -24    2    5    5    0    0 -0.48814927098E+02 -0.63768329502E+02  0.62398596295E+02  0.12755596867E+03  0.76991190205E+02 0.  0.
          5    1    3    3  501    0  0.72650886703E+02  0.62647598330E+02  0.88315221054E+03  0.88835960619E+03  0.47000000000E+01 0. -1.
        -13    1    4    4    0    0  0.82335885988E+02 -0.56125429666E+02  0.65306661895E+03  0.66062490929E+03  0.00000000000E+00 0.  1.
         14    1    4    4    0    0  0.52614469074E+01  0.55796376802E+01  0.35367521486E+01  0.84453416723E+01  0.00000000000E+00 0. -1.
         -5    1    5    5    0  502 -0.11143329250E+03  0.51666523157E+02  0.10065773225E+03  0.15887377806E+03  0.47000000000E+01 0.  1.
         13    1    6    6    0    0 -0.40437469731E+02 -0.56196596364E+02  0.80527659537E+02  0.10619769466E+03  0.00000000000E+00 0. -1.
        -14    1    6    6    0    0 -0.83774573675E+01 -0.75717331377E+01 -0.18129063242E+02  0.21358274010E+02  0.00000000000E+00 0.  1.
</event>
<event>
12    1  0.1032880E+000  0.1885983E+03  0.7818608E-02  0.1159891E+00
         21   -1    0    0  503  502  0.00000000000E+00  0.00000000000E+00  0.59753301807E+03  0.59753301807E+03  0.00000000000E+00 0. -1.
         21   -1    0    0  501  503 -0.00000000000E+00 -0.00000000000E+00 -0.59329253648E+02  0.59329253648E+02  0.00000000000E+00 0. -1.
          6    2    1    2  501    0  0.50540204731E+02 -0.56805588886E+02  0.27498283805E+03  0.33304970582E+03  0.17182944481E+03 0.  0.
         24    2    3    3    0    0  0.10013285432E+02 -0.77586645289E+02  0.91839462121E+02  0.14426975551E+03  0.79115877927E+02 0.  0.
         -6    2    1    2    0  502 -0.50540204731E+02  0.56805588886E+02  0.26322092637E+03  0.32381256589E+03  0.17259239418E+03 0.  0.
        -24    2    5    5    0    0 -0.99812051140E+02  0.54149233334E+02  0.18114211792E+03  0.22792830300E+03  0.79020626435E+02 0.  0.
          5    1    3    3  501    0  0.40526919299E+02  0.20781056402E+02  0.18314337593E+03  0.18877995031E+03  0.47000000000E+01 0. -1.
        -11    1    4    4    0    0  0.12517073633E+02 -0.20832843320E+01 -0.10912014852E+02  0.16735867891E+02  0.00000000000E+00 0.  1.
         12    1    4    4    0    0 -0.25037882012E+01 -0.75503360957E+02  0.10275147697E+03  0.12753388762E+03  0.00000000000E+00 0. -1.
         -5    1    5    5    0  502  0.49271846409E+02  0.26563555518E+01  0.82078808449E+02  0.95884262889E+02  0.47000000000E+01 0.  1.
         11    1    6    6    0    0  0.16996377691E+01  0.19971560561E+02  0.32885098982E+01  0.20311728069E+02  0.00000000000E+00 0. -1.
        -12    1    6    6    0    0 -0.10151168891E+03  0.34177672773E+02  0.17785360802E+03  0.20761657493E+03  0.00000000000E+00 0.  1.
</event>
<event>
12    1  0.1032880E+000  0.4282142E+03  0.7818608E-02  0.1034500E+00
         21   -1    0    0  501  502  0.00000000000E+00  0.00000000000E+00  0.15405695894E+04  0.15405695894E+04  0.00000000000E+00 0.  1.
         21   -1    0    0  502  503 -0.00000000000E+00 -0.00000000000E+00 -0.58412820651E+03  0.58412820651E+03  0.00000000000E+00 0.  1.
         -6    2    1    2    0  503  0.22151846413E+03  0.32350473277E+03 -0.46989248188E+03  0.63574077785E+03  0.17216750570E+03 0.  0.
        -24    2    3    3    0    0  0.24193658683E+03  0.29823791350E+03 -0.40329088496E+03  0.56149002295E+03  0.71751953885E+02 0.  0.
          6    2    1    2  501    0 -0.22151846413E+03 -0.32350473277E+03  0.14263338648E+04  0.14889570181E+04  0.16982039265E+03 0.  0.
         24    2    5    5    0    0 -0.18937819742E+03 -0.24399771150E+03  0.88452106392E+03  0.94037925297E+03  0.80849502402E+02 0.  0.
          5    1    5    5  501    0 -0.32140266718E+02 -0.79507021274E+02  0.54181280088E+03  0.54857776511E+03  0.47000000000E+01 0. -1.
        -11    1    6    6    0    0  0.68047148320E+01 -0.20425587314E+02  0.50144142672E+02  0.54570539721E+02  0.00000000000E+00 0.  1.
         12    1    6    6    0    0 -0.19618291225E+03 -0.22357212419E+03  0.83437692124E+03  0.88580871325E+03  0.00000000000E+00 0. -1.
         -5    1    3    3    0  503 -0.20418122698E+02  0.25266819270E+02 -0.66601596928E+02  0.74250754905E+02  0.47000000000E+01 0.  1.
         11    1    4    4    0    0  0.53918090239E+02  0.11960530666E+03 -0.14243154646E+03  0.19364745096E+03  0.00000000000E+00 0. -1.
        -12    1    4    4    0    0  0.18801849659E+03  0.17863260684E+03 -0.26085933850E+03  0.36784257199E+03  0.00000000000E+00 0.  1.
</event>
<event>
12    1  0.1032880E+000  0.2880493E+03  0.7818608E-02  0.1091462E+00
         21   -1    0    0  501  502  0.00000000000E+00  0.00000000000E+00  0.97409298171E+03  0.97409298171E+03  0.00000000000E+00 0.  1.
         21   -1    0    0  502  503 -0.00000000000E+00 -0.00000000000E+00 -0.86348383780E+02  0.86348383780E+02  0.00000000000E+00 0.  1.
         -6    2    1    2    0  503 -0.17041426541E+03 -0.15418447567E+03  0.37652021207E+03  0.47365116001E+03  0.17252268516E+03 0.  0.
        -24    2    3    3    0    0 -0.11761772769E+03 -0.17942080424E+03  0.29756039689E+03  0.37525863445E+03  0.79063886017E+02 0.  0.
          6    2    1    2  501    0  0.17041426541E+03  0.15418447567E+03  0.51122438587E+03  0.58679020548E+03  0.17366202276E+03 0.  0.
         24    2    5    5    0    0  0.16425965393E+03  0.13478063463E+03  0.51741131485E+03  0.56500130050E+03  0.79780620804E+02 0.  0.
          5    1    5    5  501    0  0.61546114774E+01  0.19403841043E+02 -0.61869289846E+01  0.21788904973E+02  0.47000000000E+01 0. -1.
        -13    1    6    6    0    0  0.45267790531E+02  0.16354540040E+02  0.20243741735E+03  0.20808063769E+03  0.00000000000E+00 0.  1.
         14    1    6    6    0    0  0.11899186340E+03  0.11842609459E+03  0.31497389750E+03  0.35692066281E+03  0.00000000000E+00 0. -1.
         -5    1    3    3    0  503 -0.52796537715E+02  0.25236328564E+02  0.78959815181E+02  0.98392525567E+02  0.47000000000E+01 0.  1.
         11    1    4    4    0    0 -0.15790754177E+01 -0.49797940111E+02  0.10196533406E+03  0.11348681715E+03  0.00000000000E+00 0. -1.
        -12    1    4    4    0    0 -0.11603865228E+03 -0.12962286413E+03  0.19559506283E+03  0.26177181729E+03  0.00000000000E+00 0.  1.
</event>
<event>
12    1  0.1032880E+000  0.1948944E+03  0.7818608E-02  0.1156206E+00
         21   -1    0    0  503  502  0.00000000000E+00  0.00000000000E+00  0.16483732454E+04  0.16483732454E+04  0.00000000000E+00 0.  1.
         21   -1    0    0  501  503 -0.00000000000E+00 -0.00000000000E+00 -0.22023815619E+02  0.22023815619E+02  0.00000000000E+00 0.  1.
          6    2    1    2  501    0  0.20048725909E+01  0.71096149272E+02  0.84014767327E+03  0.86039889706E+03  0.17140439668E+03 0.  0.
         24    2    3    3    0    0  0.80789452052E+01  0.11347139822E+03  0.69648503683E+03  0.71042023460E+03  0.81636239759E+02 0.  0.
         -6    2    1    2    0  502 -0.20048725909E+01 -0.71096149272E+02  0.78620175653E+03  0.80999816398E+03  0.18145286365E+03 0.  0.
        -24    2    5    5    0    0 -0.61603898598E+02 -0.33536937518E+01  0.45236038873E+03  0.46414670304E+03  0.83641814098E+02 0.  0.
          5    1    3    3  501    0 -0.60740726142E+01 -0.42375248949E+02  0.14366263644E+03  0.14997866246E+03  0.47000000000E+01 0. -1.
        -13    1    4    4    0    0  0.12936359444E+02 -0.96328204663E+01  0.60551223411E+02  0.62662518959E+02  0.00000000000E+00 0.  1.
         14    1    4    4    0    0 -0.48574142391E+01  0.12310421869E+03  0.63593381341E+03  0.64775771564E+03  0.00000000000E+00 0. -1.
         -5    1    5    5    0  502  0.59599026007E+02 -0.67742455520E+02  0.33384136780E+03  0.34585146094E+03  0.47000000000E+01 0.  1.
         11    1    6    6    0    0 -0.13808801742E+02 -0.40870976736E+02  0.18217339982E+03  0.18721182481E+03  0.00000000000E+00 0. -1.
        -12    1    6    6    0    0 -0.47795096856E+02  0.37517282984E+02  0.27018698891E+03  0.27693487824E+03  0.00000000000E+00 0.  1.
</event>
<event>
12    1  0.1032880E+000  0.1972312E+03  0.7818608E-02  0.1152991E+00
         21   -1    0    0  503  502  0.00000000000E+00  0.00000000000E+00  0.31274026130E+03  0.31274026130E+03  0.00000000000E+00 0.  1.
         21   -1    0    0  501  503 -0.00000000000E+00 -0.00000000000E+00 -0.12181008644E+03  0.12181008644E+03  0.00000000000E+00 0.  1.
          6    2    1    2  501    0 -0.17000642959E+02  0.91579079233E+02  0.98491423303E+02  0.22045569513E+03  0.17385167079E+03 0.  0.
         24    2    3    3    0    0  0.38915455648E+02  0.82908568581E+01  0.73994696201E+02  0.11708394992E+03  0.81549281218E+02 0.  0.
         -6    2    1    2    0  502  0.17000642959E+02 -0.91579079233E+02  0.92438751557E+02  0.21409465260E+03  0.16916219397E+03 0.  0.
        -24    2    5    5    0    0 -0.26302828847E+02  0.66339215174E+01  0.31485719933E+02  0.90569973892E+02  0.80471870185E+02 0.  0.
          5    1    3    3  501    0 -0.55916098607E+02  0.83288222375E+02  0.24496727103E+02  0.10337174521E+03  0.47000000000E+01 0. -1.
        -13    1    4    4    0    0 -0.96210866216E+01 -0.27760315619E+02  0.32166393136E+02  0.43564633344E+02  0.00000000000E+00 0.  1.
         14    1    4    4    0    0  0.48536542270E+02  0.36051172477E+02  0.41828303065E+02  0.73519316575E+02  0.00000000000E+00 0. -1.
         -5    1    5    5    0  502  0.43303471805E+02 -0.98213000750E+02  0.60953031625E+02  0.12352467871E+03  0.47000000000E+01 0.  1.
         11    1    6    6    0    0 -0.10947387027E+02 -0.36337918146E+02  0.22311981630E+02  0.44024017333E+02  0.00000000000E+00 0. -1.
        -12    1    6    6    0    0 -0.15355441820E+02  0.42971839663E+02  0.91737383024E+01  0.46545956559E+02  0.00000000000E+00 0.  1.
</event>
<event>
12    1  0.1032880E+000  0.2106651E+03  0.7818608E-02  0.1141046E+00
         21   -1    0    0  503  502  0.00000000000E+00  0.00000000000E+00  0.10205586583E+04  0.10205586583E+04  0.00000000000E+00 0.  1.
         21   -1    0    0  501  503 -0.00000000000E+00 -0.00000000000E+00 -0.43499875713E+02  0.43499875713E+02  0.00000000000E+00 0.  1.
          6    2    1    2  501    0  0.53610284183E+01 -0.12073416693E+03  0.47724672040E+03  0.52167444191E+03  0.17255234429E+03 0.  0.
         24    2    3    3    0    0  0.14714101557E+02 -0.57040641380E+01  0.30449386970E+03  0.31386433160E+03  0.74466508104E+02 0.  0.
         -6    2    1    2    0  502 -0.53610284183E+01  0.12073416693E+03  0.49981206215E+03  0.54238409206E+03  0.17251935013E+03 0.  0.
        -24    2    5    5    0    0  0.46899551711E+02  0.39510211676E+02  0.34929611988E+03  0.36348289581E+03  0.79695742746E+02 0.  0.
          5    1    3    3  501    0 -0.93530731391E+01 -0.11503010279E+03  0.17275285070E+03  0.20781011031E+03  0.47000000000E+01 0. -1.
        -11    1    4    4    0    0  0.42888918325E+02 -0.10093482179E+01  0.12609212325E+03  0.13319047130E+03  0.00000000000E+00 0.  1.
         12    1    4    4    0    0 -0.28174816768E+02 -0.46947159201E+01  0.17840174645E+03  0.18067386030E+03  0.00000000000E+00 0. -1.
         -5    1    5    5    0  502 -0.52260580129E+02  0.81223955249E+02  0.15051594227E+03  0.17890119625E+03  0.47000000000E+01 0.  1.
         11    1    6    6    0    0 -0.20416450267E+01 -0.19810943664E+02  0.11980241540E+03  0.12144653366E+03  0.00000000000E+00 0. -1.
        -12    1    6    6    0    0  0.48941196738E+02  0.59321155340E+02  0.22949370447E+03  0.24203636215E+03  0.00000000000E+00 0.  1.
</event>
<event>
12    1  0.1032880E+000  0.2370056E+03  0.7818608E-02  0.1121848E+00
         21   -1    0    0  501  502  0.00000000000E+00  0.00000000000E+00  0.96955073482E+03  0.96955073482E+03  0.00000000000E+00 0. -1.
         21   -1    0    0  502  503 -0.00000000000E+00 -0.00000000000E+00 -0.10821561938E+03  0.10821561938E+03  0.00000000000E+00 0. -1.
         -6    2    1    2    0  503 -0.53604122108E+02  0.15381551891E+03  0.79809523698E+03  0.83246870155E+03  0.17180080327E+03 0.  0.
        -24    2    3    3    0    0 -0.33658355383E+02  0.11080070027E+02  0.22010781650E+03  0.23676509218E+03  0.79715777319E+02 0.  0.
          6    2    1    2  501    0  0.53604122108E+02 -0.15381551891E+03  0.63239878457E+02  0.24529765265E+03  0.17215992682E+03 0.  0.
         24    2    5    5    0    0  0.18664019439E+02 -0.15971746496E+03  0.88869167665E+02  0.20131363047E+03  0.82288727159E+02 0.  0.
          5    1    5    5  501    0  0.34940102669E+02  0.59019460481E+01 -0.25629289209E+02  0.43984022179E+02  0.47000000000E+01 0. -1.
        -11    1    6    6    0    0 -0.32127745277E+02 -0.75082491733E+02  0.34846515267E+02  0.88791059278E+02  0.00000000000E+00 0.  1.
         12    1    6    6    0    0  0.50791764715E+02 -0.84634973226E+02  0.54022652399E+02  0.11252257119E+03  0.00000000000E+00 0. -1.
         -5    1    3    3    0  503 -0.19945766725E+02  0.14273544888E+03  0.57798742048E+03  0.59570360937E+03  0.47000000000E+01 0.  1.
         11    1    4    4    0    0 -0.32296450867E+02 -0.12195713761E+02  0.20731654402E+03  0.21017122923E+03  0.00000000000E+00 0. -1.
        -12    1    4    4    0    0 -0.13619045161E+01  0.23275783788E+02  0.12791272473E+02  0.26593862945E+02  0.00000000000E+00 0.  1.
</event>
<event>
12    1  0.1032880E+000  0.1829594E+03  0.7818608E-02  0.1166521E+00
         21   -1    0    0  501  502  0.00000000000E+00  0.00000000000E+00  0.33986160950E+03  0.33986160950E+03  0.00000000000E+00 0.  1.
         21   -1    0    0  502  503 -0.00000000000E+00 -0.00000000000E+00 -0.10475305042E+03  0.10475305042E+03  0.00000000000E+00 0.  1.
         -6    2    1    2    0  503  0.26745444768E+02 -0.30769325048E+02  0.51863272135E+02  0.19016815200E+03  0.17835934755E+03 0.  0.
        -24    2    3    3    0    0 -0.37192298921E+02 -0.54009534589E+02  0.62145253308E+02  0.12120474472E+03  0.80797652859E+02 0.  0.
          6    2    1    2  501    0 -0.26745444768E+02  0.30769325048E+02  0.18324528694E+03  0.25444650792E+03  0.17176181189E+03 0.  0.
         24    2    5    5    0    0  0.60677915046E+01 -0.52552530156E+02  0.84744575210E+02  0.12124095157E+03  0.68695988173E+02 0.  0.
          5    1    5    5  501    0 -0.32813236273E+02  0.83321855204E+02  0.98500711731E+02  0.13320555634E+03  0.47000000000E+01 0. -1.
        -11    1    6    6    0    0 -0.93444587989E+00 -0.30592955276E+02  0.92095357680E+02  0.97048220014E+02  0.00000000000E+00 0.  1.
         12    1    6    6    0    0  0.70022373845E+01 -0.21959574880E+02 -0.73507824706E+01  0.24192731558E+02  0.00000000000E+00 0. -1.
         -5    1    3    3    0  503  0.63937743689E+02  0.23240209541E+02 -0.10281981173E+02  0.68963407285E+02  0.47000000000E+01 0.  1.
         11    1    4    4    0    0  0.11623928845E+01 -0.42249191380E+02 -0.54359837386E+01  0.42613322432E+02  0.00000000000E+00 0. -1.
        -12    1    4    4    0    0 -0.38354691805E+02 -0.11760343208E+02  0.67581237047E+02  0.78591422284E+02  0.00000000000E+00 0.  1.
</event>
<event>
12    1  0.1032880E+000  0.1776740E+03  0.7818608E-02  0.1170320E+00
         21   -1    0    0  503  502  0.00000000000E+00  0.00000000000E+00  0.11205014900E+04  0.11205014900E+04  0.00000000000E+00 0. -1.
         21   -1    0    0  501  503 -0.00000000000E+00 -0.00000000000E+00 -0.37659534584E+02  0.37659534584E+02  0.00000000000E+00 0. -1.
          6    2    1    2  501    0 -0.32193639655E+01 -0.43117234746E+02  0.83560884112E+03  0.85428927891E+03  0.17233274925E+03 0.  0.
         24    2    3    3    0    0  0.44472137118E+02 -0.12945727450E+01  0.67859765738E+03  0.68488380039E+03  0.81188623207E+02 0.  0.
         -6    2    1    2    0  502  0.32193639655E+01  0.43117234746E+02  0.24723311432E+03  0.30387174570E+03  0.17130196958E+03 0.  0.
        -24    2    5    5    0    0  0.43513267760E+02  0.52215428165E+02  0.23994656834E+03  0.26166322098E+03  0.79204988134E+02 0.  0.
          5    1    3    3  501    0 -0.47691501084E+02 -0.41822662001E+02  0.15701118374E+03  0.16940547852E+03  0.47000000000E+01 0. -1.
        -11    1    4    4    0    0 -0.19100858230E+02  0.24370857261E+01  0.59936646097E+02  0.62953822102E+02  0.00000000000E+00 0.  1.
         12    1    4    4    0    0  0.63572995349E+02 -0.37316584711E+01  0.61866101128E+03  0.62192997828E+03  0.00000000000E+00 0. -1.
         -5    1    5    5    0  502 -0.40293903795E+02 -0.90981934188E+01  0.72865459756E+01  0.42208524717E+02  0.47000000000E+01 0.  1.
         11    1    6    6    0    0  0.30873927513E+02  0.68836158210E+02  0.13491123833E+03  0.15457250177E+03  0.00000000000E+00 0. -1.
        -12    1    6    6    0    0  0.12639340248E+02 -0.16620730046E+02  0.10503533002E+03  0.10709071921E+03  0.00000000000E+00 0.  1.
</event>
<event>
12    1  0.1032880E+000  0.2131181E+03  0.7818608E-02  0.1139516E+00
         21   -1    0    0  501  502  0.00000000000E+00  0.00000000000E+00  0.11168334422E+03  0.11168334422E+03  0.00000000000E+00 0.  1.
         21   -1    0    0  502  503 -0.00000000000E+00 -0.00000000000E+00 -0.53442979281E+03  0.53442979281E+03  0.00000000000E+00 0.  1.
         -6    2    1    2    0  503  0.11731624363E+03  0.45381767706E+02 -0.51820689026E+02  0.21932783910E+03  0.17203694758E+03 0.  0.
        -24    2    3    3    0    0  0.99336225310E+02 -0.31700626674E+02 -0.37860573701E+02  0.13881727208E+03  0.83451762087E+02 0.  0.
          6    2    1    2  501    0 -0.11731624363E+03 -0.45381767706E+02 -0.37092575957E+03  0.42678529794E+03  0.16952039867E+03 0.  0.
         24    2    5    5    0    0 -0.12498380349E+03 -0.84978289086E+02 -0.30188945569E+03  0.34669299348E+03  0.78844958767E+02 0.  0.
          5    1    5    5  501    0  0.76675598588E+01  0.39596521380E+02 -0.69036303875E+02  0.80092304451E+02  0.47000000000E+01 0. -1.
        -13    1    6    6    0    0 -0.46162485761E+02  0.86342192961E+01 -0.10245112657E+03  0.11270207705E+03  0.00000000000E+00 0.  1.
         14    1    6    6    0    0 -0.78821317732E+02 -0.93612508382E+02 -0.19943832912E+03  0.23399091644E+03  0.00000000000E+00 0. -1.
         -5    1    3    3    0  503  0.17980018324E+02  0.77082394380E+02 -0.13960115325E+02  0.80510567022E+02  0.47000000000E+01 0.  1.
         13    1    4    4    0    0  0.77233837349E+02  0.12504395871E+02 -0.29257831818E+01  0.78294225553E+02  0.00000000000E+00 0. -1.
        -14    1    4    4    0    0  0.22102387961E+02 -0.44205022545E+02 -0.34934790519E+02  0.60523046523E+02  0.00000000000E+00 0.  1.
</event>
<event>
12    1  0.1349819E+000  0.3380800E+03  0.7818608E-02  0.1067697E+00
         21   -1    0    0  501  502  0.00000000000E+00  0.00000000000E+00  0.53557850560E+03  0.53557850560E+03  0.00000000000E+00 0. -1.
         21   -1    0    0  502  503 -0.00000000000E+00 -0.00000000000E+00 -0.63009948408E+03  0.63009948408E+03  0.00000000000E+00 0. -1.
         -6    2    1    2    0  503 -0.24380085928E+03 -0.15604627636E+03  0.42696037071E+03  0.54460372366E+03  0.17466756515E+03 0.  0.
        -24    2    3    3    0    0 -0.70548549438E+02 -0.61111396819E+02  0.84987410760E+02  0.14963968789E+03  0.80358419308E+02 0.  0.
          6    2    1    2  501    0  0.24380085928E+03  0.15604627636E+03 -0.52148134919E+03  0.62107426601E+03  0.17320839182E+03 0.  0.
         24    2    5    5    0    0  0.19887678724E+03  0.17950425843E+03 -0.43095391875E+03  0.51721977726E+03  0.10010625660E+03 0.  0.
          5    1    5    5  501    0  0.44924072044E+02 -0.23457982062E+02 -0.90527430443E+02  0.10385448875E+03  0.47000000000E+01 0. -1.
        -13    1    6    6    0    0  0.83509664146E+02  0.14657282312E+02 -0.12922671438E+03  0.15455822087E+03  0.00000000000E+00 0.  1.
         14    1    6    6    0    0  0.11536712309E+03  0.16484697611E+03 -0.30172720437E+03  0.36266155639E+03  0.00000000000E+00 0. -1.
         -5    1    3    3    0  503 -0.17325230984E+03 -0.94934879545E+02  0.34197295995E+03  0.39496403578E+03  0.47000000000E+01 0.  1.
         11    1    4    4    0    0 -0.28501113962E+01 -0.11729273554E+02  0.61417640314E+02  0.62592535776E+02  0.00000000000E+00 0. -1.
        -12    1    4    4    0    0 -0.67698438042E+02 -0.49382123265E+02  0.23569770446E+02  0.87047152109E+02  0.00000000000E+00 0.  1.
</event>
<event>
12    1  0.1032880E+000  0.2415493E+03  0.7818608E-02  0.1119133E+00
         21   -1    0    0  503  502  0.00000000000E+00  0.00000000000E+00  0.21089497647E+03  0.21089497647E+03  0.00000000000E+00 0. -1.
         21   -1    0    0  501  503 -0.00000000000E+00 -0.00000000000E+00 -0.45087205084E+03  0.45087205084E+03  0.00000000000E+00 0.  1.
          6    2    1    2  501    0 -0.54191835556E+02 -0.15974432566E+03 -0.32681812935E+03  0.40508151389E+03  0.16978203262E+03 0.  0.
         24    2    3    3    0    0 -0.35104890856E+02 -0.11742521017E+02 -0.90484421224E+02  0.12553803385E+03  0.78753585931E+02 0.  0.
         -6    2    1    2    0  502  0.54191835556E+02  0.15974432566E+03  0.86841054980E+02  0.25668551342E+03  0.17289036800E+03 0.  0.
        -24    2    5    5    0    0 -0.19884679774E+02  0.44969454084E+02  0.74655268148E+02  0.11945874974E+03  0.79242233290E+02 0.  0.
          5    1    3    3  501    0 -0.19086944700E+02 -0.14800180464E+03 -0.23633370813E+03  0.27954348004E+03  0.47000000000E+01 0. -1.
        -13    1    4    4    0    0  0.57698557241E-01 -0.29359753277E+02 -0.79433686457E+02  0.84685943260E+02  0.00000000000E+00 0.  1.
         14    1    4    4    0    0 -0.35162589413E+02  0.17617232260E+02 -0.11050734767E+02  0.40852090591E+02  0.00000000000E+00 0. -1.
         -5    1    5    5    0  502  0.74076515330E+02  0.11477487157E+03  0.12185786832E+02  0.13722676368E+03  0.47000000000E+01 0.  1.
         13    1    6    6    0    0  0.16884910130E+02  0.31297598729E+02  0.71802092768E+02  0.80126028244E+02  0.00000000000E+00 0. -1.
        -14    1    6    6    0    0 -0.36769589904E+02  0.13671855355E+02  0.28531753798E+01  0.39332721496E+02  0.00000000000E+00 0.  1.
</event>
<event>
12    1  0.1032880E+000  0.2522842E+03  0.7818608E-02  0.1111890E+00
         21   -1    0    0  501  502  0.00000000000E+00  0.00000000000E+00  0.92674972135E+02  0.92674972135E+02  0.00000000000E+00 0. -1.
         21   -1    0    0  502  503 -0.00000000000E+00 -0.00000000000E+00 -0.17548634562E+04  0.17548634562E+04  0.00000000000E+00 0. -1.
         -6    2    1    2    0  503 -0.13060208034E+03 -0.13098532430E+03 -0.11037506425E+03  0.27537242015E+03  0.17156123223E+03 0.  0.
        -24    2    3    3    0    0 -0.16060128951E+03 -0.10645801766E+03 -0.73173820795E+02  0.22145058936E+03  0.80993035271E+02 0.  0.
          6    2    1    2  501    0  0.13060208034E+03  0.13098532430E+03 -0.15518134198E+04  0.15721660082E+04  0.17136805067E+03 0.  0.
         24    2    5    5    0    0  0.99677693120E+02  0.15601500927E+03 -0.13726649127E+04  0.13885929152E+04  0.98513938300E+02 0.  0.
          5    1    5    5  501    0  0.30924387219E+02 -0.25029684975E+02 -0.17914850713E+03  0.18357309296E+03  0.47000000000E+01 0. -1.
        -13    1    6    6    0    0  0.11299836213E+03  0.10378853664E+03 -0.11003339189E+04  0.11109794882E+04  0.00000000000E+00 0.  1.
         14    1    6    6    0    0 -0.13320669006E+02  0.52226472636E+02 -0.27233099379E+03  0.27761342699E+03  0.00000000000E+00 0. -1.
         -5    1    3    3    0  503  0.29999209169E+02 -0.24527306638E+02 -0.37201243455E+02  0.53921830795E+02  0.47000000000E+01 0.  1.
         13    1    4    4    0    0  0.28029289205E+00 -0.26066044662E+02 -0.22923613268E+02  0.34713243779E+02  0.00000000000E+00 0. -1.
        -14    1    4    4    0    0 -0.16088158240E+03 -0.80391972996E+02 -0.50250207528E+02  0.18673734558E+03  0.00000000000E+00 0.  1.
</event>
<event>
12    1  0.1032880E+000  0.2501111E+03  0.7818608E-02  0.1113348E+00
         21   -1    0    0  503  502  0.00000000000E+00  0.00000000000E+00  0.75086676537E+03  0.75086676537E+03  0.00000000000E+00 0.  1.
         21   -1    0    0  501  503 -0.00000000000E+00 -0.00000000000E+00 -0.49295240183E+03  0.49295240183E+03  0.00000000000E+00 0.  1.
          6    2    1    2  501    0 -0.59842508044E+02 -0.17061723583E+03  0.69608002703E+03  0.73965056473E+03  0.17281257752E+03 0.  0.
         24    2    3    3    0    0 -0.10423111353E+03 -0.10791265746E+03  0.52432941089E+03  0.55144170046E+03  0.81592592898E+02 0.  0.
         -6    2    1    2    0  502  0.59842508044E+02  0.17061723583E+03 -0.43816566349E+03  0.50416860247E+03  0.17177154631E+03 0.  0.
        -24    2    5    5    0    0  0.59530626214E+02  0.35287820270E+02 -0.26915446640E+03  0.28760216295E+03  0.74038852160E+02 0.  0.
          5    1    3    3  501    0  0.44388605487E+02 -0.62704578372E+02  0.17175061614E+03  0.18820886427E+03  0.47000000000E+01 0. -1.
        -13    1    4    4    0    0 -0.56938116456E+02 -0.25049848195E+02  0.31926618719E+03  0.32526964550E+03  0.00000000000E+00 0.  1.
         14    1    4    4    0    0 -0.47292997074E+02 -0.82862809267E+02  0.20506322370E+03  0.22617205496E+03  0.00000000000E+00 0. -1.
         -5    1    5    5    0  502  0.31188182958E+00  0.13532941557E+03 -0.16901119708E+03  0.21656643952E+03  0.47000000000E+01 0.  1.
         11    1    6    6    0    0  0.17757247674E+02  0.39487674264E+02 -0.21373039254E+03  0.21807172435E+03  0.00000000000E+00 0. -1.
        -12    1    6    6    0    0  0.41773378540E+02 -0.41998539946E+01 -0.55424073862E+02  0.69530438599E+02  0.00000000000E+00 0.  1.
</event>
<event>
12    1  0.1032880E+000  0.3001464E+03  0.7818608E-02  0.1085340E+00
         21   -1    0    0  501  502  0.00000000000E+00  0.00000000000E+00  0.26873932099E+03  0.26873932099E+03  0.00000000000E+00 0. -1.
         21   -1    0    0  502  503 -0.00000000000E+00 -0.00000000000E+00 -0.49466187510E+03  0.49466187510E+03  0.00000000000E+00 0. -1.
         -6    2    1    2    0  503 -0.54928679713E+01 -0.24607955926E+03  0.10460783499E+03  0.31785322877E+03  0.17176307756E+03 0.  0.
        -24    2    3    3    0    0 -0.48972593074E+02 -0.67544232478E+02  0.51866734704E+02  0.12662283614E+03  0.79891465442E+02 0.  0.
          6    2    1    2  501    0  0.54928679713E+01  0.24607955926E+03 -0.33053038910E+03  0.44554796732E+03  0.16934382769E+03 0.  0.
         24    2    5    5    0    0 -0.33749787135E+02  0.22989954557E+03 -0.23568531811E+03  0.34153135175E+03  0.84280756247E+02 0.  0.
          5    1    5    5  501    0  0.39242655106E+02  0.16180013697E+02 -0.94845070986E+02  0.10401661556E+03  0.47000000000E+01 0. -1.
        -11    1    6    6    0    0 -0.57158194788E+02  0.16126288416E+03 -0.19066058889E+03  0.25617228030E+03  0.00000000000E+00 0.  1.
         12    1    6    6    0    0  0.23408407653E+02  0.68636661402E+02 -0.45024729226E+02  0.85359071452E+02  0.00000000000E+00 0. -1.
         -5    1    3    3    0  503  0.43479725103E+02 -0.17853532678E+03  0.52741100283E+02  0.19123039263E+03  0.47000000000E+01 0.  1.
         11    1    4    4    0    0 -0.58479569432E+01  0.10419607838E+02  0.33616582214E+02  0.35676903280E+02  0.00000000000E+00 0. -1.
        -12    1    4    4    0    0 -0.43124636131E+02 -0.77963840316E+02  0.18250152490E+02  0.90945932862E+02  0.00000000000E+00 0.  1.
</event>
<event>
12    1  0.1032880E+000  0.2185401E+03  0.7818608E-02  0.1135059E+00
         21   -1    0    0  503  502  0.00000000000E+00  0.00000000000E+00  0.22156296579E+03  0.22156296579E+03  0.00000000000E+00 0. -1.
         21   -1    0    0  501  503 -0.00000000000E+00 -0.00000000000E+00 -0.21848490692E+03  0.21848490692E+03  0.00000000000E+00 0. -1.
          6    2    1    2  501    0 -0.12985718953E+03  0.36698422750E+02  0.28816018744E+02  0.21999741180E+03  0.17134419849E+03 0.  0.
         24    2    3    3    0    0 -0.29196535304E+02  0.17866793663E+02 -0.34127168944E+02  0.99701391751E+02  0.87201168956E+02 0.  0.
         -6    2    1    2    0  502  0.12985718953E+03 -0.36698422750E+02 -0.25737959876E+02  0.22005046091E+03  0.17190142193E+03 0.  0.
        -24    2    5    5    0    0  0.19074084182E+02 -0.22408665156E+02 -0.59396944748E+02  0.10329382998E+03  0.79218995865E+02 0.  0.
          5    1    3    3  501    0 -0.10066065423E+03  0.18831629087E+02  0.62943187687E+02  0.12029602005E+03  0.47000000000E+01 0. -1.
        -11    1    4    4    0    0 -0.31340018685E+02 -0.83807465872E+01  0.20973686683E+02  0.38630677157E+02  0.00000000000E+00 0.  1.
         12    1    4    4    0    0  0.21434833814E+01  0.26247540250E+02 -0.55100855626E+02  0.61070714593E+02  0.00000000000E+00 0. -1.
         -5    1    5    5    0  502  0.11078310535E+03 -0.14289757594E+02  0.33658984872E+02  0.11675663093E+03  0.47000000000E+01 0.  1.
         13    1    6    6    0    0  0.88847578075E+01  0.29910243805E+02 -0.22433176030E+02  0.38429272599E+02  0.00000000000E+00 0. -1.
        -14    1    6    6    0    0  0.10189326375E+02 -0.52318908960E+02 -0.36963768719E+02  0.64864557384E+02  0.00000000000E+00 0.  1.
</event>
<event>
12    1  0.1032880E+000  0.2250864E+03  0.7818608E-02  0.1130221E+00
         21   -1    0    0  503  502  0.00000000000E+00  0.00000000000E+00  0.12308909655E+04  0.12308909655E+04  0.00000000000E+00 0. -1.
         21   -1    0    0  501  503 -0.00000000000E+00 -0.00000000000E+00 -0.56308630588E+02  0.56308630588E+02  0.00000000000E+00 0. -1.
          6    2    1    2  501    0  0.13421635554E+03 -0.52372512915E+02  0.92154628597E+03  0.94853878732E+03  0.17239885049E+03 0.  0.
         24    2    3    3    0    0  0.71218577545E+02 -0.62647027340E+02  0.81473860481E+03  0.82402269826E+03  0.78852249513E+02 0.  0.
         -6    2    1    2    0  502 -0.13421635554E+03  0.52372512915E+02  0.25303604892E+03  0.33866080875E+03  0.17293637885E+03 0.  0.
        -24    2    5    5    0    0 -0.22945251894E+02  0.55833208173E+02  0.58306128935E+02  0.11430603021E+03  0.77604330751E+02 0.  0.
          5    1    3    3  501    0  0.62997777995E+02  0.10274514426E+02  0.10680768116E+03  0.12451608906E+03  0.47000000000E+01 0. -1.
        -13    1    4    4    0    0  0.30662295053E+02 -0.34117813968E-01  0.82849450667E+02  0.88341434094E+02  0.00000000000E+00 0.  1.
         14    1    4    4    0    0  0.40556282492E+02 -0.62612909526E+02  0.73188915415E+03  0.73568126417E+03  0.00000000000E+00 0. -1.
         -5    1    5    5    0  502 -0.11127110365E+03 -0.34606952586E+01  0.19472991999E+03  0.22435477855E+03  0.47000000000E+01 0.  1.
         11    1    6    6    0    0  0.23034339661E+02 -0.26793011044E+01  0.82174428741E+01  0.24602557294E+02  0.00000000000E+00 0. -1.
        -12    1    6    6    0    0 -0.45979591555E+02  0.58512509278E+02  0.50088686061E+02  0.89703472914E+02  0.00000000000E+00 0.  1.
</event>
<event>
12    1  0.1032880E+000  0.1743793E+03  0.7818608E-02  0.1173868E+00
         21   -1    0    0  501  502  0.00000000000E+00  0.00000000000E+00  0.28182676461E+03  0.28182676461E+03  0.00000000000E+00 0. -1.
         21   -1    0    0  502  503 -0.00000000000E+00 -0.00000000000E+00 -0.12989276490E+03  0.12989276490E+03  0.00000000000E+00 0. -1.
         -6    2    1    2    0  503 -0.32921503961E+02 -0.62101801714E+01  0.16267893512E+03  0.23700948471E+03  0.16907592422E+03 0.  0.
        -24    2    3    3    0    0 -0.71302903736E+02 -0.88678837710E+00  0.70310314430E+02  0.13673225680E+03  0.93098223719E+02 0.  0.
          6    2    1    2  501    0  0.32921503961E+02  0.62101801714E+01 -0.10744935410E+02  0.17471004480E+03  0.17113081066E+03 0.  0.
         24    2    5    5    0    0 -0.34665183787E+01 -0.41480754281E+02 -0.48839836064E+02  0.10349329919E+03  0.81196451066E+02 0.  0.
          5    1    5    5  501    0  0.36388022339E+02  0.47690934452E+02  0.38094900654E+02  0.71216745605E+02  0.47000000000E+01 0. -1.
        -13    1    6    6    0    0  0.34893451498E+02 -0.99173986311E+00 -0.24451232969E+02  0.42619236257E+02  0.00000000000E+00 0.  1.
         14    1    6    6    0    0 -0.38359969877E+02 -0.40489014418E+02 -0.24388603095E+02  0.60874062936E+02  0.00000000000E+00 0. -1.
         -5    1    3    3    0  503  0.38381399776E+02 -0.53233917943E+01  0.92368620693E+02  0.10027722791E+03  0.47000000000E+01 0.  1.
         11    1    4    4    0    0 -0.48575946605E+00  0.90658579229E+01 -0.19747360452E+02  0.21734396402E+02  0.00000000000E+00 0. -1.
        -12    1    4    4    0    0 -0.70817144270E+02 -0.99526463000E+01  0.90057674882E+02  0.11499786040E+03  0.00000000000E+00 0.  1.
</event>
<event>
12    1  0.1032880E+000  0.1828254E+03  0.7818608E-02  0.1165173E+00
         21   -1    0    0  503  502  0.00000000000E+00  0.00000000000E+00  0.10279979188E+03  0.10279979188E+03  0.00000000000E+00 0. -1.
         21   -1    0    0  501  503 -0.00000000000E+00 -0.00000000000E+00 -0.40664182102E+03  0.40664182102E+03  0.00000000000E+00 0. -1.
          6    2    1    2  501    0  0.39188833776E+02  0.49269014206E+02 -0.37594597278E+02  0.18665066779E+03  0.17164474238E+03 0.  0.
         24    2    3    3    0    0  0.25748255562E+02  0.90906873546E+02  0.72783986440E+01  0.12380135406E+03  0.79666604404E+02 0.  0.
         -6    2    1    2    0  502 -0.39188833776E+02 -0.49269014206E+02 -0.26624743186E+03  0.32279094511E+03  0.17129827442E+03 0.  0.
        -24    2    5    5    0    0 -0.72655522685E+02 -0.22677886150E+02 -0.25464841006E+03  0.27825180879E+03  0.82371990686E+02 0.  0.
          5    1    3    3  501    0  0.13440578214E+02 -0.41637859340E+02 -0.44872995922E+02  0.62849313729E+02  0.47000000000E+01 0. -1.
        -11    1    4    4    0    0 -0.25942114810E+02  0.17482052492E+02 -0.89808058785E+01  0.32546433820E+02  0.00000000000E+00 0.  1.
         12    1    4    4    0    0  0.51690370372E+02  0.73424821054E+02  0.16259204523E+02  0.91254920238E+02  0.00000000000E+00 0. -1.
         -5    1    5    5    0  502  0.33466688908E+02 -0.26591128056E+02 -0.11599021800E+02  0.44539136324E+02  0.47000000000E+01 0.  1.
         11    1    6    6    0    0 -0.19970360226E+02  0.30994886269E+02 -0.88504982978E+02  0.95878205419E+02  0.00000000000E+00 0. -1.
        -12    1    6    6    0    0 -0.52685162459E+02 -0.53672772419E+02 -0.16614342708E+03  0.18237360337E+03  0.00000000000E+00 0.  1.
</event>
<event>
12    1  0.1032880E+000  0.2205125E+03  0.7818608E-02  0.1134976E+00
         21   -1    0    0  501  502  0.00000000000E+00  0.00000000000E+00  0.33169468466E+03  0.33169468466E+03  0.00000000000E+00 0. -1.
         21   -1    0    0  502  503 -0.00000000000E+00 -0.00000000000E+00 -0.17771427791E+03  0.17771427791E+03  0.00000000000E+00 0. -1.
         -6    2    1    2    0  503  0.42493632733E+02  0.13045706912E+03 -0.36919796894E+02  0.22358183122E+03  0.17262968500E+03 0.  0.
        -24    2    3    3    0    0  0.85260085871E+02  0.70779521815E+02 -0.44915210300E+02  0.14957915693E+03  0.89875052824E+02 0.  0.
          6    2    1    2  501    0 -0.42493632733E+02 -0.13045706912E+03  0.19090020364E+03  0.28582713136E+03  0.16257153983E+03 0.  0.
         24    2    5    5    0    0 -0.67888991562E+02 -0.76665399408E+02  0.18490219442E+03  0.22585602085E+03  0.79596620625E+02 0.  0.
          5    1    5    5  501    0  0.25395358829E+02 -0.53791669713E+02  0.59980092274E+01  0.59971110506E+02  0.47000000000E+01 0. -1.
        -11    1    6    6    0    0  0.14568311542E+02 -0.16424250303E+02  0.11923186485E+02  0.24983075774E+02  0.00000000000E+00 0.  1.
         12    1    6    6    0    0 -0.82457303104E+02 -0.60241149105E+02  0.17297900793E+03  0.20087294508E+03  0.00000000000E+00 0. -1.
         -5    1    3    3    0  503 -0.42766453137E+02  0.59677547306E+02  0.79954134065E+01  0.74002674289E+02  0.47000000000E+01 0.  1.
         11    1    4    4    0    0 -0.16362488122E+02 -0.35851350026E+01 -0.53442165906E+01  0.17582515790E+02  0.00000000000E+00 0. -1.
        -12    1    4    4    0    0  0.10162257399E+03  0.74364656818E+02 -0.39570993710E+02  0.13199664114E+03  0.00000000000E+00 0.  1.
</event>
<event>
12    1  0.1032880E+000  0.1969167E+03  0.7818608E-02  0.1152656E+00
         21   -1    0    0  501  502  0.00000000000E+00  0.00000000000E+00  0.31791566260E+03  0.31791566260E+03  0.00000000000E+00 0. -1.
         21   -1    0    0  502  503 -0.00000000000E+00 -0.00000000000E+00 -0.13000690498E+03  0.13000690498E+03  0.00000000000E+00 0. -1.
         -6    2    1    2    0  503  0.89578048131E+02  0.32522131922E+02  0.35178034078E+02  0.19871808808E+03  0.17079071602E+03 0.  0.
        -24    2    3    3    0    0  0.21627110460E+02  0.77165643695E+02  0.31042116632E+02  0.11717319930E+03  0.79647204312E+02 0.  0.
          6    2    1    2  501    0 -0.89578048131E+02 -0.32522131922E+02  0.15273072354E+03  0.24920447949E+03  0.17232029165E+03 0.  0.
         24    2    5    5    0    0 -0.54865596400E+02 -0.87012076750E+02  0.84768125007E+02  0.15531564527E+03  0.79724397013E+02 0.  0.
          5    1    5    5  501    0 -0.34712451731E+02  0.54489944827E+02  0.67962598536E+02  0.93888834225E+02  0.47000000000E+01 0. -1.
        -11    1    6    6    0    0  0.65636482615E+01 -0.57526422300E+02  0.19864978484E+02  0.61212646662E+02  0.00000000000E+00 0.  1.
         12    1    6    6    0    0 -0.61429244662E+02 -0.29485654449E+02  0.64903146522E+02  0.94102998605E+02  0.00000000000E+00 0. -1.
         -5    1    3    3    0  503  0.67950937671E+02 -0.44643511773E+02  0.41359174460E+01  0.81544888785E+02  0.47000000000E+01 0.  1.
         13    1    4    4    0    0  0.50161465200E+02  0.53806417762E+02  0.87438598138E+01  0.74079405153E+02  0.00000000000E+00 0. -1.
        -14    1    4    4    0    0 -0.28534354740E+02  0.23359225933E+02  0.22298256818E+02  0.43093794144E+02  0.00000000000E+00 0.  1.
</event>
<event>
12    1  0.1032880E+000  0.2633943E+03  0.7818608E-02  0.1105194E+00
         21   -1    0    0  501  502  0.00000000000E+00  0.00000000000E+00  0.15665023725E+03  0.15665023725E+03  0.00000000000E+00 0.  1.
         21   -1    0    0  502  503 -0.00000000000E+00 -0.00000000000E+00 -0.48583366116E+03  0.48583366116E+03  0.00000000000E+00 0.  1.
         -6    2    1    2    0  503  0.19705781326E+03 -0.26624243681E+02 -0.68006782802E+02  0.27155293706E+03  0.17197512321E+03 0.  0.
        -24    2    3    3    0    0  0.49280305472E+02  0.40727163238E+02 -0.19916494092E+02  0.10211513228E+03  0.77094637756E+02 0.  0.
          6    2    1    2  501    0 -0.19705781326E+03  0.26624243681E+02 -0.26117664110E+03  0.37093096135E+03  0.17273073876E+03 0.  0.
         24    2    5    5    0    0 -0.10203193163E+03  0.82433705228E+02 -0.13961689747E+03  0.20678628294E+03  0.77857934239E+02 0.  0.
          5    1    5    5  501    0 -0.95025881628E+02 -0.55809461547E+02 -0.12155974363E+03  0.16414467840E+03  0.47000000000E+01 0. -1.
        -11    1    6    6    0    0 -0.59577108262E+02  0.64498871793E+02 -0.38919215586E+02  0.96042915581E+02  0.00000000000E+00 0.  1.
         12    1    6    6    0    0 -0.42454823369E+02  0.17934833434E+02 -0.10069768188E+03  0.11074336736E+03  0.00000000000E+00 0. -1.
         -5    1    3    3    0  503  0.14777750779E+03 -0.67351406918E+02 -0.48090288710E+02  0.16943780478E+03  0.47000000000E+01 0.  1.
         13    1    4    4    0    0  0.20888077432E+02  0.35100899015E+01  0.28012924359E+02  0.35119174835E+02  0.00000000000E+00 0. -1.
        -14    1    4    4    0    0  0.28392228040E+02  0.37217073336E+02 -0.47929418452E+02  0.66995957444E+02  0.00000000000E+00 0.  1.
</event>
<event>
12    1  0.1032880E+000  0.2624935E+03  0.7818608E-02  0.1105859E+00
         21   -1    0    0  501  502  0.00000000000E+00  0.00000000000E+00  0.71667524135E+03  0.71667524135E+03  0.00000000000E+00 0. -1.
         21   -1    0    0  502  503 -0.00000000000E+00 -0.00000000000E+00 -0.95708504413E+02  0.95708504413E+02  0.00000000000E+00 0. -1.
         -6    2    1    2    0  503 -0.79927661144E+02 -0.17829288917E+03  0.32223836673E+03  0.41562047657E+03  0.17528842004E+03 0.  0.
        -24    2    3    3    0    0 -0.23571889453E+02 -0.15647392940E+02  0.69109627777E+02  0.10947381411E+03  0.80049362559E+02 0.  0.
          6    2    1    2  501    0  0.79927661144E+02  0.17829288917E+03  0.29872837020E+03  0.39676326920E+03  0.17322143999E+03 0.  0.
         24    2    5    5    0    0  0.10532425513E+03  0.17709942817E+03  0.21846091982E+03  0.31243435999E+03  0.86212815986E+02 0.  0.
          5    1    5    5  501    0 -0.25396593986E+02  0.11934609991E+01  0.80267450388E+02  0.84328909201E+02  0.47000000000E+01 0. -1.
        -11    1    6    6    0    0  0.52351243150E+02  0.15868362913E+03  0.15800734587E+03  0.22997275526E+03  0.00000000000E+00 0.  1.
         12    1    6    6    0    0  0.52973011979E+02  0.18415799046E+02  0.60453573945E+02  0.82461604734E+02  0.00000000000E+00 0. -1.
         -5    1    3    3    0  503 -0.56355771691E+02 -0.16264549623E+03  0.25312873895E+03  0.30614666246E+03  0.47000000000E+01 0.  1.
         11    1    4    4    0    0 -0.21476574000E+02 -0.21520005790E+02 -0.85355960061E+01  0.31578636436E+02  0.00000000000E+00 0. -1.
        -12    1    4    4    0    0 -0.20953154531E+01  0.58726128497E+01  0.77645223783E+02  0.77895177674E+02  0.00000000000E+00 0.  1.
</event>
<event>
12    1  0.1032880E+000  0.2549993E+03  0.7818608E-02  0.1110278E+00
         21   -1    0    0  503  502  0.00000000000E+00  0.00000000000E+00  0.95883962867E+02  0.95883962867E+02  0.00000000000E+00 0. -1.
         21   -1    0    0  501  503 -0.00000000000E+00 -0.00000000000E+00 -0.78123261056E+03  0.78123261056E+03  0.00000000000E+00 0. -1.
          6    2    1    2  501    0  0.86820160220E+02 -0.16610590856E+03 -0.18250347016E+03  0.31357955637E+03  0.17290375495E+03 0.  0.
         24    2    3    3    0    0  0.46568021352E+02 -0.80302856699E+01 -0.61721355759E+02  0.11055604445E+03  0.78613275639E+02 0.  0.
         -6    2    1    2    0  502 -0.86820160220E+02  0.16610590856E+03 -0.50284517754E+03  0.56353701705E+03  0.17202262625E+03 0.  0.
        -24    2    5    5    0    0 -0.10858394828E+03  0.62794267682E+02 -0.30522202009E+03  0.33942998912E+03  0.79489886706E+02 0.  0.
          5    1    3    3  501    0  0.40252138868E+02 -0.15807562289E+03 -0.12078211440E+03  0.20302351192E+03  0.47000000000E+01 0. -1.
        -13    1    4    4    0    0  0.31396022590E+01 -0.30332675216E+02 -0.52732549912E+02  0.60915105749E+02  0.00000000000E+00 0.  1.
         14    1    4    4    0    0  0.43428419093E+02  0.22302389547E+02 -0.89888058469E+01  0.49640938699E+02  0.00000000000E+00 0. -1.
         -5    1    5    5    0  502  0.21763788057E+02  0.10331164088E+03 -0.19762315744E+03  0.22410702793E+03  0.47000000000E+01 0.  1.
         11    1    6    6    0    0 -0.75955898442E+01 -0.15200442844E+02 -0.67737733514E+02  0.69836573436E+02  0.00000000000E+00 0. -1.
        -12    1    6    6    0    0 -0.10098835843E+03  0.77994710526E+02 -0.23748428658E+03  0.26959341568E+03  0.00000000000E+00 0.  1.
</event>
<event>
12    1  0.1032880E+000  0.1923683E+03  0.7818608E-02  0.1156695E+00
         21   -1    0    0  501  502  0.00000000000E+00  0.00000000000E+00  0.11672440276E+03  0.11672440276E+03  0.00000000000E+00 0. -1.
         21   -1    0    0  502  503 -0.00000000000E+00 -0.00000000000E+00 -0.39294458630E+03  0.39294458630E+03  0.00000000000E+00 0.  1.
         -6    2    1    2    0  503  0.82203489296E+02 -0.10567297871E+02 -0.25156256292E+03  0.31572682078E+03  0.17184475803E+03 0.  0.
        -24    2    3    3    0    0 -0.72056564308E+01 -0.42834125167E+02 -0.88419920993E+02  0.12685449592E+03  0.79920566465E+02 0.  0.
          6    2    1    2  501    0 -0.82203489296E+02  0.10567297871E+02 -0.24657620619E+02  0.19394216828E+03  0.17359863176E+03 0.  0.
         24    2    5    5    0    0  0.16287149126E+02  0.35962354811E+02 -0.22451389413E+02  0.92097815324E+02  0.80121036630E+02 0.  0.
          5    1    5    5  501    0 -0.98490638422E+02 -0.25395056940E+02 -0.22062312058E+01  0.10184435296E+03  0.47000000000E+01 0. -1.
        -11    1    6    6    0    0 -0.83722812729E+01  0.40183846305E+02  0.17771814880E+02  0.44728894483E+02  0.00000000000E+00 0.  1.
         12    1    6    6    0    0  0.24659430399E+02 -0.42214914935E+01 -0.40223204293E+02  0.47368920841E+02  0.00000000000E+00 0. -1.
         -5    1    3    3    0  503  0.89409145727E+02  0.32266827296E+02 -0.16314264192E+03  0.18887232486E+03  0.47000000000E+01 0.  1.
         11    1    4    4    0    0  0.21849904115E+02 -0.17285147178E+02  0.25715496086E+01  0.27978697078E+02  0.00000000000E+00 0. -1.
        -12    1    4    4    0    0 -0.29055560546E+02 -0.25548977990E+02 -0.90991470602E+02  0.98875798845E+02  0.00000000000E+00 0.  1.
</event>
<event>
12    1  0.1032880E+000  0.3301426E+03  0.7818608E-02  0.1071172E+00
         21   -1    0    0  501  502  0.00000000000E+00  0.00000000000E+00  0.11844893166E+04  0.11844893166E+04  0.00000000000E+00 0. -1.
         21   -1    0    0  502  503 -0.00000000000E+00 -0.00000000000E+00 -0.91769712620E+02  0.91769712620E+02  0.00000000000E+00 0.  1.
         -6    2    1    2    0  503 -0.13214891897E+02  0.28146603709E+03  0.54678585327E+03  0.63872441852E+03  0.17203589764E+03 0.  0.
        -24    2    3    3    0    0  0.36215431371E+02  0.26057347430E+03  0.43303811690E+03  0.51286539593E+03  0.79365046947E+02 0.  0.
          6    2    1    2  501    0  0.13214891897E+02 -0.28146603709E+03  0.54593375074E+03  0.63753461073E+03  0.17032015817E+03 0.  0.
         24    2    5    5    0    0  0.59092539998E+02 -0.19853272334E+03  0.45747492783E+03  0.50780509799E+03  0.75336162844E+02 0.  0.
          5    1    5    5  501    0 -0.45877648102E+02 -0.82933313749E+02  0.88458822907E+02  0.12972951274E+03  0.47000000000E+01 0. -1.
        -13    1    6    6    0    0  0.20559711021E+02 -0.41675746368E+01  0.29640882138E+02  0.36313252258E+02  0.00000000000E+00 0.  1.
         14    1    6    6    0    0  0.38532828977E+02 -0.19436514870E+03  0.42783404570E+03  0.47149184573E+03  0.00000000000E+00 0. -1.
         -5    1    3    3    0  503 -0.49430323268E+02  0.20892562787E+02  0.11374773637E+03  0.12585902259E+03  0.47000000000E+01 0.  1.
         11    1    4    4    0    0  0.37268178230E+01  0.13793374277E+03  0.29323273465E+03  0.32407567517E+03  0.00000000000E+00 0. -1.
        -12    1    4    4    0    0  0.32488613548E+02  0.12263973153E+03  0.13980538225E+03  0.18878972076E+03  0.00000000000E+00 0.  1.
</event>
<event>
12    1  0.1032880E+000  0.2535219E+03  0.7818608E-02  0.1111154E+00
         21   -1    0    0  503  502  0.00000000000E+00  0.00000000000E+00  0.17129126815E+03  0.17129126815E+03  0.00000000000E+00 0. -1.
         21   -1    0    0  501  503 -0.00000000000E+00 -0.00000000000E+00 -0.37503402404E+03  0.37503402404E+03  0.00000000000E+00 0. -1.
          6    2    1    2  501    0  0.17847818033E+03 -0.53287923139E+02 -0.93841895921E+02  0.27033249824E+03  0.17198632088E+03 0.  0.
         24    2    3    3    0    0  0.37800270997E+02 -0.20544690783E+02  0.12342905726E+02  0.91001252947E+02  0.79233426718E+02 0.  0.
         -6    2    1    2    0  502 -0.17847818033E+03  0.53287923139E+02 -0.10990085997E+03  0.27599279394E+03  0.17146358121E+03 0.  0.
        -24    2    5    5    0    0 -0.17098409443E+03  0.31997089788E+02 -0.31174300391E+02  0.19395973907E+03  0.79932278036E+02 0.  0.
          5    1    3    3  501    0  0.14067790933E+03 -0.32743232356E+02 -0.10618480165E+03  0.17933124530E+03  0.47000000000E+01 0. -1.
        -13    1    4    4    0    0  0.49188630664E+02  0.10596166525E+02 -0.96211265888E+01  0.51228568284E+02  0.00000000000E+00 0.  1.
         14    1    4    4    0    0 -0.11388359667E+02 -0.31140857308E+02  0.21964032315E+02  0.39772684663E+02  0.00000000000E+00 0. -1.
         -5    1    5    5    0  502 -0.74940858947E+01  0.21290833351E+02 -0.78726559582E+02  0.82033054873E+02  0.47000000000E+01 0.  1.
         11    1    6    6    0    0 -0.48796040057E+02  0.47154254268E+02 -0.46896695360E+01  0.68018896060E+02  0.00000000000E+00 0. -1.
        -12    1    6    6    0    0 -0.12218805437E+03 -0.15157164480E+02 -0.26484630855E+02  0.12594084301E+03  0.00000000000E+00 0.  1.
</event>
<event>
12    1  0.1032880E+000  0.1804338E+03  0.7818608E-02  0.1167566E+00
         21   -1    0    0  503  502  0.00000000000E+00  0.00000000000E+00  0.34851513183E+03  0.34851513183E+03  0.00000000000E+00 0. -1.
         21   -1    0    0  501  503 -0.00000000000E+00 -0.00000000000E+00 -0.12280113184E+03  0.12280113184E+03  0.00000000000E+00 0. -1.
          6    2    1    2  501    0  0.43189709997E+02 -0.33579214757E+02  0.22871893881E+03  0.29085742748E+03  0.17115132322E+03 0.  0.
         24    2    3    3    0    0  0.51594231267E+02 -0.80990472015E+02  0.18384014085E+03  0.22486758130E+03  0.86872380403E+02 0.  0.
         -6    2    1    2    0  502 -0.43189709997E+02  0.33579214757E+02 -0.30049388108E+01  0.18045883619E+03  0.17194024307E+03 0.  0.
        -24    2    5    5    0    0 -0.38033879423E+01 -0.42064165931E+02 -0.22591312837E+02  0.92829392194E+02  0.79517726478E+02 0.  0.
          5    1    3    3  501    0 -0.84045212705E+01  0.47411257259E+02  0.44878797959E+02  0.65989846180E+02  0.47000000000E+01 0. -1.
        -11    1    4    4    0    0  0.49450605440E+02 -0.24137744615E+02  0.34229900391E+02  0.64804931712E+02  0.00000000000E+00 0.  1.
         12    1    4    4    0    0  0.21436258279E+01 -0.56852727400E+02  0.14961024046E+03  0.16006264959E+03  0.00000000000E+00 0. -1.
         -5    1    5    5    0  502 -0.39386322055E+02  0.75643380688E+02  0.19586374027E+02  0.87629443992E+02  0.47000000000E+01 0.  1.
         13    1    6    6    0    0  0.23710321073E+01 -0.10830031881E+02 -0.49756562777E+02  0.50976729232E+02  0.00000000000E+00 0. -1.
        -14    1    6    6    0    0 -0.61744200496E+01 -0.31234134050E+02  0.27165249939E+02  0.41852662963E+02  0.00000000000E+00 0.  1.
</event>
<event>
12    1  0.1032880E+000  0.2053205E+03  0.7818608E-02  0.1145663E+00
         21   -1    0    0  501  502  0.00000000000E+00  0.00000000000E+00  0.10118540982E+03  0.10118540982E+03  0.00000000000E+00 0.  1.
         21   -1    0    0  502  503 -0.00000000000E+00 -0.00000000000E+00 -0.42953073533E+03  0.42953073533E+03  0.00000000000E+00 0.  1.
         -6    2    1    2    0  503  0.91763645437E+02  0.66122298523E+02 -0.11194717189E+03  0.23241314960E+03  0.16938411327E+03 0.  0.
        -24    2    3    3    0    0  0.74393953246E+02  0.11500658172E+02 -0.13034491650E+03  0.17203271562E+03  0.83299055025E+02 0.  0.
          6    2    1    2  501    0 -0.91763645437E+02 -0.66122298523E+02 -0.21639815363E+03  0.29830299555E+03  0.17135866268E+03 0.  0.
         24    2    5    5    0    0 -0.94585112171E+01 -0.53044759232E+02 -0.42969274891E+02  0.10583267801E+03  0.80318038039E+02 0.  0.
          5    1    5    5  501    0 -0.82305134220E+02 -0.13077539291E+02 -0.17342887874E+03  0.19247031754E+03  0.47000000000E+01 0. -1.
        -13    1    6    6    0    0  0.82785749850E+01 -0.31651816621E+02 -0.63398126596E+02  0.71342096654E+02  0.00000000000E+00 0.  1.
         14    1    6    6    0    0 -0.17737086202E+02 -0.21392942611E+02  0.20428851705E+02  0.34490581359E+02  0.00000000000E+00 0. -1.
         -5    1    3    3    0  503  0.17369692191E+02  0.54621640351E+02  0.18397744606E+02  0.60380433983E+02  0.47000000000E+01 0.  1.
         13    1    4    4    0    0 -0.17363814257E+02  0.80853631177E+01 -0.13534279344E+02  0.23453184425E+02  0.00000000000E+00 0. -1.
        -14    1    4    4    0    0  0.91757767503E+02  0.34152950542E+01 -0.11681063715E+03  0.14857953119E+03  0.00000000000E+00 0.  1.
</event>
<event>
12    1  0.1032880E+000  0.1882715E+03  0.7818608E-02  0.1160160E+00
         21   -1    0    0  501  502  0.00000000000E+00  0.00000000000E+00  0.39492518504E+02  0.39492518504E+02  0.00000000000E+00 0. -1.
         21   -1    0    0  502  503 -0.00000000000E+00 -0.00000000000E+00 -0.91421300373E+03  0.91421300373E+03  0.00000000000E+00 0. -1.
         -6    2    1    2    0  503 -0.64725286691E+02  0.39669419077E+02 -0.36855230810E+03  0.41385620132E+03  0.17228791605E+03 0.  0.
        -24    2    3    3    0    0 -0.49797177882E+02  0.16010878713E+02 -0.78972824409E+02  0.12289066669E+03  0.78289857601E+02 0.  0.
          6    2    1    2  501    0  0.64725286691E+02 -0.39669419077E+02 -0.50616817712E+03  0.53984932091E+03  0.17166257661E+03 0.  0.
         24    2    5    5    0    0  0.30587927660E+01 -0.65512328833E+02 -0.18630454389E+03  0.21303829551E+03  0.79841786292E+02 0.  0.
          5    1    5    5  501    0  0.61666493925E+02  0.25842909756E+02 -0.31986363323E+03  0.32681102540E+03  0.47000000000E+01 0. -1.
        -11    1    6    6    0    0 -0.62379472634E+01 -0.81661235774E+02 -0.16809202606E+03  0.18698234847E+03  0.00000000000E+00 0.  1.
         12    1    6    6    0    0  0.92967400295E+01  0.16148906941E+02 -0.18212517830E+02  0.26055947042E+02  0.00000000000E+00 0. -1.
         -5    1    3    3    0  503 -0.14928108808E+02  0.23658540364E+02 -0.28957948370E+03  0.29096553463E+03  0.47000000000E+01 0.  1.
         13    1    4    4    0    0 -0.47734176015E+01  0.38282525820E+02 -0.55130648341E+02  0.67288377044E+02  0.00000000000E+00 0. -1.
        -14    1    4    4    0    0 -0.45023760281E+02 -0.22271647107E+02 -0.23842176068E+02  0.55602289650E+02  0.00000000000E+00 0.  1.
</event>
<event>
12    1  0.1032880E+000  0.1861429E+03  0.7818608E-02  0.1163184E+00
         21   -1    0    0  501  502  0.00000000000E+00  0.00000000000E+00  0.21784533532E+03  0.21784533532E+03  0.00000000000E+00 0.  1.
         21   -1    0    0  502  503 -0.00000000000E+00 -0.00000000000E+00 -0.30650893932E+03  0.30650893932E+03  0.00000000000E+00 0.  1.
         -6    2    1    2    0  503 -0.55985384649E+02 -0.27910733251E+02 -0.22850332663E+03  0.29153602026E+03  0.16990028989E+03 0.  0.
        -24    2    3    3    0    0 -0.10818985381E+03 -0.30745769460E+02 -0.12733088495E+03  0.17755664938E+03  0.51602932760E+02 0.  0.
          6    2    1    2  501    0  0.55985384649E+02  0.27910733251E+02  0.13983972262E+03  0.23281825438E+03  0.17531634043E+03 0.  0.
         24    2    5    5    0    0  0.98240792551E+01  0.84317982653E+01 -0.36966410141E+01  0.80716075860E+02  0.79585249841E+02 0.  0.
          5    1    5    5  501    0  0.46161305393E+02  0.19478934986E+02  0.14353636364E+03  0.15210217852E+03  0.47000000000E+01 0. -1.
        -13    1    6    6    0    0 -0.26626453211E+02 -0.18691093433E+02 -0.11719888833E+02  0.34578617361E+02  0.00000000000E+00 0.  1.
         14    1    6    6    0    0  0.36450532466E+02  0.27122891698E+02  0.80232478186E+01  0.46137458499E+02  0.00000000000E+00 0. -1.
         -5    1    3    3    0  503  0.52204469164E+02  0.28350362088E+01 -0.10117244168E+03  0.11397937088E+03  0.47000000000E+01 0.  1.
         13    1    4    4    0    0 -0.81101338961E+02 -0.13373012357E+02 -0.11844485809E+03  0.14417159584E+03  0.00000000000E+00 0. -1.
        -14    1    4    4    0    0 -0.27088514851E+02 -0.17372757103E+02 -0.88860268615E+01  0.33385053536E+02  0.00000000000E+00 0.  1.
</event>
<event>
12    1  0.1032880E+000  0.1729924E+03  0.7818608E-02  0.1174949E+00
         21   -1    0    0  503  502  0.00000000000E+00  0.00000000000E+00  0.25382188246E+02  0.25382188246E+02  0.00000000000E+00 0. -1.
         21   -1    0    0  501  503 -0.00000000000E+00 -0.00000000000E+00 -0.17721691770E+04  0.17721691770E+04  0.00000000000E+00 0. -1.
          6    2    1    2  501    0 -0.13027956637E+02  0.83279530610E+01 -0.35003866105E+03  0.39013094078E+03  0.17156924045E+03 0.  0.
         24    2    3    3    0    0  0.24609845453E+02 -0.10299534640E+02 -0.97116688312E+02  0.13370316979E+03  0.87938396363E+02 0.  0.
         -6    2    1    2    0  502  0.13027956637E+02 -0.83279530610E+01 -0.13967483277E+04  0.14074204244E+04  0.17229996459E+03 0.  0.
        -24    2    5    5    0    0  0.17254028074E+02 -0.41426735670E-01 -0.32414314507E+03  0.33476461107E+03  0.81858799937E+02 0.  0.
          5    1    3    3  501    0 -0.37637802090E+02  0.18627487701E+02 -0.25292197273E+03  0.25642777099E+03  0.47000000000E+01 0. -1.
        -11    1    4    4    0    0 -0.87554547856E+01  0.30670537437E+02 -0.63549987756E+02  0.71105139047E+02  0.00000000000E+00 0.  1.
         12    1    4    4    0    0  0.33365300239E+02 -0.40970072078E+02 -0.33566700557E+02  0.62598030738E+02  0.00000000000E+00 0. -1.
         -5    1    5    5    0  502 -0.42260714364E+01 -0.82865263254E+01 -0.10726051826E+04  0.10726558134E+04  0.47000000000E+01 0.  1.
         11    1    6    6    0    0  0.38506218506E+01 -0.67766304722E+01 -0.31871791420E+03  0.31881320368E+03  0.00000000000E+00 0. -1.
        -12    1    6    6    0    0  0.13403406223E+02  0.67352037365E+01 -0.54252308744E+01  0.15951407392E+02  0.00000000000E+00 0.  1.
</event>
<event>
12    1  0.1032880E+000  0.2144800E+03  0.7818608E-02  0.1138192E+00
         21   -1    0    0  501  502  0.00000000000E+00  0.00000000000E+00  0.25176674435E+03  0.25176674435E+03  0.00000000000E+00 0.  1.
         21   -1    0    0  502  503 -0.00000000000E+00 -0.00000000000E+00 -0.20946710559E+03  0.20946710559E+03  0.00000000000E+00 0.  1.
         -6    2    1    2    0  503  0.22104383917E+02 -0.12481095607E+03 -0.62144396469E+02  0.22267516321E+03  0.17220895375E+03 0.  0.
        -24    2    3    3    0    0  0.30061116379E+02 -0.15524938554E+03 -0.34196107274E+02  0.18033127995E+03  0.79648944433E+02 0.  0.
          6    2    1    2  501    0 -0.22104383917E+02  0.12481095607E+03  0.10444403522E+03  0.23855868673E+03  0.17301824176E+03 0.  0.
         24    2    5    5    0    0  0.39528385158E+02  0.19547886847E+02  0.52189388670E+02  0.10577483963E+03  0.80746339211E+02 0.  0.
          5    1    5    5  501    0 -0.61632769074E+02  0.10526306922E+03  0.52254646551E+02  0.13278384710E+03  0.47000000000E+01 0. -1.
        -11    1    6    6    0    0  0.47245617924E+00  0.43753500177E+02  0.37232840257E+02  0.57453253922E+02  0.00000000000E+00 0.  1.
         12    1    6    6    0    0  0.39055928978E+02 -0.24205613330E+02  0.14956548412E+02  0.48321585709E+02  0.00000000000E+00 0. -1.
         -5    1    3    3    0  503 -0.79567324620E+01  0.30438429469E+02 -0.27948289195E+02  0.42343883253E+02  0.47000000000E+01 0.  1.
         11    1    4    4    0    0  0.48503492932E+02 -0.54222347286E+02 -0.22678485392E+01  0.72785952689E+02  0.00000000000E+00 0. -1.
        -12    1    4    4    0    0 -0.18442376553E+02 -0.10102703825E+03 -0.31928258735E+02  0.10754532726E+03  0.00000000000E+00 0.  1.
</event>
<event>
12    1  0.1032880E+000  0.2830975E+03  0.7818608E-02  0.1094774E+00
         21   -1    0    0  501  502  0.00000000000E+00  0.00000000000E+00  0.21647321225E+03  0.21647321225E+03  0.00000000000E+00 0.  1.
         21   -1    0    0  502  503 -0.00000000000E+00 -0.00000000000E+00 -0.38105711744E+03  0.38105711744E+03  0.00000000000E+00 0.  1.
         -6    2    1    2    0  503 -0.12140272395E+03 -0.19003916719E+03 -0.14669484660E+03  0.31386815129E+03  0.16167972022E+03 0.  0.
        -24    2    3    3    0    0 -0.10909172012E+03 -0.17518307566E+03 -0.64528696200E+02  0.22933631976E+03  0.76426968614E+02 0.  0.
          6    2    1    2  501    0  0.12140272395E+03  0.19003916719E+03 -0.17889058588E+02  0.28366217839E+03  0.17114527918E+03 0.  0.
         24    2    5    5    0    0  0.54492969984E+02  0.11521472934E+02 -0.16200199043E+01  0.92266635193E+02  0.73541004815E+02 0.  0.
          5    1    5    5  501    0  0.66909753965E+02  0.17851769425E+03 -0.16269038684E+02  0.19139554320E+03  0.47000000000E+01 0. -1.
        -13    1    6    6    0    0 -0.17772891246E+02  0.90342089542E+01 -0.80253735101E+00  0.19953362144E+02  0.00000000000E+00 0.  1.
         14    1    6    6    0    0  0.72265861229E+02  0.24872639801E+01 -0.81748255331E+00  0.72313273049E+02  0.00000000000E+00 0. -1.
         -5    1    3    3    0  503 -0.12311003828E+02 -0.14856091529E+02 -0.82166150404E+02  0.84531831537E+02  0.47000000000E+01 0.  1.
         11    1    4    4    0    0  0.80890930411E+01 -0.45170888005E+01  0.55194663134E+01  0.10784341697E+02  0.00000000000E+00 0. -1.
        -12    1    4    4    0    0 -0.11718081316E+03 -0.17066598686E+03 -0.70048162513E+02  0.21855197806E+03  0.00000000000E+00 0.  1.
</event>
<event>
12    1  0.1032880E+000  0.2340626E+03  0.7818608E-02  0.1124742E+00
         21   -1    0    0  501  502  0.00000000000E+00  0.00000000000E+00  0.63733303508E+03  0.63733303508E+03  0.00000000000E+00 0.  1.
         21   -1    0    0  502  503 -0.00000000000E+00 -0.00000000000E+00 -0.99540773330E+02  0.99540773330E+02  0.00000000000E+00 0.  1.
         -6    2    1    2    0  503  0.58062496168E+02 -0.14436152841E+03  0.12076657887E+03  0.25865239876E+03  0.16764543676E+03 0.  0.
        -24    2    3    3    0    0  0.88731322254E+02 -0.65432570634E+02  0.41512095616E+02  0.14257604292E+03  0.80311923671E+02 0.  0.
          6    2    1    2  501    0 -0.58062496168E+02  0.14436152841E+03  0.41702568287E+03  0.47822140964E+03  0.17485363056E+03 0.  0.
         24    2    5    5    0    0 -0.34891356009E+02  0.48164020427E+02  0.82072700650E+02  0.12892718900E+03  0.79681317023E+02 0.  0.
          5    1    5    5  501    0 -0.23171140159E+02  0.96197507983E+02  0.33495298222E+03  0.34929422065E+03  0.47000000000E+01 0. -1.
        -11    1    6    6    0    0  0.53878755600E+01 -0.10196101709E+02 -0.81880826673E+01  0.14143351472E+02  0.00000000000E+00 0.  1.
         12    1    6    6    0    0 -0.40279231569E+02  0.58360122135E+02  0.90260783317E+02  0.11478383752E+03  0.00000000000E+00 0. -1.
         -5    1    3    3    0  503 -0.30668826086E+02 -0.78928957776E+02  0.79254483256E+02  0.11607635584E+03  0.47000000000E+01 0.  1.
         11    1    4    4    0    0  0.32044870623E+02 -0.43720614224E+02  0.58288223084E+02  0.79598258723E+02  0.00000000000E+00 0. -1.
        -12    1    4    4    0    0  0.56686451630E+02 -0.21711956409E+02 -0.16776127468E+02  0.62977784197E+02  0.00000000000E+00 0.  1.
</event>
<event>
12    1  0.1032880E+000  0.2703525E+03  0.7818608E-02  0.1101260E+00
         21   -1    0    0  503  502  0.00000000000E+00  0.00000000000E+00  0.56808044708E+03  0.56808044708E+03  0.00000000000E+00 0. -1.
         21   -1    0    0  501  503 -0.00000000000E+00 -0.00000000000E+00 -0.17199946158E+03  0.17199946158E+03  0.00000000000E+00 0. -1.
          6    2    1    2  501    0  0.13652799150E+03  0.15809034229E+03  0.11355265766E+02  0.27059084183E+03  0.17163336748E+03 0.  0.
         24    2    3    3    0    0  0.14978644260E+03  0.72069685237E+02  0.30664722149E+02  0.18131438877E+03  0.65609179798E+02 0.  0.
         -6    2    1    2    0  502 -0.13652799150E+03 -0.15809034229E+03  0.38472571974E+03  0.46948906683E+03  0.16962799196E+03 0.  0.
        -24    2    5    5    0    0 -0.94240428815E+02 -0.16030842215E+03  0.37470937672E+03  0.42572178494E+03  0.79068783575E+02 0.  0.
          5    1    3    3  501    0 -0.13258451095E+02  0.86020657049E+02 -0.19309456383E+02  0.89276453057E+02  0.47000000000E+01 0. -1.
        -11    1    4    4    0    0  0.57553448236E+02  0.16290525497E+02  0.41770471510E+02  0.72955828519E+02  0.00000000000E+00 0.  1.
         12    1    4    4    0    0  0.92232994363E+02  0.55779159740E+02 -0.11105749361E+02  0.10835856025E+03  0.00000000000E+00 0. -1.
         -5    1    5    5    0  502 -0.42287562689E+02  0.22180798657E+01  0.10016343020E+02  0.43767281889E+02  0.47000000000E+01 0.  1.
         13    1    6    6    0    0 -0.25706673916E+02 -0.28571242695E+02  0.25158473829E+02  0.45935800835E+02  0.00000000000E+00 0. -1.
        -14    1    6    6    0    0 -0.68533754898E+02 -0.13173717946E+03  0.34955090289E+03  0.37978598411E+03  0.00000000000E+00 0.  1.
</event>
<event>
12    1  0.1032880E+000  0.2607326E+03  0.7818608E-02  0.1106786E+00
         21   -1    0    0  503  502  0.00000000000E+00  0.00000000000E+00  0.65233369234E+03  0.65233369234E+03  0.00000000000E+00 0.  1.
         21   -1    0    0  501  503 -0.00000000000E+00 -0.00000000000E+00 -0.10705384593E+03  0.10705384593E+03  0.00000000000E+00 0.  1.
          6    2    1    2  501    0  0.19173900196E+03  0.37581856508E+02  0.20871345478E+03  0.33398020743E+03  0.17264191826E+03 0.  0.
         24    2    3    3    0    0  0.34939534747E+02 -0.83199540956E+01  0.40324819094E+01  0.72046170337E+02  0.62324931010E+02 0.  0.
         -6    2    1    2    0  502 -0.19173900196E+03 -0.37581856508E+02  0.33656639163E+03  0.42540733084E+03  0.17180867365E+03 0.  0.
        -24    2    5    5    0    0 -0.16055074668E+03  0.26620302004E+02  0.28478931525E+03  0.33710342342E+03  0.77772625443E+02 0.  0.
          5    1    3    3  501    0  0.15679946721E+03  0.45901810604E+02  0.20468097287E+03  0.26193403710E+03  0.47000000000E+01 0. -1.
        -11    1    4    4    0    0 -0.17413467757E+02  0.45761798033E+01  0.15439322890E+01  0.18070805401E+02  0.00000000000E+00 0.  1.
         12    1    4    4    0    0  0.52353002504E+02 -0.12896133899E+02  0.24885496204E+01  0.53975364936E+02  0.00000000000E+00 0. -1.
         -5    1    5    5    0  502 -0.31188255282E+02 -0.64202158512E+02  0.51777076387E+02  0.88303907413E+02  0.47000000000E+01 0.  1.
         13    1    6    6    0    0 -0.13302546460E+03  0.55062848408E+01  0.16296912845E+03  0.21044008704E+03  0.00000000000E+00 0. -1.
        -14    1    6    6    0    0 -0.27525282084E+02  0.21114017164E+02  0.12182018679E+03  0.12666333639E+03  0.00000000000E+00 0.  1.
</event>
<event>
12    1  0.1032880E+000  0.5077943E+03  0.7818608E-02  0.1011814E+00
         21   -1    0    0  503  502  0.00000000000E+00  0.00000000000E+00  0.16600365868E+03  0.16600365868E+03  0.00000000000E+00 0.  1.
         21   -1    0    0  501  503 -0.00000000000E+00 -0.00000000000E+00 -0.18378843352E+04  0.18378843352E+04  0.00000000000E+00 0.  1.
          6    2    1    2  501    0  0.47619740884E+03 -0.26396233808E+02 -0.12313114859E+04  0.13316110519E+04  0.17204442754E+03 0.  0.
         24    2    3    3    0    0  0.17075230848E+03 -0.61810725207E+02 -0.43984822229E+03  0.48250146941E+03  0.79776517404E+02 0.  0.
         -6    2    1    2    0  502 -0.47619740884E+03  0.26396233808E+02 -0.44056919063E+03  0.67227694193E+03  0.17433973035E+03 0.  0.
        -24    2    5    5    0    0 -0.33649342490E+03  0.28097349027E+02 -0.21891575174E+03  0.41022268440E+03  0.79632018756E+02 0.  0.
          5    1    3    3  501    0  0.30544510036E+03  0.35414491399E+02 -0.79146326359E+03  0.84910958253E+03  0.47000000000E+01 0. -1.
        -11    1    4    4    0    0  0.17255790561E+03 -0.55835585335E+02 -0.44035203052E+03  0.47623917748E+03  0.00000000000E+00 0.  1.
         12    1    4    4    0    0 -0.18055971271E+01 -0.59751398715E+01  0.50380823784E+00  0.62622919295E+01  0.00000000000E+00 0. -1.
         -5    1    5    5    0  502 -0.13970398394E+03 -0.17011152184E+01 -0.22165343889E+03  0.26205425754E+03  0.47000000000E+01 0.  1.
         11    1    6    6    0    0 -0.13574757199E+03  0.25912675378E+02 -0.13317188863E+03  0.19192087423E+03  0.00000000000E+00 0. -1.
        -12    1    6    6    0    0 -0.20074585290E+03  0.21846736483E+01 -0.85743863117E+02  0.21830181016E+03  0.00000000000E+00 0.  1.
</event>
<event>
12    1  0.1032880E+000  0.2435903E+03  0.7818608E-02  0.1117501E+00
         21   -1    0    0  503  502  0.00000000000E+00  0.00000000000E+00  0.96392017095E+03  0.96392017095E+03  0.00000000000E+00 0.  1.
         21   -1    0    0  501  503 -0.00000000000E+00 -0.00000000000E+00 -0.91852162757E+02  0.91852162757E+02  0.00000000000E+00 0.  1.
          6    2    1    2  501    0  0.69199194311E+02 -0.15800943208E+03  0.74007791581E+03  0.77913512710E+03  0.17199045232E+03 0.  0.
         24    2    3    3    0    0  0.11127606608E+03 -0.14419916791E+03  0.59779568887E+03  0.63004619848E+03  0.80142146702E+02 0.  0.
         -6    2    1    2    0  502 -0.69199194311E+02  0.15800943208E+03  0.13199009238E+03  0.27663720661E+03  0.17132206651E+03 0.  0.
        -24    2    5    5    0    0 -0.46783190277E+02  0.18477769209E+03  0.10241992962E+03  0.23064262533E+03  0.79841820195E+02 0.  0.
          5    1    3    3  501    0 -0.42076871765E+02 -0.13810264171E+02  0.14228222693E+03  0.14908892861E+03  0.47000000000E+01 0. -1.
        -11    1    4    4    0    0  0.82797181049E+02 -0.93009764025E+02  0.27365147845E+03  0.30065149435E+03  0.00000000000E+00 0.  1.
         12    1    4    4    0    0  0.28478885027E+02 -0.51189403884E+02  0.32414421042E+03  0.32939470414E+03  0.00000000000E+00 0. -1.
         -5    1    5    5    0  502 -0.22416004034E+02 -0.26768260008E+02  0.29570162766E+02  0.45994581276E+02  0.47000000000E+01 0.  1.
         13    1    6    6    0    0 -0.37566536972E+02  0.69160427030E+02  0.80544617030E+02  0.11261369677E+03  0.00000000000E+00 0. -1.
        -14    1    6    6    0    0 -0.92166533045E+01  0.11561726506E+03  0.21875312588E+02  0.11802892857E+03  0.00000000000E+00 0.  1.
</event>
<event>
12    1  0.1032880E+000  0.3114851E+03  0.7818608E-02  0.1079756E+00
         21   -1    0    0  501  502  0.00000000000E+00  0.00000000000E+00  0.10664833417E+03  0.10664833417E+03  0.00000000000E+00 0.  1.
         21   -1    0    0  502  503 -0.00000000000E+00 -0.00000000000E+00 -0.93760382985E+03  0.93760382985E+03  0.00000000000E+00 0.  1.
         -6    2    1    2    0  503  0.25529364382E+03 -0.14180311477E+02 -0.32021366863E+03  0.44602127379E+03  0.17613136373E+03 0.  0.
        -24    2    3    3    0    0  0.15776138821E+03  0.59267853934E+02 -0.19496330388E+03  0.27104436744E+03  0.83982290641E+02 0.  0.
          6    2    1    2  501    0 -0.25529364382E+03  0.14180311477E+02 -0.51074182706E+03  0.59823089023E+03  0.17789620094E+03 0.  0.
         24    2    5    5    0    0 -0.17850210812E+03  0.69846885615E+02 -0.41062656180E+03  0.46024225385E+03  0.80418710144E+02 0.  0.
          5    1    5    5  501    0 -0.76791535700E+02 -0.55666574138E+02 -0.10011526526E+03  0.13798863638E+03  0.47000000000E+01 0. -1.
        -13    1    6    6    0    0 -0.43561500903E+01  0.11060449215E+02 -0.89091040482E+02  0.89880604552E+02  0.00000000000E+00 0.  1.
         14    1    6    6    0    0 -0.17414595803E+03  0.58786436400E+02 -0.32153552131E+03  0.37036164930E+03  0.00000000000E+00 0. -1.
         -5    1    3    3    0  503  0.97532255611E+02 -0.73448165411E+02 -0.12525036475E+03  0.17497690635E+03  0.47000000000E+01 0.  1.
         11    1    4    4    0    0  0.13359800481E+03  0.13850575186E+02 -0.11990864724E+03  0.18005096224E+03  0.00000000000E+00 0. -1.
        -12    1    4    4    0    0  0.24163383403E+02  0.45417278748E+02 -0.75054656635E+02  0.90993405195E+02  0.00000000000E+00 0.  1.
</event>
<event>
12    1  0.1032880E+000  0.3806905E+03  0.7818608E-02  0.1050710E+00
         21   -1    0    0  503  502  0.00000000000E+00  0.00000000000E+00  0.34252717915E+03  0.34252717915E+03  0.00000000000E+00 0.  1.
         21   -1    0    0  501  503 -0.00000000000E+00 -0.00000000000E+00 -0.47221759188E+03  0.47221759188E+03  0.00000000000E+00 0.  1.
          6    2    1    2  501    0 -0.28794000789E+03 -0.17956660888E+03  0.66998339208E+02  0.38654110842E+03  0.17254459098E+03 0.  0.
         24    2    3    3    0    0 -0.25259528075E+03 -0.20664114349E+03  0.60995183177E+02  0.34137023237E+03  0.79424713647E+02 0.  0.
         -6    2    1    2    0  502  0.28794000789E+03  0.17956660888E+03 -0.19668875194E+03  0.42820366261E+03  0.17180889488E+03 0.  0.
        -24    2    5    5    0    0  0.15568524513E+03  0.17652198869E+03 -0.13227257113E+03  0.28098910376E+03  0.77852009078E+02 0.  0.
          5    1    3    3  501    0 -0.35344727136E+02  0.27074534611E+02  0.60031560306E+01  0.45170876049E+02  0.47000000000E+01 0. -1.
        -11    1    4    4    0    0 -0.72247016499E+02 -0.39012309271E+02  0.47325698868E+02  0.94769791817E+02  0.00000000000E+00 0.  1.
         12    1    4    4    0    0 -0.18034826425E+03 -0.16762883422E+03  0.13669484309E+02  0.24660044056E+03  0.00000000000E+00 0. -1.
         -5    1    5    5    0  502  0.13225476276E+03  0.30446201903E+01 -0.64416180814E+02  0.14721455884E+03  0.47000000000E+01 0.  1.
         11    1    6    6    0    0  0.46350587062E+02  0.62192946693E+02 -0.86763298933E+02  0.11637959263E+03  0.00000000000E+00 0. -1.
        -12    1    6    6    0    0  0.10933465807E+03  0.11432904200E+03 -0.45509272197E+02  0.16460951113E+03  0.00000000000E+00 0.  1.
</event>
<event>
12    1  0.1032880E+000  0.3737297E+03  0.7818608E-02  0.1053293E+00
         21   -1    0    0  501  502  0.00000000000E+00  0.00000000000E+00  0.15404634604E+03  0.15404634604E+03  0.00000000000E+00 0. -1.
         21   -1    0    0  502  503 -0.00000000000E+00 -0.00000000000E+00 -0.95979839082E+03  0.95979839082E+03  0.00000000000E+00 0. -1.
         -6    2    1    2    0  503 -0.17703670074E+03  0.28085746168E+03 -0.27144652185E+03  0.46190593358E+03  0.17161284936E+03 0.  0.
        -24    2    3    3    0    0 -0.94140865930E+02  0.63768174009E+02 -0.12710154044E+03  0.18830578390E+03  0.79846001856E+02 0.  0.
          6    2    1    2  501    0  0.17703670074E+03 -0.28085746168E+03 -0.53430552293E+03  0.65193880328E+03  0.17122763852E+03 0.  0.
         24    2    5    5    0    0  0.14358686667E+03 -0.25250199525E+03 -0.52868387859E+03  0.60747964493E+03  0.71766493819E+02 0.  0.
          5    1    5    5  501    0  0.33449834074E+02 -0.28355466428E+02 -0.56216443389E+01  0.44459158348E+02  0.47000000000E+01 0. -1.
        -13    1    6    6    0    0  0.10051495262E+03 -0.21654471994E+03 -0.38239867968E+03  0.45080330706E+03  0.00000000000E+00 0.  1.
         14    1    6    6    0    0  0.43071914047E+02 -0.35957275306E+02 -0.14628519891E+03  0.15667633787E+03  0.00000000000E+00 0. -1.
         -5    1    3    3    0  503 -0.82895834813E+02  0.21708928767E+03 -0.14434498141E+03  0.27360014968E+03  0.47000000000E+01 0.  1.
         13    1    4    4    0    0 -0.40403585713E+02  0.73297041316E+02 -0.85828638961E+02  0.11988102965E+03  0.00000000000E+00 0. -1.
        -14    1    4    4    0    0 -0.53737280217E+02 -0.95288673065E+01 -0.41272901478E+02  0.68424754246E+02  0.00000000000E+00 0.  1.
</event>
<event>
12    1  0.1032880E+000  0.2462312E+03  0.7818608E-02  0.1117071E+00
         21   -1    0    0  501  502  0.00000000000E+00  0.00000000000E+00  0.49420682562E+02  0.49420682562E+02  0.00000000000E+00 0. -1.
         21   -1    0    0  502  503 -0.00000000000E+00 -0.00000000000E+00 -0.12174096128E+04  0.12174096128E+04  0.00000000000E+00 0.  1.
         -6    2    1    2    0  503  0.85976666465E+02 -0.14024418225E+03 -0.47223912989E+03  0.52879397853E+03  0.17190944740E+03 0.  0.
        -24    2    3    3    0    0  0.24573707247E+02 -0.12721845134E+03 -0.20920264091E+03  0.25833089861E+03  0.78617471128E+02 0.  0.
          6    2    1    2  501    0 -0.85976666465E+02  0.14024418225E+03 -0.69574980036E+03  0.73803631683E+03  0.18321954710E+03 0.  0.
         24    2    5    5    0    0 -0.19983563298E+02  0.15782919038E+03 -0.52060711537E+03  0.54999011963E+03  0.78408972586E+02 0.  0.
          5    1    5    5  501    0 -0.65993103167E+02 -0.17585008137E+02 -0.17514268499E+03  0.18804619720E+03  0.47000000000E+01 0. -1.
        -11    1    6    6    0    0 -0.11450609279E+02  0.13560849266E+03 -0.31675199644E+03  0.34475006452E+03  0.00000000000E+00 0.  1.
         12    1    6    6    0    0 -0.85329540196E+01  0.22220697725E+02 -0.20385511892E+03  0.20524005511E+03  0.00000000000E+00 0. -1.
         -5    1    3    3    0  503  0.61402959218E+02 -0.13025730910E+02 -0.26303648898E+03  0.27046307992E+03  0.47000000000E+01 0.  1.
         13    1    4    4    0    0  0.18461425527E+02 -0.79942503139E+02 -0.59852310178E+02  0.10155750624E+03  0.00000000000E+00 0. -1.
        -14    1    4    4    0    0  0.61122817200E+01 -0.47275948197E+02 -0.14935033073E+03  0.15677339237E+03  0.00000000000E+00 0.  1.
</event>
<event>
12    1  0.1032880E+000  0.2805490E+03  0.7818608E-02  0.1096417E+00
         21   -1    0    0  501  502  0.00000000000E+00  0.00000000000E+00  0.15970809995E+03  0.15970809995E+03  0.00000000000E+00 0.  1.
         21   -1    0    0  502  503 -0.00000000000E+00 -0.00000000000E+00 -0.50468051117E+03  0.50468051117E+03  0.00000000000E+00 0.  1.
         -6    2    1    2    0  503  0.12208977275E+03  0.18476011238E+03 -0.10100026145E+03  0.29817576481E+03  0.17223682002E+03 0.  0.
        -24    2    3    3    0    0  0.53594052733E+02  0.75927239253E+02 -0.11697224499E+03  0.16850906827E+03  0.77945698050E+02 0.  0.
          6    2    1    2  501    0 -0.12208977275E+03 -0.18476011238E+03 -0.24397214977E+03  0.36621284631E+03  0.15983499993E+03 0.  0.
         24    2    5    5    0    0 -0.27550768845E+02 -0.60348041115E+02 -0.15491056702E+03  0.18629608151E+03  0.79423014799E+02 0.  0.
          5    1    5    5  501    0 -0.94539003906E+02 -0.12441207126E+03 -0.89061582749E+02  0.17991676480E+03  0.47000000000E+01 0. -1.
        -13    1    6    6    0    0 -0.49021115213E+02 -0.14967347901E+02 -0.96565258462E+02  0.10932493028E+03  0.00000000000E+00 0.  1.
         14    1    6    6    0    0  0.21470346368E+02 -0.45380693214E+02 -0.58345308561E+02  0.76971151225E+02  0.00000000000E+00 0. -1.
         -5    1    3    3    0  503  0.68495720018E+02  0.10883287312E+03  0.15971983535E+02  0.12966669654E+03  0.47000000000E+01 0.  1.
         11    1    4    4    0    0  0.23231420240E+02  0.73129100618E+02 -0.11461325648E+03  0.13792665734E+03  0.00000000000E+00 0. -1.
        -12    1    4    4    0    0  0.30362632493E+02  0.27981386354E+01 -0.23589885032E+01  0.30582410933E+02  0.00000000000E+00 0.  1.
</event>
<event>
12    1  0.1032880E+000  0.1755771E+03  0.7818608E-02  0.1172921E+00
         21   -1    0    0  503  502  0.00000000000E+00  0.00000000000E+00  0.62117280150E+03  0.62117280150E+03  0.00000000000E+00 0.  1.
         21   -1    0    0  501  503 -0.00000000000E+00 -0.00000000000E+00 -0.48930359549E+02  0.48930359549E+02  0.00000000000E+00 0.  1.
          6    2    1    2  501    0 -0.23706062139E+02 -0.16960257641E+02  0.30269995626E+03  0.34841935410E+03  0.17005632911E+03 0.  0.
         24    2    3    3    0    0 -0.12692185035E+02  0.56336700490E+01  0.51576919940E+02  0.95997761465E+02  0.79765667656E+02 0.  0.
         -6    2    1    2    0  502  0.23706062139E+02  0.16960257641E+02  0.26954248569E+03  0.32168380695E+03  0.17314067211E+03 0.  0.
        -24    2    5    5    0    0 -0.26706962766E+01 -0.54626029514E+02  0.18152615646E+03  0.20511067924E+03  0.78278410431E+02 0.  0.
          5    1    3    3  501    0 -0.11013877104E+02 -0.22593927690E+02  0.25112303632E+03  0.25242159263E+03  0.47000000000E+01 0. -1.
        -11    1    4    4    0    0  0.20841675477E+02  0.31943972906E+02  0.27733156228E+02  0.47158464734E+02  0.00000000000E+00 0.  1.
         12    1    4    4    0    0 -0.33533860512E+02 -0.26310302856E+02  0.23843763712E+02  0.48839296731E+02  0.00000000000E+00 0. -1.
         -5    1    5    5    0  502  0.26376758415E+02  0.71586287155E+02  0.88016329229E+02  0.11657312771E+03  0.47000000000E+01 0.  1.
         13    1    6    6    0    0 -0.36746461726E+02 -0.10170601676E+02  0.90888410624E+02  0.98561893111E+02  0.00000000000E+00 0. -1.
        -14    1    6    6    0    0  0.34075765449E+02 -0.44455427838E+02  0.90637745838E+02  0.10654878613E+03  0.00000000000E+00 0.  1.
</event>
<event>
12    1  0.1032880E+000  0.5404755E+03  0.7818608E-02  0.1003723E+00
         21   -1    0    0  503  502  0.00000000000E+00  0.00000000000E+00  0.14081250602E+04  0.14081250602E+04  0.00000000000E+00 0.  1.
         21   -1    0    0  501  503 -0.00000000000E+00 -0.00000000000E+00 -0.23505608071E+03  0.23505608071E+03  0.00000000000E+00 0.  1.
          6    2    1    2  501    0  0.45631710353E+03  0.23254255325E+03  0.30495437903E+03  0.62057306936E+03  0.17266274377E+03 0.  0.
         24    2    3    3    0    0  0.22291195742E+03  0.11243943725E+03  0.22749294075E+03  0.34684860001E+03  0.78857754390E+02 0.  0.
         -6    2    1    2    0  502 -0.45631710353E+03 -0.23254255325E+03  0.86811460044E+03  0.10226080715E+04  0.17263536833E+03 0.  0.
        -24    2    5    5    0    0 -0.18006436237E+03 -0.13417665509E+03  0.29983673002E+03  0.38311354072E+03  0.80295523194E+02 0.  0.
          5    1    3    3  501    0  0.23340514611E+03  0.12010311599E+03  0.77461438277E+02  0.27372446935E+03  0.47000000000E+01 0. -1.
        -11    1    4    4    0    0  0.59743974945E+02 -0.54787754836E+01  0.43355717197E+02  0.74020792597E+02  0.00000000000E+00 0.  1.
         12    1    4    4    0    0  0.16316798248E+03  0.11791821274E+03  0.18413722355E+03  0.27282780742E+03  0.00000000000E+00 0. -1.
         -5    1    5    5    0  502 -0.27625274116E+03 -0.98365898164E+02  0.56827787043E+03  0.63949453081E+03  0.47000000000E+01 0.  1.
         13    1    6    6    0    0 -0.13547954345E+03 -0.78230658764E+02  0.14841228339E+03  0.21564078586E+03  0.00000000000E+00 0. -1.
        -14    1    6    6    0    0 -0.44584818920E+02 -0.55945996321E+02  0.15142444663E+03  0.16747275486E+03  0.00000000000E+00 0.  1.
</event>
<event>
12    1  0.1032880E+000  0.2884529E+03  0.7818608E-02  0.1091482E+00
         21   -1    0    0  501  502  0.00000000000E+00  0.00000000000E+00  0.13696732609E+03  0.13696732609E+03  0.00000000000E+00 0.  1.
         21   -1    0    0  502  503 -0.00000000000E+00 -0.00000000000E+00 -0.60444694897E+03  0.60444694897E+03  0.00000000000E+00 0.  1.
         -6    2    1    2    0  503  0.19112415654E+02 -0.23176570611E+03 -0.25456925663E+03  0.38289523760E+03  0.16650113991E+03 0.  0.
        -24    2    3    3    0    0  0.72651551868E+02 -0.10094181944E+03 -0.13117108493E+03  0.19519726955E+03  0.73679180347E+02 0.  0.
          6    2    1    2  501    0 -0.19112415654E+02  0.23176570611E+03 -0.21291036626E+03  0.35851903747E+03  0.17065886793E+03 0.  0.
         24    2    5    5    0    0 -0.77295763861E+02  0.16705273406E+03 -0.13791132664E+03  0.24354070601E+03  0.80070533915E+02 0.  0.
          5    1    5    5  501    0  0.58183348206E+02  0.64712972055E+02 -0.74999039616E+02  0.11497833145E+03  0.47000000000E+01 0. -1.
        -13    1    6    6    0    0 -0.11777035173E+02  0.18075900226E+02  0.98554226181E+01  0.23718475529E+02  0.00000000000E+00 0.  1.
         14    1    6    6    0    0 -0.65518728688E+02  0.14897683383E+03 -0.14776674926E+03  0.21982223048E+03  0.00000000000E+00 0. -1.
         -5    1    3    3    0  503 -0.53539136214E+02 -0.13082388667E+03 -0.12339817170E+03  0.18769796805E+03  0.47000000000E+01 0.  1.
         13    1    4    4    0    0  0.63836401074E+02 -0.11177138075E+03 -0.10744659854E+03  0.16766842039E+03  0.00000000000E+00 0. -1.
        -14    1    4    4    0    0  0.88151507939E+01  0.10829561311E+02 -0.23724486387E+02  0.27528849159E+02  0.00000000000E+00 0.  1.
</event>
<event>
12    1  0.1032880E+000  0.2365447E+03  0.7818608E-02  0.1122719E+00
         21   -1    0    0  503  502  0.00000000000E+00  0.00000000000E+00  0.18180781104E+03  0.18180781104E+03  0.00000000000E+00 0. -1.
         21   -1    0    0  501  503 -0.00000000000E+00 -0.00000000000E+00 -0.11885036795E+04  0.11885036795E+04  0.00000000000E+00 0.  1.
          6    2    1    2  501    0 -0.60378097691E+02 -0.14614382171E+03  0.88950384530E+02  0.24942161811E+03  0.17115911126E+03 0.  0.
         24    2    3    3    0    0 -0.22831524943E+02 -0.56323176971E+02 -0.21262674975E+02  0.10229411616E+03  0.79488402033E+02 0.  0.
         -6    2    1    2    0  502  0.60378097691E+02  0.14614382171E+03 -0.10956462529E+04  0.11208898724E+04  0.17592573178E+03 0.  0.
        -24    2    5    5    0    0  0.61114057903E+02  0.12230189562E+03 -0.50193944716E+03  0.52668549650E+03  0.82229689675E+02 0.  0.
          5    1    3    3  501    0 -0.37546572748E+02 -0.89820644737E+02  0.11021305951E+03  0.14712750196E+03  0.47000000000E+01 0. -1.
        -13    1    4    4    0    0  0.23346953578E+02 -0.49768040834E+01 -0.23091815358E+02  0.33212659586E+02  0.00000000000E+00 0.  1.
         14    1    4    4    0    0 -0.46178478521E+02 -0.51346372888E+02  0.18291403828E+01  0.69081456570E+02  0.00000000000E+00 0. -1.
         -5    1    5    5    0  502 -0.73596021205E+00  0.23841926093E+02 -0.59370680578E+03  0.59420437588E+03  0.47000000000E+01 0.  1.
         11    1    6    6    0    0  0.45689146691E+02  0.13936810474E+02 -0.11407855028E+03  0.12367557740E+03  0.00000000000E+00 0. -1.
        -12    1    6    6    0    0  0.15424911212E+02  0.10836508514E+03 -0.38786089689E+03  0.40300991911E+03  0.00000000000E+00 0.  1.
</event>
<event>
12    1  0.1032880E+000  0.1871193E+03  0.7818608E-02  0.1161851E+00
         21   -1    0    0  503  502  0.00000000000E+00  0.00000000000E+00  0.66535875044E+03  0.66535875044E+03  0.00000000000E+00 0.  1.
         21   -1    0    0  501  503 -0.00000000000E+00 -0.00000000000E+00 -0.67861924883E+02  0.67861924883E+02  0.00000000000E+00 0.  1.
          6    2    1    2  501    0  0.57233776749E+02 -0.30931103849E+02  0.11782616884E+03  0.21834440599E+03  0.17192683088E+03 0.  0.
         24    2    3    3    0    0 -0.20805601684E+02 -0.27255621718E+02  0.10905512417E+03  0.13958734294E+03  0.80099090045E+02 0.  0.
         -6    2    1    2    0  502 -0.57233776749E+02  0.30931103849E+02  0.47967065672E+03  0.51487626934E+03  0.17544570506E+03 0.  0.
        -24    2    5    5    0    0 -0.28836393370E+01 -0.41075355837E+02  0.30762866980E+03  0.32055848082E+03  0.80167580144E+02 0.  0.
          5    1    3    3  501    0  0.78039378433E+02 -0.36754821313E+01  0.87710446747E+01  0.78757063047E+02  0.47000000000E+01 0. -1.
        -11    1    4    4    0    0  0.68334199324E+01  0.19309295203E+02  0.69698644375E+02  0.72646029052E+02  0.00000000000E+00 0.  1.
         12    1    4    4    0    0 -0.27639021617E+02 -0.46564916921E+02  0.39356479790E+02  0.66941313890E+02  0.00000000000E+00 0. -1.
         -5    1    5    5    0  502 -0.54350137412E+02  0.72006459686E+02  0.17204198692E+03  0.19431778852E+03  0.47000000000E+01 0.  1.
         13    1    6    6    0    0  0.15799195467E+02  0.73129053591E+01  0.20332823185E+03  0.20407220053E+03  0.00000000000E+00 0. -1.
        -14    1    6    6    0    0 -0.18682834804E+02 -0.48388261196E+02  0.10430043796E+03  0.11648628029E+03  0.00000000000E+00 0.  1.
</event>
<event>
12    1  0.1032880E+000  0.1944313E+03  0.7818608E-02  0.1154729E+00
         21   -1    0    0  501  502  0.00000000000E+00  0.00000000000E+00  0.15363602136E+04  0.15363602136E+04  0.00000000000E+00 0. -1.
         21   -1    0    0  502  503 -0.00000000000E+00 -0.00000000000E+00 -0.25993806297E+02  0.25993806297E+02  0.00000000000E+00 0. -1.
         -6    2    1    2    0  503  0.68785898609E+02 -0.56661608504E+02  0.94149655422E+03  0.96117480297E+03  0.17175331884E+03 0.  0.
        -24    2    3    3    0    0  0.90455334760E+02 -0.55831457722E+02  0.45419407979E+03  0.47336741763E+03  0.80530309163E+02 0.  0.
          6    2    1    2  501    0 -0.68785898609E+02  0.56661608504E+02  0.56886985312E+03  0.60117921697E+03  0.17280481299E+03 0.  0.
         24    2    5    5    0    0 -0.29431601858E+02  0.94825409318E+02  0.47922208407E+03  0.49599343436E+03  0.80607714469E+02 0.  0.
          5    1    5    5  501    0 -0.39354296751E+02 -0.38163800814E+02  0.89647769055E+02  0.10518578260E+03  0.47000000000E+01 0. -1.
        -13    1    6    6    0    0 -0.54393486766E+02  0.40175551106E+02  0.26708768176E+03  0.27551507410E+03  0.00000000000E+00 0.  1.
         14    1    6    6    0    0  0.24961884908E+02  0.54649858212E+02  0.21213440231E+03  0.22047836026E+03  0.00000000000E+00 0. -1.
         -5    1    3    3    0  503 -0.21669436151E+02 -0.83015078219E+00  0.48730247443E+03  0.48780738534E+03  0.47000000000E+01 0.  1.
         13    1    4    4    0    0  0.29427311623E+02  0.23349330631E-01  0.33384259509E+02  0.44502539226E+02  0.00000000000E+00 0. -1.
        -14    1    4    4    0    0  0.61028023137E+02 -0.55854807053E+02  0.42080982028E+03  0.42886487840E+03  0.00000000000E+00 0.  1.
</event>
<event>
12    1  0.1032880E+000  0.1902935E+03  0.7818608E-02  0.1158354E+00
         21   -1    0    0  503  502  0.00000000000E+00  0.00000000000E+00  0.58505680567E+02  0.58505680567E+02  0.00000000000E+00 0.  1.
         21   -1    0    0  501  503 -0.00000000000E+00 -0.00000000000E+00 -0.61701401288E+03  0.61701401288E+03  0.00000000000E+00 0.  1.
          6    2    1    2  501    0  0.22462890174E+02  0.74650332895E+02 -0.27078918854E+03  0.33056474735E+03  0.17282654289E+03 0.  0.
         24    2    3    3    0    0 -0.47312164336E+02  0.21587522563E+02 -0.18130617597E+03  0.20521116898E+03  0.80840784298E+02 0.  0.
         -6    2    1    2    0  502 -0.22462890174E+02 -0.74650332895E+02 -0.28771914377E+03  0.34495494609E+03  0.17359249841E+03 0.  0.
        -24    2    5    5    0    0  0.46018913141E+02 -0.27103517428E+02 -0.21619093994E+03  0.23500572604E+03  0.75078810164E+02 0.  0.
          5    1    3    3  501    0  0.69775054510E+02  0.53062810332E+02 -0.89483012574E+02  0.12535357838E+03  0.47000000000E+01 0. -1.
        -11    1    4    4    0    0 -0.28030930565E+02 -0.17960829558E+02 -0.21910842256E+02  0.39854855101E+02  0.00000000000E+00 0.  1.
         12    1    4    4    0    0 -0.19281233772E+02  0.39548352120E+02 -0.15939533371E+03  0.16535631388E+03  0.00000000000E+00 0. -1.
         -5    1    5    5    0  502 -0.68481803315E+02 -0.47546815467E+02 -0.71528203833E+02  0.10994922005E+03  0.47000000000E+01 0.  1.
         11    1    6    6    0    0 -0.73355947363E+01  0.18498851047E+02 -0.71058933716E+02  0.73792889231E+02  0.00000000000E+00 0. -1.
        -12    1    6    6    0    0  0.53354507878E+02 -0.45602368475E+02 -0.14513200622E+03  0.16121283681E+03  0.00000000000E+00 0.  1.
</event>
<event>
12    1  0.1032880E+000  0.2885355E+03  0.7818608E-02  0.1091234E+00
         21   -1    0    0  501  502  0.00000000000E+00  0.00000000000E+00  0.50221122773E+02  0.50221122773E+02  0.00000000000E+00 0.  1.
         21   -1    0    0  502  503 -0.00000000000E+00 -0.00000000000E+00 -0.19930859200E+04  0.19930859200E+04  0.00000000000E+00 0.  1.
         -6    2    1    2    0  503  0.10751749000E+03  0.20394727962E+03 -0.13924549909E+04  0.14218541354E+04  0.17199935218E+03 0.  0.
        -24    2    3    3    0    0  0.40333422208E+02  0.16591079201E+03 -0.11975287579E+04  0.12121429062E+04  0.77859637298E+02 0.  0.
          6    2    1    2  501    0 -0.10751749000E+03 -0.20394727962E+03 -0.55040980629E+03  0.62145290733E+03  0.17348849430E+03 0.  0.
         24    2    5    5    0    0 -0.13236867985E+03 -0.20018144486E+03 -0.53462661908E+03  0.59140357878E+03  0.79614652525E+02 0.  0.
          5    1    5    5  501    0  0.24851189842E+02 -0.37658347590E+01 -0.15783187207E+02  0.30049328552E+02  0.47000000000E+01 0. -1.
        -11    1    6    6    0    0 -0.19190880016E+02  0.54533410265E-01 -0.75293988394E+02  0.77701206798E+02  0.00000000000E+00 0.  1.
         12    1    6    6    0    0 -0.11317779983E+03 -0.20023597827E+03 -0.45933263068E+03  0.51370237198E+03  0.00000000000E+00 0. -1.
         -5    1    3    3    0  503  0.67184067796E+02  0.38036487610E+02 -0.19492623302E+03  0.20971122925E+03  0.47000000000E+01 0.  1.
         13    1    4    4    0    0  0.50531985919E+02  0.49748089833E+02 -0.43060337541E+03  0.43640304875E+03  0.00000000000E+00 0. -1.
        -14    1    4    4    0    0 -0.10198563711E+02  0.11616270218E+03 -0.76692538249E+03  0.77573985742E+03  0.00000000000E+00 0.  1.
</event>
<event>
12    1  0.1032880E+000  0.3248367E+03  0.7818608E-02  0.1073666E+00
         21   -1    0    0  501  502  0.00000000000E+00  0.00000000000E+00  0.18062211461E+03  0.18062211461E+03  0.00000000000E+00 0. -1.
         21   -1    0    0  502  503 -0.00000000000E+00 -0.00000000000E+00 -0.58463446038E+03  0.58463446038E+03  0.00000000000E+00 0.  1.
         -6    2    1    2    0  503 -0.27328705393E+03  0.25364519721E+01 -0.17117929674E+03  0.36718012852E+03  0.17557519104E+03 0.  0.
        -24    2    3    3    0    0 -0.91197296871E+02  0.55751326480E+02 -0.51069819788E+02  0.14259856438E+03  0.79379258689E+02 0.  0.
          6    2    1    2  501    0  0.27328705393E+03 -0.25364519721E+01 -0.23283304902E+03  0.39807644647E+03  0.17193423475E+03 0.  0.
         24    2    5    5    0    0  0.16265076795E+03 -0.42558840703E+02 -0.20451722079E+03  0.27697295559E+03  0.81364594819E+02 0.  0.
          5    1    5    5  501    0  0.11063628598E+03  0.40022388730E+02 -0.28315828238E+02  0.12110349088E+03  0.47000000000E+01 0. -1.
        -13    1    6    6    0    0  0.95554495428E+01 -0.25679641562E+02 -0.10715640857E+02  0.29420665623E+02  0.00000000000E+00 0.  1.
         14    1    6    6    0    0  0.15309531841E+03 -0.16879199140E+02 -0.19380157993E+03  0.24755228996E+03  0.00000000000E+00 0. -1.
         -5    1    3    3    0  503 -0.18208975706E+03 -0.53214874508E+02 -0.12010947696E+03  0.22458156414E+03  0.47000000000E+01 0.  1.
         11    1    4    4    0    0 -0.53080604739E+02 -0.10423375092E+02 -0.35377438150E+02  0.64635597606E+02  0.00000000000E+00 0. -1.
        -12    1    4    4    0    0 -0.38116692132E+02  0.66174701572E+02 -0.15692381638E+02  0.77962966777E+02  0.00000000000E+00 0.  1.
</event>
<event>
12    1  0.1032880E+000  0.6279348E+03  0.7818608E-02  0.9849291E-01
         21   -1    0    0  503  502  0.00000000000E+00  0.00000000000E+00  0.45112681344E+03  0.45112681344E+03  0.00000000000E+00 0.  1.
         21   -1    0    0  501  503 -0.00000000000E+00 -0.00000000000E+00 -0.11303411065E+04  0.11303411065E+04  0.00000000000E+00 0.  1.
          6    2    1    2  501    0 -0.29628073647E+03  0.52575122253E+03 -0.71647762630E+03  0.95242846028E+03  0.17199755862E+03 0.  0.
         24    2    3    3    0    0 -0.12550599887E+03  0.25157174969E+03 -0.27533166921E+03  0.40564674900E+03  0.98496984291E+02 0.  0.
         -6    2    1    2    0  502  0.29628073647E+03 -0.52575122253E+03  0.37263333238E+02  0.62903945966E+03  0.17350925916E+03 0.  0.
        -24    2    5    5    0    0  0.27356582571E+03 -0.39620652443E+03 -0.13403025507E+02  0.48801830563E+03  0.78513403551E+02 0.  0.
          5    1    3    3  501    0 -0.17077473760E+03  0.27417947284E+03 -0.44114595709E+03  0.54678171128E+03  0.47000000000E+01 0. -1.
        -13    1    4    4    0    0  0.20179878212E+01 -0.80394645581E+01 -0.11329403687E+02  0.14037829360E+02  0.00000000000E+00 0.  1.
         14    1    4    4    0    0 -0.12752398669E+03  0.25961121425E+03 -0.26400226552E+03  0.39160891964E+03  0.00000000000E+00 0. -1.
         -5    1    5    5    0  502  0.22714910755E+02 -0.12954469810E+03  0.50666358745E+02  0.14102115403E+03  0.47000000000E+01 0.  1.
         13    1    6    6    0    0  0.13548338244E+03 -0.24362273341E+03  0.20255916084E+02  0.27949612750E+03  0.00000000000E+00 0. -1.
        -14    1    6    6    0    0  0.13808244328E+03 -0.15258379103E+03 -0.33658941592E+02  0.20852217814E+03  0.00000000000E+00 0.  1.
</event>
<event>
12    1  0.1032880E+000  0.2194251E+03  0.7818608E-02  0.1134831E+00
         21   -1    0    0  501  502  0.00000000000E+00  0.00000000000E+00  0.43751443290E+02  0.43751443290E+02  0.00000000000E+00 0. -1.
         21   -1    0    0  502  503 -0.00000000000E+00 -0.00000000000E+00 -0.11503853754E+04  0.11503853754E+04  0.00000000000E+00 0. -1.
         -6    2    1    2    0  503 -0.12698306735E+03  0.43253062534E+02 -0.41614188904E+03  0.47044812538E+03  0.17364285200E+03 0.  0.
        -24    2    3    3    0    0 -0.91037455198E+02  0.15341708081E+02 -0.10428288941E+03  0.15525095472E+03  0.68591192320E+02 0.  0.
          6    2    1    2  501    0  0.12698306735E+03 -0.43253062534E+02 -0.69049204311E+03  0.72368869335E+03  0.17014857174E+03 0.  0.
         24    2    5    5    0    0  0.66132494584E+02 -0.93613590717E+02 -0.40858631403E+03  0.43088858219E+03  0.74734082201E+02 0.  0.
          5    1    5    5  501    0  0.60850572766E+02  0.50360528183E+02 -0.28190572908E+03  0.29280011116E+03  0.47000000000E+01 0. -1.
        -11    1    6    6    0    0 -0.13353374813E+02 -0.34020516409E+02 -0.13354074201E+03  0.13845157251E+03  0.00000000000E+00 0.  1.
         12    1    6    6    0    0  0.79485869397E+02 -0.59593074308E+02 -0.27504557203E+03  0.29243700968E+03  0.00000000000E+00 0. -1.
         -5    1    3    3    0  503 -0.35945612153E+02  0.27911354453E+02 -0.31185899963E+03  0.31519717066E+03  0.47000000000E+01 0.  1.
         13    1    4    4    0    0 -0.61914516382E+01 -0.19874253337E+02 -0.83537883213E+01  0.22430020027E+02  0.00000000000E+00 0. -1.
        -14    1    4    4    0    0 -0.84846003560E+02  0.35215961418E+02 -0.95929101087E+02  0.13282093470E+03  0.00000000000E+00 0.  1.
</event>
<event>
12    1  0.1032880E+000  0.1756728E+03  0.7818608E-02  0.1172173E+00
         21   -1    0    0  501  502  0.00000000000E+00  0.00000000000E+00  0.12227437804E+03  0.12227437804E+03  0.00000000000E+00 0.  1.
         21   -1    0    0  502  503 -0.00000000000E+00 -0.00000000000E+00 -0.57923901723E+03  0.57923901723E+03  0.00000000000E+00 0.  1.
         -6    2    1    2    0  503  0.20333845886E+02  0.29586505684E+02 -0.49210019991E+03  0.52236141809E+03  0.17149349186E+03 0.  0.
        -24    2    3    3    0    0 -0.11968140388E+02  0.78985976267E+02 -0.37959482396E+03  0.39522654629E+03  0.75695255343E+02 0.  0.
          6    2    1    2  501    0 -0.20333845886E+02 -0.29586505684E+02  0.35135560730E+02  0.17915197718E+03  0.17196539388E+03 0.  0.
         24    2    5    5    0    0 -0.19740804512E+02 -0.52189033147E+02 -0.36764365390E+02  0.10363432810E+03  0.79215281702E+02 0.  0.
          5    1    5    5  501    0 -0.59304137379E+00  0.22602527463E+02  0.71899926121E+02  0.75517649076E+02  0.47000000000E+01 0. -1.
        -11    1    6    6    0    0  0.71729583519E+01 -0.58289054981E+02 -0.45929381967E+02  0.74555840750E+02  0.00000000000E+00 0.  1.
         12    1    6    6    0    0 -0.26913762864E+02  0.61000218340E+01  0.91650165764E+01  0.29078487352E+02  0.00000000000E+00 0. -1.
         -5    1    3    3    0  503  0.32301986273E+02 -0.49399470583E+02 -0.11250537595E+03  0.12713487180E+03  0.47000000000E+01 0.  1.
         11    1    4    4    0    0  0.10856653867E+02 -0.11643118202E+02 -0.72401692583E+02  0.74131196021E+02  0.00000000000E+00 0. -1.
        -12    1    4    4    0    0 -0.22824794254E+02  0.90629094469E+02 -0.30719313138E+03  0.32109535027E+03  0.00000000000E+00 0.  1.
</event>
<event>
12    1  0.1032880E+000  0.2136494E+03  0.7818608E-02  0.1138986E+00
         21   -1    0    0  501  502  0.00000000000E+00  0.00000000000E+00  0.18637825060E+04  0.18637825060E+04  0.00000000000E+00 0.  1.
         21   -1    0    0  502  503 -0.00000000000E+00 -0.00000000000E+00 -0.37289411107E+02  0.37289411107E+02  0.00000000000E+00 0.  1.
         -6    2    1    2    0  503  0.93981427887E+02  0.81937761048E+02  0.35083128316E+03  0.41002401233E+03  0.17172884432E+03 0.  0.
        -24    2    3    3    0    0  0.36173713682E+02  0.99436264714E+02  0.14926243163E+03  0.19954830979E+03  0.79650148417E+02 0.  0.
          6    2    1    2  501    0 -0.93981427887E+02 -0.81937761048E+02  0.14756618117E+04  0.14910479047E+04  0.17349284208E+03 0.  0.
         24    2    5    5    0    0 -0.11776068073E+03 -0.35198267467E+02  0.79151175428E+03  0.80487487686E+03  0.78906363985E+02 0.  0.
          5    1    5    5  501    0  0.23779252844E+02 -0.46739493581E+02  0.68415005741E+03  0.68617302788E+03  0.47000000000E+01 0. -1.
        -11    1    6    6    0    0 -0.10673666980E+02  0.60745670667E+01  0.12752613222E+02  0.17704707731E+02  0.00000000000E+00 0.  1.
         12    1    6    6    0    0 -0.10708701375E+03 -0.41272834533E+02  0.77875914106E+03  0.78717016913E+03  0.00000000000E+00 0. -1.
         -5    1    3    3    0  503  0.57807714205E+02 -0.17498503666E+02  0.20156885153E+03  0.21047570254E+03  0.47000000000E+01 0.  1.
         13    1    4    4    0    0  0.35187776389E+02  0.10406815131E+02  0.75434719234E+02  0.83886102987E+02  0.00000000000E+00 0. -1.
        -14    1    4    4    0    0  0.98593729348E+00  0.89029449583E+02  0.73827712394E+02  0.11566220680E+03  0.00000000000E+00 0.  1.
</event>
<event>
12    1  0.1032880E+000  0.1991468E+03  0.7818608E-02  0.1150468E+00
         21   -1    0    0  501  502  0.00000000000E+00  0.00000000000E+00  0.70208050822E+02  0.70208050822E+02  0.00000000000E+00 0.  1.
         21   -1    0    0  502  503 -0.00000000000E+00 -0.00000000000E+00 -0.12073561658E+04  0.12073561658E+04  0.00000000000E+00 0.  1.
         -6    2    1    2    0  503  0.98489594191E+02 -0.20429933251E+02 -0.10258774668E+03  0.22401715372E+03  0.17187744778E+03 0.  0.
        -24    2    3    3    0    0  0.66270606262E+02 -0.29512808599E+02 -0.14032741489E+03  0.17335223129E+03  0.71389170029E+02 0.  0.
          6    2    1    2  501    0 -0.98489594191E+02  0.20429933251E+02 -0.10345603683E+04  0.10535470629E+04  0.17183909847E+03 0.  0.
         24    2    5    5    0    0 -0.11194243268E+03  0.44816092966E+02 -0.61997100323E+03  0.63799671063E+03  0.90200706778E+02 0.  0.
          5    1    5    5  501    0  0.13452838486E+02 -0.24386159715E+02 -0.41458936507E+03  0.41555035227E+03  0.47000000000E+01 0. -1.
        -13    1    6    6    0    0 -0.64307411921E+02 -0.15286687017E+02 -0.39036362393E+03  0.39592030122E+03  0.00000000000E+00 0.  1.
         14    1    6    6    0    0 -0.47635020756E+02  0.60102779984E+02 -0.22960737930E+03  0.24207640941E+03  0.00000000000E+00 0. -1.
         -5    1    3    3    0  503  0.32218987928E+02  0.90828753479E+01  0.37739668212E+02  0.50664922426E+02  0.47000000000E+01 0.  1.
         11    1    4    4    0    0  0.79590592079E+02 -0.18103797305E+02 -0.98029650211E+02  0.12756262048E+03  0.00000000000E+00 0. -1.
        -12    1    4    4    0    0 -0.13319985816E+02 -0.11409011294E+02 -0.42297764678E+02  0.45789610804E+02  0.00000000000E+00 0.  1.
</event>
<event>
12    1  0.1032880E+000  0.2265397E+03  0.7818608E-02  0.1129427E+00
         21   -1    0    0  501  502  0.00000000000E+00  0.00000000000E+00  0.66536667793E+03  0.66536667793E+03  0.00000000000E+00 0.  1.
         21   -1    0    0  502  503 -0.00000000000E+00 -0.00000000000E+00 -0.77838403890E+02  0.77838403890E+02  0.00000000000E+00 0.  1.
         -6    2    1    2    0  503  0.86149016330E+02 -0.11951479391E+03  0.34109581979E+03  0.40846757991E+03  0.16968785043E+03 0.  0.
        -24    2    3    3    0    0 -0.15775118304E+02 -0.32732458017E+02  0.92905284612E+02  0.12643861900E+03  0.77685676283E+02 0.  0.
          6    2    1    2  501    0 -0.86149016330E+02  0.11951479391E+03  0.24643245426E+03  0.33473750191E+03  0.17208951652E+03 0.  0.
         24    2    5    5    0    0 -0.16596575861E+02  0.11710986991E+03  0.11715683008E+03  0.18784433447E+03  0.87003466589E+02 0.  0.
          5    1    5    5  501    0 -0.69552440469E+02  0.24049240071E+01  0.12927562418E+03  0.14689316744E+03  0.47000000000E+01 0. -1.
        -11    1    6    6    0    0 -0.37366723739E+02  0.19377984573E+02  0.58219317088E+02  0.71841959963E+02  0.00000000000E+00 0.  1.
         12    1    6    6    0    0  0.20770147878E+02  0.97731885333E+02  0.58937512991E+02  0.11600237451E+03  0.00000000000E+00 0. -1.
         -5    1    3    3    0  503  0.10192413463E+03 -0.86782335896E+02  0.24819053517E+03  0.28202896092E+03  0.47000000000E+01 0.  1.
         11    1    4    4    0    0 -0.19342052280E+02 -0.15482582406E+02  0.10313481819E+03  0.10606892131E+03  0.00000000000E+00 0. -1.
        -12    1    4    4    0    0  0.35669339755E+01 -0.17249875611E+02 -0.10229533580E+02  0.20369697687E+02  0.00000000000E+00 0.  1.
</event>
<event>
12    1  0.1032880E+000  0.2176758E+03  0.7818608E-02  0.1135738E+00
         21   -1    0    0  501  502  0.00000000000E+00  0.00000000000E+00  0.18728816961E+03  0.18728816961E+03  0.00000000000E+00 0. -1.
         21   -1    0    0  502  503 -0.00000000000E+00 -0.00000000000E+00 -0.30351712465E+03  0.30351712465E+03  0.00000000000E+00 0. -1.
         -6    2    1    2    0  503  0.11368100296E+03 -0.69295269713E+02 -0.15897272774E+03  0.26954609680E+03  0.17221371982E+03 0.  0.
        -24    2    3    3    0    0  0.40893662102E+02 -0.30139466187E+01 -0.14450428326E+03  0.16993366451E+03  0.79464375536E+02 0.  0.
          6    2    1    2  501    0 -0.11368100296E+03  0.69295269713E+02  0.42743772699E+02  0.22125919746E+03  0.17147418907E+03 0.  0.
         24    2    5    5    0    0 -0.59182251161E+02  0.20635737616E+02  0.87728515346E+02  0.13533143080E+03  0.81791999842E+02 0.  0.
          5    1    5    5  501    0 -0.54498751801E+02  0.48659532097E+02 -0.44984742647E+02  0.85927766658E+02  0.47000000000E+01 0. -1.
        -11    1    6    6    0    0 -0.31529096870E+02 -0.25359076919E+02  0.11424021979E+02  0.42043727353E+02  0.00000000000E+00 0.  1.
         12    1    6    6    0    0 -0.27653154291E+02  0.45994814534E+02  0.76304493368E+02  0.93287703447E+02  0.00000000000E+00 0. -1.
         -5    1    3    3    0  503  0.72787340860E+02 -0.66281323094E+02 -0.14468444485E+02  0.99612432288E+02  0.47000000000E+01 0.  1.
         11    1    4    4    0    0 -0.22189057441E+02  0.29758257375E+01 -0.19096487938E+02  0.29425935168E+02  0.00000000000E+00 0. -1.
        -12    1    4    4    0    0  0.63082719543E+02 -0.59897723563E+01 -0.12540779532E+03  0.14050772934E+03  0.00000000000E+00 0.  1.
</event>
<event>
12    1  0.1032880E+000  0.4352303E+03  0.7818608E-02  0.1032360E+00
         21   -1    0    0  503  502  0.00000000000E+00  0.00000000000E+00  0.25531797656E+03  0.25531797656E+03  0.00000000000E+00 0.  1.
         21   -1    0    0  501  503 -0.00000000000E+00 -0.00000000000E+00 -0.73897157455E+03  0.73897157455E+03  0.00000000000E+00 0. -1.
          6    2    1    2  501    0 -0.39906223648E+03 -0.24667630563E+02 -0.24818384659E+03  0.50101956118E+03  0.17194830152E+03 0.  0.
         24    2    3    3    0    0 -0.24365275127E+03  0.38159667106E+02 -0.10928618803E+03  0.28327193897E+03  0.86467896450E+02 0.  0.
         -6    2    1    2    0  502  0.39906223648E+03  0.24667630563E+02 -0.23546975139E+03  0.49326998992E+03  0.16736223755E+03 0.  0.
        -24    2    5    5    0    0  0.13511295301E+03 -0.39677742080E+02 -0.86531126799E+02  0.18340815762E+03  0.79505239371E+02 0.  0.
          5    1    3    3  501    0 -0.15540948521E+03 -0.62827297669E+02 -0.13889765857E+03  0.21774762222E+03  0.47000000000E+01 0. -1.
        -11    1    4    4    0    0 -0.52869945851E+02 -0.26242570017E+02 -0.14832939621E+02  0.60859836946E+02  0.00000000000E+00 0.  1.
         12    1    4    4    0    0 -0.19078280542E+03  0.64402237122E+02 -0.94453248407E+02  0.22241210202E+03  0.00000000000E+00 0. -1.
         -5    1    5    5    0  502  0.26394928347E+03  0.64345372644E+02 -0.14893862459E+03  0.30986183231E+03  0.47000000000E+01 0.  1.
         11    1    6    6    0    0  0.11737302699E+03 -0.89727029593E+01 -0.89423203847E+02  0.14782911164E+03  0.00000000000E+00 0. -1.
        -12    1    6    6    0    0  0.17739926020E+02 -0.30705039121E+02  0.28920770485E+01  0.35579045972E+02  0.00000000000E+00 0.  1.
</event>
<event>
12    1  0.1032880E+000  0.1748211E+03  0.7818608E-02  0.1172991E+00
         21   -1    0    0  501  502  0.00000000000E+00  0.00000000000E+00  0.19744422219E+03  0.19744422219E+03  0.00000000000E+00 0. -1.
         21   -1    0    0  502  503 -0.00000000000E+00 -0.00000000000E+00 -0.17229690793E+03  0.17229690793E+03  0.00000000000E+00 0. -1.
         -6    2    1    2    0  503  0.31673175722E+02  0.10650859994E+02  0.71959965502E+02  0.18876087830E+03  0.17127697353E+03 0.  0.
        -24    2    3    3    0    0  0.36872449339E+02 -0.17262628393E+02  0.10780511933E+03  0.14279175461E+03  0.84320611783E+02 0.  0.
          6    2    1    2  501    0 -0.31673175722E+02 -0.10650859994E+02 -0.46812651244E+02  0.18098025182E+03  0.17159777491E+03 0.  0.
         24    2    5    5    0    0 -0.65733332189E+02 -0.53168444695E+02 -0.21917866603E+02  0.12089964289E+03  0.83597705124E+02 0.  0.
          5    1    5    5  501    0  0.34060156467E+02  0.42517584701E+02 -0.24894784641E+02  0.60080608932E+02  0.47000000000E+01 0. -1.
        -11    1    6    6    0    0 -0.54124598376E+02 -0.49637560085E+02 -0.50984297330E+02  0.89402226453E+02  0.00000000000E+00 0.  1.
         12    1    6    6    0    0 -0.11608733812E+02 -0.35308846097E+01  0.29066430727E+02  0.31497416434E+02  0.00000000000E+00 0. -1.
         -5    1    3    3    0  503 -0.51992736170E+01  0.27913488386E+02 -0.35845153827E+02  0.45969123691E+02  0.47000000000E+01 0.  1.
         11    1    4    4    0    0 -0.14403545557E+02  0.10293587843E+02 -0.26841540837E+01  0.17905997835E+02  0.00000000000E+00 0. -1.
        -12    1    4    4    0    0  0.51275994896E+02 -0.27556216236E+02  0.11048927341E+03  0.12488575677E+03  0.00000000000E+00 0.  1.
</event>
<event>
12    1  0.1032880E+000  0.2945371E+03  0.7818608E-02  0.1088094E+00
         21   -1    0    0  503  502  0.00000000000E+00  0.00000000000E+00  0.16747364194E+04  0.16747364194E+04  0.00000000000E+00 0. -1.
         21   -1    0    0  501  503 -0.00000000000E+00 -0.00000000000E+00 -0.69444685727E+02  0.69444685727E+02  0.00000000000E+00 0. -1.
          6    2    1    2  501    0 -0.56650840117E+02 -0.23162832136E+03  0.12430586230E+04  0.12773139378E+04  0.17168330892E+03 0.  0.
         24    2    3    3    0    0 -0.86577443123E+02 -0.11174233120E+03  0.55647738568E+03  0.57968643143E+03  0.79920434056E+02 0.  0.
         -6    2    1    2    0  502  0.56650840117E+02  0.23162832136E+03  0.36223311068E+03  0.46686716733E+03  0.17289051019E+03 0.  0.
        -24    2    5    5    0    0  0.63888036723E+02  0.21050801864E+03  0.37419685831E+03  0.44110546205E+03  0.78456565887E+02 0.  0.
          5    1    3    3  501    0  0.29926603007E+02 -0.11988599016E+03  0.68658123732E+03  0.69762750637E+03  0.47000000000E+01 0. -1.
        -13    1    4    4    0    0 -0.76149327993E+02 -0.11504835305E+03  0.40579670828E+03  0.42860916013E+03  0.00000000000E+00 0.  1.
         14    1    4    4    0    0 -0.10428115130E+02  0.33060218440E+01  0.15068067739E+03  0.15107727131E+03  0.00000000000E+00 0. -1.
         -5    1    5    5    0  502 -0.72371966067E+01  0.21120302722E+02 -0.11963747626E+02  0.25761705283E+02  0.47000000000E+01 0.  1.
         13    1    6    6    0    0 -0.11571205524E+02  0.18509313035E+02  0.13748065235E+02  0.25797223959E+02  0.00000000000E+00 0. -1.
        -14    1    6    6    0    0  0.75459242247E+02  0.19199870560E+03  0.36044879307E+03  0.41530823809E+03  0.00000000000E+00 0.  1.
</event>
<event>
12    1  0.1032880E+000  0.2241286E+03  0.7818608E-02  0.1130912E+00
         21   -1    0    0  501  502  0.00000000000E+00  0.00000000000E+00  0.21018822680E+03  0.21018822680E+03  0.00000000000E+00 0.  1.
         21   -1    0    0  502  503 -0.00000000000E+00 -0.00000000000E+00 -0.33762044234E+03  0.33762044234E+03  0.00000000000E+00 0. -1.
         -6    2    1    2    0  503 -0.42469248251E+02 -0.13714361874E+03  0.84669949796E+02  0.23922970757E+03  0.17160956668E+03 0.  0.
        -24    2    3    3    0    0  0.22679535766E+02 -0.74904294726E+02  0.97106361576E+02  0.14815363030E+03  0.79967731005E+02 0.  0.
          6    2    1    2  501    0  0.42469248251E+02  0.13714361874E+03 -0.21210216534E+03  0.30857896157E+03  0.17210937737E+03 0.  0.
         24    2    5    5    0    0  0.51151264442E+02  0.71474976394E+02 -0.20998755038E+03  0.24213869074E+03  0.82530298270E+02 0.  0.
          5    1    5    5  501    0 -0.86820161916E+01  0.65668642345E+02 -0.21146149580E+01  0.66440270838E+02  0.47000000000E+01 0. -1.
        -13    1    6    6    0    0  0.53153862674E+02  0.33135044948E+02 -0.57959727151E+02  0.85338117464E+02  0.00000000000E+00 0.  1.
         14    1    6    6    0    0 -0.20025982317E+01  0.38339931446E+02 -0.15202782323E+03  0.15680057327E+03  0.00000000000E+00 0. -1.
         -5    1    3    3    0  503 -0.65148784017E+02 -0.62239324014E+02 -0.12436411780E+02  0.91076077268E+02  0.47000000000E+01 0.  1.
         11    1    4    4    0    0  0.34678903408E+02  0.10044092978E+01  0.24913254057E+02  0.42711888361E+02  0.00000000000E+00 0. -1.
        -12    1    4    4    0    0 -0.11999367642E+02 -0.75908704024E+02  0.72193107518E+02  0.10544174194E+03  0.00000000000E+00 0.  1.
</event>
<event>
12    1  0.1032880E+000  0.4412246E+03  0.7818608E-02  0.1030475E+00
         21   -1    0    0  503  502  0.00000000000E+00  0.00000000000E+00  0.78115220729E+03  0.78115220729E+03  0.00000000000E+00 0. -1.
         21   -1    0    0  501  503 -0.00000000000E+00 -0.00000000000E+00 -0.44694876029E+03  0.44694876029E+03  0.00000000000E+00 0. -1.
          6    2    1    2  501    0  0.40295838138E+03 -0.51488853999E+02  0.57616615771E+03  0.72488618494E+03  0.16871864335E+03 0.  0.
         24    2    3    3    0    0  0.23631768304E+03 -0.21022425622E+01  0.24253448071E+03  0.34866770369E+03  0.83040511346E+02 0.  0.
         -6    2    1    2    0  502 -0.40295838138E+03  0.51488853999E+02 -0.24196271072E+03  0.50321478264E+03  0.17219931729E+03 0.  0.
        -24    2    5    5    0    0 -0.22354487365E+03  0.93608716547E+02 -0.13135967850E+03  0.28823010803E+03  0.84180328427E+02 0.  0.
          5    1    3    3  501    0  0.16664069834E+03 -0.49386611437E+02  0.33363167700E+03  0.37621848125E+03  0.47000000000E+01 0. -1.
        -11    1    4    4    0    0  0.17387841316E+03 -0.35172156689E+02  0.19438158929E+03  0.26316341962E+03  0.00000000000E+00 0.  1.
         12    1    4    4    0    0  0.62439269876E+02  0.33069914127E+02  0.48152891417E+02  0.85504284073E+02  0.00000000000E+00 0. -1.
         -5    1    5    5    0  502 -0.17941350773E+03 -0.42119862548E+02 -0.11060303222E+03  0.21498467460E+03  0.47000000000E+01 0.  1.
         13    1    6    6    0    0 -0.90865738541E+02  0.82083006703E+02 -0.50714998252E+02  0.13253759270E+03  0.00000000000E+00 0. -1.
        -14    1    6    6    0    0 -0.13267913510E+03  0.11525709844E+02 -0.80644680249E+02  0.15569251534E+03  0.00000000000E+00 0.  1.
</event>
<event>
12    1  0.1032880E+000  0.3758984E+03  0.7818608E-02  0.1053069E+00
         21   -1    0    0  501  502  0.00000000000E+00  0.00000000000E+00  0.61036248339E+03  0.61036248339E+03  0.00000000000E+00 0.  1.
         21   -1    0    0  502  503 -0.00000000000E+00 -0.00000000000E+00 -0.32883658106E+03  0.32883658106E+03  0.00000000000E+00 0.  1.
         -6    2    1    2    0  503 -0.18876624946E+03  0.26685755952E+03 -0.11900862573E+03  0.39428755143E+03  0.18561779603E+03 0.  0.
        -24    2    3    3    0    0 -0.14410788341E+03  0.80857553160E+02 -0.76511492847E+02  0.19828125477E+03  0.78462866967E+02 0.  0.
          6    2    1    2  501    0  0.18876624946E+03 -0.26685755952E+03  0.40053452807E+03  0.54491151302E+03  0.17220625669E+03 0.  0.
         24    2    5    5    0    0  0.17980177448E+03 -0.16943748472E+03  0.26976628550E+03  0.38153019203E+03  0.10841447922E+03 0.  0.
          5    1    5    5  501    0  0.89644749854E+01 -0.97420074796E+02  0.13076824257E+03  0.16338132100E+03  0.47000000000E+01 0. -1.
        -11    1    6    6    0    0  0.10616711271E+03 -0.91257234136E+02  0.74274760377E+02  0.15848053076E+03  0.00000000000E+00 0.  1.
         12    1    6    6    0    0  0.73634661771E+02 -0.78180250587E+02  0.19549152512E+03  0.22304966126E+03  0.00000000000E+00 0. -1.
         -5    1    3    3    0  503 -0.44658366053E+02  0.18600000636E+03 -0.42497132887E+02  0.19600629665E+03  0.47000000000E+01 0.  1.
         13    1    4    4    0    0 -0.11531618572E+03  0.27403146449E+02 -0.68879983078E+02  0.13708831896E+03  0.00000000000E+00 0. -1.
        -14    1    4    4    0    0 -0.28791697684E+02  0.53454406712E+02 -0.76315097686E+01  0.61192935816E+02  0.00000000000E+00 0.  1.
</event>
<event>
12    1  0.1032880E+000  0.2560309E+03  0.7818608E-02  0.1110062E+00
         21   -1    0    0  501  502  0.00000000000E+00  0.00000000000E+00  0.52908629733E+03  0.52908629733E+03  0.00000000000E+00 0. -1.
         21   -1    0    0  502  503 -0.00000000000E+00 -0.00000000000E+00 -0.21279507780E+03  0.21279507780E+03  0.00000000000E+00 0. -1.
         -6    2    1    2    0  503  0.99676322122E+02 -0.16067301424E+03  0.40063447754E+03  0.47545749565E+03  0.17262867340E+03 0.  0.
        -24    2    3    3    0    0 -0.17193952615E+01 -0.18304865390E+02  0.12424741855E+03  0.14840753358E+03  0.79052834177E+02 0.  0.
          6    2    1    2  501    0 -0.99676322122E+02  0.16067301424E+03 -0.84343258012E+02  0.26642387947E+03  0.16768038551E+03 0.  0.
         24    2    5    5    0    0 -0.61972951749E+02  0.10182829783E+03  0.15632004581E+02  0.14435263832E+03  0.79897907570E+02 0.  0.
          5    1    5    5  501    0 -0.37703370373E+02  0.58844716407E+02 -0.99975262593E+02  0.12207124115E+03  0.47000000000E+01 0. -1.
        -13    1    6    6    0    0  0.18305592688E+02  0.21091130124E+02 -0.57331026277E+01  0.28509629238E+02  0.00000000000E+00 0.  1.
         14    1    6    6    0    0 -0.80278544437E+02  0.80737167708E+02  0.21365107208E+02  0.11584300908E+03  0.00000000000E+00 0. -1.
         -5    1    3    3    0  503  0.10139571738E+03 -0.14236814885E+03  0.27638705899E+03  0.32704996207E+03  0.47000000000E+01 0.  1.
         13    1    4    4    0    0  0.27281571029E+01  0.75701820664E+01 -0.93033759395E+01  0.12300540702E+02  0.00000000000E+00 0. -1.
        -14    1    4    4    0    0 -0.44475523644E+01 -0.25875047457E+02  0.13355079449E+03  0.13610699288E+03  0.00000000000E+00 0.  1.
</event>
<event>
12    1  0.1032880E+000  0.2833575E+03  0.7818608E-02  0.1094296E+00
         21   -1    0    0  501  502  0.00000000000E+00  0.00000000000E+00  0.92764107342E+02  0.92764107342E+02  0.00000000000E+00 0.  1.
         21   -1    0    0  502  503 -0.00000000000E+00 -0.00000000000E+00 -0.11450974814E+04  0.11450974814E+04  0.00000000000E+00 0. -1.
         -6    2    1    2    0  503 -0.68430327380E+02 -0.21116965386E+03 -0.83939722262E+03  0.88593407009E+03  0.17611401644E+03 0.  0.
        -24    2    3    3    0    0 -0.71112089522E+02 -0.82963112189E+02 -0.26428681154E+03  0.29668184556E+03  0.78948030204E+02 0.  0.
          6    2    1    2  501    0  0.68430327380E+02  0.21116965386E+03 -0.21293615146E+03  0.35192751868E+03  0.17098491567E+03 0.  0.
         24    2    5    5    0    0  0.25005757968E+02  0.15973160254E+03 -0.21976405499E+03  0.28410217962E+03  0.79235950261E+02 0.  0.
          5    1    5    5  501    0  0.43424569412E+02  0.51438051316E+02  0.68279035320E+01  0.67825339059E+02  0.47000000000E+01 0. -1.
        -11    1    6    6    0    0  0.44682214789E+02  0.51897562181E+02 -0.10536277967E+03  0.12566293255E+03  0.00000000000E+00 0.  1.
         12    1    6    6    0    0 -0.19676456821E+02  0.10783404036E+03 -0.11440127532E+03  0.15843924706E+03  0.00000000000E+00 0. -1.
         -5    1    3    3    0  503  0.26817621416E+01 -0.12820654167E+03 -0.57511041108E+03  0.58925222453E+03  0.47000000000E+01 0.  1.
         11    1    4    4    0    0 -0.96396483957E+01 -0.68293046699E+02 -0.16686114121E+03  0.18055332590E+03  0.00000000000E+00 0. -1.
        -12    1    4    4    0    0 -0.61472441126E+02 -0.14670065490E+02 -0.97425670328E+02  0.11612851966E+03  0.00000000000E+00 0.  1.
</event>
<event>
12    1  0.1032880E+000  0.3214975E+03  0.7818608E-02  0.1074982E+00
         21   -1    0    0  501  502  0.00000000000E+00  0.00000000000E+00  0.40593824730E+03  0.40593824730E+03  0.00000000000E+00 0. -1.
         21   -1    0    0  502  503 -0.00000000000E+00 -0.00000000000E+00 -0.29550045785E+03  0.29550045785E+03  0.00000000000E+00 0. -1.
         -6    2    1    2    0  503 -0.26241808215E+03  0.71132891039E+02  0.18586786937E+03  0.37121103906E+03  0.17125312443E+03 0.  0.
        -24    2    3    3    0    0 -0.10288119070E+03  0.16208118841E+02  0.19907736994E+02  0.13449685302E+03  0.82739609400E+02 0.  0.
          6    2    1    2  501    0  0.26241808215E+03 -0.71132891039E+02 -0.75430079914E+02  0.33022766609E+03  0.17157353079E+03 0.  0.
         24    2    5    5    0    0  0.22129244724E+03 -0.10419989480E+02 -0.97103171599E+02  0.25361704565E+03  0.76247337782E+02 0.  0.
          5    1    5    5  501    0  0.41125634907E+02 -0.60712901559E+02  0.21673091684E+02  0.76610620448E+02  0.47000000000E+01 0. -1.
        -13    1    6    6    0    0  0.14548645468E+03 -0.17944020952E+02 -0.99890271511E+02  0.17738760589E+03  0.00000000000E+00 0.  1.
         14    1    6    6    0    0  0.75805992568E+02  0.75240314723E+01  0.27870999122E+01  0.76229439751E+02  0.00000000000E+00 0. -1.
         -5    1    3    3    0  503 -0.15953689146E+03  0.54924772198E+02  0.16596013237E+03  0.23671418604E+03  0.47000000000E+01 0.  1.
         11    1    4    4    0    0 -0.86265360068E+02  0.46741266332E+02  0.17396043473E+02  0.99644772339E+02  0.00000000000E+00 0. -1.
        -12    1    4    4    0    0 -0.16615830628E+02 -0.30533147491E+02  0.25116935202E+01  0.34852080677E+02  0.00000000000E+00 0.  1.
</event>
<event>
12    1  0.1032880E+000  0.2647384E+03  0.7818608E-02  0.1104347E+00
         21   -1    0    0  503  502  0.00000000000E+00  0.00000000000E+00  0.15688987709E+03  0.15688987709E+03  0.00000000000E+00 0. -1.
         21   -1    0    0  501  503 -0.00000000000E+00 -0.00000000000E+00 -0.46585208422E+03  0.46585208422E+03  0.00000000000E+00 0. -1.
          6    2    1    2  501    0  0.18839526441E+03 -0.70250812226E+02 -0.21787849751E+03  0.34277295425E+03  0.17202995732E+03 0.  0.
         24    2    3    3    0    0  0.54798015192E+02 -0.42351602849E+02 -0.16568804680E+03  0.19657950696E+03  0.79965573670E+02 0.  0.
         -6    2    1    2    0  502 -0.18839526441E+03  0.70250812226E+02 -0.91083709622E+02  0.27996900706E+03  0.17221628984E+03 0.  0.
        -24    2    5    5    0    0 -0.80231907093E+02  0.51866454308E+01 -0.10313862779E+03  0.15308296087E+03  0.79578616209E+02 0.  0.
          5    1    3    3  501    0  0.13359724922E+03 -0.27899209377E+02 -0.52190450705E+02  0.14619344728E+03  0.47000000000E+01 0. -1.
        -13    1    4    4    0    0  0.59241292565E+02 -0.21207227945E+02 -0.54292905432E+02  0.83108343998E+02  0.00000000000E+00 0.  1.
         14    1    4    4    0    0 -0.44432773735E+01 -0.21144374904E+02 -0.11139514137E+03  0.11347116296E+03  0.00000000000E+00 0. -1.
         -5    1    5    5    0  502 -0.10816335732E+03  0.65064166795E+02  0.12054918172E+02  0.12688604620E+03  0.47000000000E+01 0.  1.
         13    1    6    6    0    0 -0.26295742022E+02  0.12454978727E+01  0.96187926903E+01  0.28027459504E+02  0.00000000000E+00 0. -1.
        -14    1    6    6    0    0 -0.53936165071E+02  0.39411475581E+01 -0.11275742048E+03  0.12505550136E+03  0.00000000000E+00 0.  1.
</event>
<event>
12    1  0.1032880E+000  0.2292106E+03  0.7818608E-02  0.1128016E+00
         21   -1    0    0  501  502  0.00000000000E+00  0.00000000000E+00  0.17581165340E+03  0.17581165340E+03  0.00000000000E+00 0. -1.
         21   -1    0    0  502  503 -0.00000000000E+00 -0.00000000000E+00 -0.29588356608E+03  0.29588356608E+03  0.00000000000E+00 0. -1.
         -6    2    1    2    0  503 -0.12673800468E+03 -0.64421804754E+02 -0.84391521417E+02  0.24425277740E+03  0.17979098872E+03 0.  0.
        -24    2    3    3    0    0 -0.13740881683E+03 -0.42004614875E+02 -0.11777139749E+03  0.20238748437E+03  0.80280889054E+02 0.  0.
          6    2    1    2  501    0  0.12673800468E+03  0.64421804754E+02 -0.35680391261E+02  0.22744244207E+03  0.17390883640E+03 0.  0.
         24    2    5    5    0    0  0.13346948260E+03  0.18640562761E+02  0.17380451801E+02  0.15688198587E+03  0.78411121780E+02 0.  0.
          5    1    5    5  501    0 -0.67314779219E+01  0.45781241993E+02 -0.53060843062E+02  0.70560456205E+02  0.47000000000E+01 0. -1.
        -13    1    6    6    0    0  0.71139964792E+02 -0.75533525283E+01 -0.26489206313E+02  0.76286471776E+02  0.00000000000E+00 0.  1.
         14    1    6    6    0    0  0.62329517809E+02  0.26193915289E+02  0.43869658113E+02  0.80595514090E+02  0.00000000000E+00 0. -1.
         -5    1    3    3    0  503  0.10670812156E+02 -0.22417189880E+02  0.33379876074E+02  0.41865293035E+02  0.47000000000E+01 0.  1.
         11    1    4    4    0    0 -0.36426800050E+02  0.23677691628E+02 -0.23309702190E+02  0.49304026802E+02  0.00000000000E+00 0. -1.
        -12    1    4    4    0    0 -0.10098201678E+03 -0.65682306502E+02 -0.94461695301E+02  0.15308345757E+03  0.00000000000E+00 0.  1.
</event>
<event>
12    1  0.1032880E+000  0.3624501E+03  0.7818608E-02  0.1057624E+00
         21   -1    0    0  503  502  0.00000000000E+00  0.00000000000E+00  0.57371165607E+03  0.57371165607E+03  0.00000000000E+00 0.  1.
         21   -1    0    0  501  503 -0.00000000000E+00 -0.00000000000E+00 -0.23425618872E+03  0.23425618872E+03  0.00000000000E+00 0.  1.
          6    2    1    2  501    0 -0.17087428206E+03 -0.26919950500E+03  0.23054340587E+03  0.42950794026E+03  0.17222199335E+03 0.  0.
         24    2    3    3    0    0 -0.19332675572E+03 -0.19973092539E+03  0.17323305641E+03  0.33657482839E+03  0.77493523851E+02 0.  0.
         -6    2    1    2    0  502  0.17087428206E+03  0.26919950500E+03  0.10891206148E+03  0.37845990453E+03  0.17234752228E+03 0.  0.
        -24    2    5    5    0    0  0.13524553816E+03  0.12118156821E+03  0.10920537677E+03  0.22614151090E+03  0.78980001075E+02 0.  0.
          5    1    3    3  501    0  0.22452473660E+02 -0.69468579610E+02  0.57310349463E+02  0.92933111871E+02  0.47000000000E+01 0. -1.
        -13    1    4    4    0    0 -0.42441556523E+02 -0.11918735960E+02  0.47572591854E+02  0.64857485942E+02  0.00000000000E+00 0.  1.
         14    1    4    4    0    0 -0.15088519920E+03 -0.18781218943E+03  0.12566046456E+03  0.27171734245E+03  0.00000000000E+00 0. -1.
         -5    1    5    5    0  502  0.35628743902E+02  0.14801793679E+03 -0.29331528740E+00  0.15231839363E+03  0.47000000000E+01 0.  1.
         11    1    6    6    0    0  0.74369457391E+02  0.15395110784E+02  0.40057205748E+02  0.85862712285E+02  0.00000000000E+00 0. -1.
        -12    1    6    6    0    0  0.60876080767E+02  0.10578645742E+03  0.69148171023E+02  0.14027879861E+03  0.00000000000E+00 0.  1.
</event>
<event>
12    1  0.1032880E+000  0.1929619E+03  0.7818608E-02  0.1156034E+00
         21   -1    0    0  503  502  0.00000000000E+00  0.00000000000E+00  0.27049726808E+03  0.27049726808E+03  0.00000000000E+00 0.  1.
         21   -1    0    0  501  503 -0.00000000000E+00 -0.00000000000E+00 -0.13834952062E+03  0.13834952062E+03  0.00000000000E+00 0.  1.
          6    2    1    2  501    0  0.83557098637E+01 -0.86219758976E+02  0.86775724003E+02  0.21157583909E+03  0.17242576573E+03 0.  0.
         24    2    3    3    0    0  0.53079881839E+02 -0.31716432588E+02  0.99931057837E+02  0.13970082984E+03  0.75542700418E+02 0.  0.
         -6    2    1    2    0  502 -0.83557098637E+01  0.86219758976E+02  0.45372023453E+02  0.19727094961E+03  0.17132875509E+03 0.  0.
        -24    2    5    5    0    0  0.79554116384E+01  0.99331647957E+02  0.70439060308E+02  0.16427972875E+03  0.10998228585E+03 0.  0.
          5    1    3    3  501    0 -0.44724171975E+02 -0.54503326388E+02 -0.13155333834E+02  0.71875009249E+02  0.47000000000E+01 0. -1.
        -11    1    4    4    0    0 -0.67557711577E+01  0.18370414606E+02  0.21093038099E+02  0.28775490143E+02  0.00000000000E+00 0.  1.
         12    1    4    4    0    0  0.59835652997E+02 -0.50086847195E+02  0.78838019738E+02  0.11092533970E+03  0.00000000000E+00 0. -1.
         -5    1    5    5    0  502 -0.16311121502E+02 -0.13111888980E+02 -0.25067036854E+02  0.32991220862E+02  0.47000000000E+01 0.  1.
         13    1    6    6    0    0 -0.30322045397E+02  0.75063476658E+02  0.84307288769E+02  0.11688315064E+03  0.00000000000E+00 0. -1.
        -14    1    6    6    0    0  0.38277457035E+02  0.24268171299E+02 -0.13868228461E+02  0.47396578103E+02  0.00000000000E+00 0.  1.
</event>
<event>
12    1  0.1032880E+000  0.3001091E+03  0.7818608E-02  0.1085248E+00
         21   -1    0    0  501  502  0.00000000000E+00  0.00000000000E+00  0.19890647403E+04  0.19890647403E+04  0.00000000000E+00 0.  1.
         21   -1    0    0  502  503 -0.00000000000E+00 -0.00000000000E+00 -0.47347529763E+02  0.47347529763E+02  0.00000000000E+00 0.  1.
         -6    2    1    2    0  503  0.20760402741E+03  0.13177888231E+03  0.11866496982E+04  0.12238899957E+04  0.17118443072E+03 0.  0.
        -24    2    3    3    0    0  0.17419218318E+03  0.10577138198E+03  0.65630338876E+03  0.69183545024E+03  0.79822617005E+02 0.  0.
          6    2    1    2  501    0 -0.20760402741E+03 -0.13177888231E+03  0.75506751240E+03  0.81252227443E+03  0.17204764495E+03 0.  0.
         24    2    5    5    0    0 -0.40226412831E+02 -0.94378549892E+02  0.34426048381E+03  0.36732731099E+03  0.76737199047E+02 0.  0.
          5    1    5    5  501    0 -0.16737761458E+03 -0.37400332416E+02  0.41080702860E+03  0.44519496344E+03  0.47000000000E+01 0. -1.
        -13    1    6    6    0    0 -0.26875307805E+02 -0.37476059415E+02  0.52975730164E+02  0.70236494683E+02  0.00000000000E+00 0.  1.
         14    1    6    6    0    0 -0.13351105025E+02 -0.56902490476E+02  0.29128475364E+03  0.29709081630E+03  0.00000000000E+00 0. -1.
         -5    1    3    3    0  503  0.33411844227E+02  0.26007500323E+02  0.53034630940E+03  0.53205454542E+03  0.47000000000E+01 0.  1.
         11    1    4    4    0    0  0.33468369173E+02  0.10188527984E+02  0.43309646436E+02  0.55674619999E+02  0.00000000000E+00 0. -1.
        -12    1    4    4    0    0  0.14072381401E+03  0.95582854001E+02  0.61299374232E+03  0.63616083025E+03  0.00000000000E+00 0.  1.
</event>
<event>
12    1  0.1032880E+000  0.2133266E+03  0.7818608E-02  0.1139093E+00
         21   -1    0    0  501  502  0.00000000000E+00  0.00000000000E+00  0.50096863648E+03  0.50096863648E+03  0.00000000000E+00 0.  1.
         21   -1    0    0  502  503 -0.00000000000E+00 -0.00000000000E+00 -0.10529436763E+03  0.10529436763E+03  0.00000000000E+00 0.  1.
         -6    2    1    2    0  503 -0.58378089262E+02  0.11098629055E+03  0.31100998107E+03  0.37674990317E+03  0.17171873287E+03 0.  0.
        -24    2    3    3    0    0 -0.89755256237E+02  0.35825632772E+02  0.23230478955E+03  0.26339096767E+03  0.77908950822E+02 0.  0.
          6    2    1    2  501    0  0.58378089262E+02 -0.11098629055E+03  0.84664287783E+02  0.22951310095E+03  0.17257538609E+03 0.  0.
         24    2    5    5    0    0  0.70806331735E+02 -0.13540896606E+03  0.37583398012E+02  0.17483560584E+03  0.76196145306E+02 0.  0.
          5    1    5    5  501    0 -0.12428242473E+02  0.24422675507E+02  0.47080889772E+02  0.54677495111E+02  0.47000000000E+01 0. -1.
        -11    1    6    6    0    0 -0.14125126490E+02 -0.26076340327E+02  0.18822895472E+02  0.35125434049E+02  0.00000000000E+00 0.  1.
         12    1    6    6    0    0  0.84931458225E+02 -0.10933262573E+03  0.18760502540E+02  0.13971017179E+03  0.00000000000E+00 0. -1.
         -5    1    3    3    0  503  0.31377166975E+02  0.75160657779E+02  0.78705191520E+02  0.11335893550E+03  0.47000000000E+01 0.  1.
         11    1    4    4    0    0 -0.62607788228E+02  0.28245832657E+02  0.22357010827E+03  0.23388278158E+03  0.00000000000E+00 0. -1.
        -12    1    4    4    0    0 -0.27147468009E+02  0.75798001146E+01  0.87346812750E+01  0.29508186085E+02  0.00000000000E+00 0.  1.
</event>
<event>
12    1  0.1032880E+000  0.1753929E+03  0.7818608E-02  0.1172788E+00
         21   -1    0    0  501  502  0.00000000000E+00  0.00000000000E+00  0.54842464440E+03  0.54842464440E+03  0.00000000000E+00 0. -1.
         21   -1    0    0  502  503 -0.00000000000E+00 -0.00000000000E+00 -0.68436162170E+02  0.68436162170E+02  0.00000000000E+00 0. -1.
         -6    2    1    2    0  503 -0.20961216814E+02  0.20714107998E+02  0.10501695599E+03  0.20289665033E+03  0.17108489936E+03 0.  0.
        -24    2    3    3    0    0 -0.61463697964E+02  0.57407677837E+02  0.86658412277E+02  0.14505207259E+03  0.80355433558E+02 0.  0.
          6    2    1    2  501    0  0.20961216814E+02 -0.20714107998E+02  0.37497152624E+03  0.41396415624E+03  0.17289948027E+03 0.  0.
         24    2    5    5    0    0 -0.39920723057E+02 -0.45010151358E+02  0.28815973412E+03  0.30508217621E+03  0.80121932158E+02 0.  0.
          5    1    5    5  501    0  0.60881939871E+02  0.24296043360E+02  0.86811792119E+02  0.10888198003E+03  0.47000000000E+01 0. -1.
        -13    1    6    6    0    0  0.78351542518E+01  0.67235937234E+01  0.14676932695E+03  0.14713202129E+03  0.00000000000E+00 0.  1.
         14    1    6    6    0    0 -0.47755877309E+02 -0.51733745082E+02  0.14139040718E+03  0.15795015492E+03  0.00000000000E+00 0. -1.
         -5    1    3    3    0  503  0.40502481150E+02 -0.36693569839E+02  0.18358543712E+02  0.57844577741E+02  0.47000000000E+01 0.  1.
         11    1    4    4    0    0 -0.66747306522E+02  0.15171317187E+02  0.31421354773E+02  0.75317151625E+02  0.00000000000E+00 0. -1.
        -12    1    4    4    0    0  0.52836085577E+01  0.42236360650E+02  0.55237057504E+02  0.69734920965E+02  0.00000000000E+00 0.  1.
</event>
<event>
12    1  0.1032880E+000  0.1799105E+03  0.7818608E-02  0.1168463E+00
         21   -1    0    0  503  502  0.00000000000E+00  0.00000000000E+00  0.18698136962E+03  0.18698136962E+03  0.00000000000E+00 0.  1.
         21   -1    0    0  501  503 -0.00000000000E+00 -0.00000000000E+00 -0.17780164507E+03  0.17780164507E+03  0.00000000000E+00 0.  1.
          6    2    1    2  501    0  0.28801023387E+02 -0.35896444249E+02  0.40616179280E+02  0.18214664843E+03  0.17149248922E+03 0.  0.
         24    2    3    3    0    0  0.73096091261E+02 -0.54997303745E+02  0.22586609956E+02  0.13043541908E+03  0.90197015605E+02 0.  0.
         -6    2    1    2    0  502 -0.28801023387E+02  0.35896444249E+02 -0.31436454727E+02  0.18263636625E+03  0.17392451792E+03 0.  0.
        -24    2    5    5    0    0  0.37890522627E+02  0.30620652005E+02  0.22811849300E+02  0.96377657801E+02  0.79968471415E+02 0.  0.
          5    1    3    3  501    0 -0.44295067875E+02  0.19100859496E+02  0.18029569323E+02  0.51711229356E+02  0.47000000000E+01 0. -1.
        -13    1    4    4    0    0  0.83357597192E+02 -0.70893663568E+02  0.17270568292E+02  0.11078209726E+03  0.00000000000E+00 0.  1.
         14    1    4    4    0    0 -0.10261505931E+02  0.15896359823E+02  0.53160416643E+01  0.19653321820E+02  0.00000000000E+00 0. -1.
         -5    1    5    5    0  502 -0.66691546014E+02  0.52757922438E+01 -0.54248304027E+02  0.86258708449E+02  0.47000000000E+01 0.  1.
         13    1    6    6    0    0  0.44310595002E+02  0.25745349798E+02 -0.18350478745E+02  0.54433371527E+02  0.00000000000E+00 0. -1.
        -14    1    6    6    0    0 -0.64200723747E+01  0.48753022072E+01  0.41162328045E+02  0.41944286274E+02  0.00000000000E+00 0.  1.
</event>
<event>
12    1  0.1032880E+000  0.4948215E+03  0.7818608E-02  0.1015271E+00
         21   -1    0    0  501  502  0.00000000000E+00  0.00000000000E+00  0.61834471205E+03  0.61834471205E+03  0.00000000000E+00 0. -1.
         21   -1    0    0  502  503 -0.00000000000E+00 -0.00000000000E+00 -0.59568178672E+03  0.59568178672E+03  0.00000000000E+00 0. -1.
         -6    2    1    2    0  503 -0.66865626632E+02 -0.45898416302E+03  0.36417477015E+03  0.61279554921E+03  0.16660626634E+03 0.  0.
        -24    2    3    3    0    0 -0.40350980568E+02 -0.42440295401E+03  0.27522911437E+03  0.51363756337E+03  0.79538745930E+02 0.  0.
          6    2    1    2  501    0  0.66865626632E+02  0.45898416302E+03 -0.34151184482E+03  0.60123094956E+03  0.17236832836E+03 0.  0.
         24    2    5    5    0    0 -0.47257008950E+01  0.38040417362E+03 -0.26319105011E+03  0.46910839359E+03  0.77868405160E+02 0.  0.
          5    1    5    5  501    0  0.71591327527E+02  0.78579989407E+02 -0.78320794713E+02  0.13212255597E+03  0.47000000000E+01 0. -1.
        -13    1    6    6    0    0 -0.32967459704E+02  0.12643746381E+03 -0.66313804941E+02  0.14652919975E+03  0.00000000000E+00 0.  1.
         14    1    6    6    0    0  0.28241758809E+02  0.25396670981E+03 -0.19687724517E+03  0.32257919384E+03  0.00000000000E+00 0. -1.
         -5    1    3    3    0  503 -0.26514646063E+02 -0.34581209015E+02  0.88945655783E+02  0.99157985838E+02  0.47000000000E+01 0.  1.
         13    1    4    4    0    0 -0.98102941567E+01 -0.19384164665E+02  0.36585323748E+02  0.42549660692E+02  0.00000000000E+00 0. -1.
        -14    1    4    4    0    0 -0.30540686412E+02 -0.40501878935E+03  0.23864379062E+03  0.47108790268E+03  0.00000000000E+00 0.  1.
</event>
<event>
12    1  0.1032880E+000  0.1778686E+03  0.7818608E-02  0.1170721E+00
         21   -1    0    0  501  502  0.00000000000E+00  0.00000000000E+00  0.25795608764E+03  0.25795608764E+03  0.00000000000E+00 0.  1.
         21   -1    0    0  502  503 -0.00000000000E+00 -0.00000000000E+00 -0.15922341738E+03  0.15922341738E+03  0.00000000000E+00 0.  1.
         -6    2    1    2    0  503 -0.45372957723E+02 -0.47750219159E+01  0.15210109751E+03  0.23147694967E+03  0.16842009453E+03 0.  0.
        -24    2    3    3    0    0 -0.86586532283E+02  0.57509664348E+01  0.14725222367E+03  0.18840774099E+03  0.79271421720E+02 0.  0.
          6    2    1    2  501    0  0.45372957723E+02  0.47750219159E+01 -0.53368427245E+02  0.18570255535E+03  0.17191784058E+03 0.  0.
         24    2    5    5    0    0 -0.10451259691E+02  0.21710870376E+02 -0.85112008174E+02  0.11912244463E+03  0.79784159814E+02 0.  0.
          5    1    5    5  501    0  0.55824217414E+02 -0.16935848460E+02  0.31743580929E+02  0.66580110718E+02  0.47000000000E+01 0. -1.
        -13    1    6    6    0    0  0.63579954901E+00  0.95898672215E+01  0.14921676620E+02  0.17748978211E+02  0.00000000000E+00 0.  1.
         14    1    6    6    0    0 -0.11087059240E+02  0.12121003154E+02 -0.10003368479E+03  0.10137346642E+03  0.00000000000E+00 0. -1.
         -5    1    3    3    0  503  0.41213574561E+02 -0.10525988351E+02  0.48488738311E+01  0.43069208679E+02  0.47000000000E+01 0.  1.
         11    1    4    4    0    0 -0.42686718606E+02 -0.30821675815E+02  0.10460696518E+03  0.11710998595E+03  0.00000000000E+00 0. -1.
        -12    1    4    4    0    0 -0.43899813677E+02  0.36572642249E+02  0.42645258494E+02  0.71297755042E+02  0.00000000000E+00 0.  1.
</event>
<event>
12    1  0.1460636E+000  0.5408756E+03  0.7818608E-02  0.1003700E+00
         21   -1    0    0  503  502  0.00000000000E+00  0.00000000000E+00  0.12760233271E+04  0.12760233271E+04  0.00000000000E+00 0. -1.
         21   -1    0    0  501  503 -0.00000000000E+00 -0.00000000000E+00 -0.53312206478E+03  0.53312206478E+03  0.00000000000E+00 0. -1.
          6    2    1    2  501    0  0.10643127713E+03  0.50047458722E+03  0.10547627876E+04  0.11848025409E+04  0.17155201466E+03 0.  0.
         24    2    3    3    0    0  0.43243087152E+02  0.44572664452E+03  0.91578020949E+03  0.10225424670E+04  0.79984364048E+02 0.  0.
         -6    2    1    2    0  502 -0.10643127713E+03 -0.50047458722E+03 -0.31186152529E+03  0.62434285091E+03  0.17533954293E+03 0.  0.
        -24    2    5    5    0    0 -0.96199896199E+02 -0.44784265312E+03 -0.21108659207E+03  0.51009540539E+03  0.76304071058E+02 0.  0.
          5    1    3    3  501    0  0.63188189975E+02  0.54747942705E+02  0.13898257811E+03  0.16226007396E+03  0.47000000000E+01 0. -1.
        -11    1    4    4    0    0  0.40656758820E+01  0.30355628294E+03  0.67606801835E+03  0.74110114834E+03  0.00000000000E+00 0.  1.
         12    1    4    4    0    0  0.39177411270E+02  0.14217036158E+03  0.23971219113E+03  0.28144131865E+03  0.00000000000E+00 0. -1.
         -5    1    5    5    0  502 -0.10231380928E+02 -0.52631934101E+02 -0.10077493322E+03  0.11424744552E+03  0.47000000000E+01 0.  1.
         11    1    6    6    0    0 -0.67490920473E+01 -0.14041195367E+03 -0.35743646027E+02  0.14504714823E+03  0.00000000000E+00 0. -1.
        -12    1    6    6    0    0 -0.89450804151E+02 -0.30743069945E+03 -0.17534294605E+03  0.36504825716E+03  0.00000000000E+00 0.  1.
</event>
<event>
12    1  0.1032880E+000  0.2564928E+03  0.7818608E-02  0.1110493E+00
         21   -1    0    0  503  502  0.00000000000E+00  0.00000000000E+00  0.17954779635E+03  0.17954779635E+03  0.00000000000E+00 0. -1.
         21   -1    0    0  501  503 -0.00000000000E+00 -0.00000000000E+00 -0.51591121380E+03  0.51591121380E+03  0.00000000000E+00 0. -1.
          6    2    1    2  501    0 -0.16795095991E+03 -0.63742466723E+02  0.27658376098E+02  0.25014963216E+03  0.17186979287E+03 0.  0.
         24    2    3    3    0    0 -0.11582256418E+03 -0.35130175963E+02  0.85866843436E+02  0.16680487531E+03  0.76169258823E+02 0.  0.
         -6    2    1    2    0  502  0.16795095991E+03  0.63742466723E+02 -0.36402179355E+03  0.44530937799E+03  0.18307907840E+03 0.  0.
        -24    2    5    5    0    0  0.13260568450E+03  0.66220422023E+02 -0.14042760378E+03  0.21887642885E+03  0.78851552617E+02 0.  0.
          5    1    3    3  501    0 -0.52128395728E+02 -0.28612290760E+02 -0.58208467339E+02  0.83344756845E+02  0.47000000000E+01 0. -1.
        -13    1    4    4    0    0 -0.98222345856E+02 -0.50953838740E+02  0.90182079698E+02  0.14274708546E+03  0.00000000000E+00 0.  1.
         14    1    4    4    0    0 -0.17600218326E+02  0.15823662776E+02 -0.43152362618E+01  0.24057789856E+02  0.00000000000E+00 0. -1.
         -5    1    5    5    0  502  0.35345275411E+02 -0.24779552999E+01 -0.22359418977E+03  0.22643294914E+03  0.47000000000E+01 0.  1.
         13    1    6    6    0    0  0.13106732126E+00 -0.58605426437E+01 -0.33481764196E+02  0.33991052829E+02  0.00000000000E+00 0. -1.
        -14    1    6    6    0    0  0.13247461718E+03  0.72080964667E+02 -0.10694583958E+03  0.18488537602E+03  0.00000000000E+00 0.  1.
</event>
<event>
12    1  0.1032880E+000  0.2223209E+03  0.7818608E-02  0.1132257E+00
         21   -1    0    0  501  502  0.00000000000E+00  0.00000000000E+00  0.17543669151E+03  0.17543669151E+03  0.00000000000E+00 0.  1.
         21   -1    0    0  502  503 -0.00000000000E+00 -0.00000000000E+00 -0.29021525439E+03  0.29021525439E+03  0.00000000000E+00 0.  1.
         -6    2    1    2    0  503  0.14108696302E+03  0.59602161294E+01 -0.98720728544E+02  0.24325372937E+03  0.17171353848E+03 0.  0.
        -24    2    3    3    0    0  0.15507270731E+03  0.43913552447E+02 -0.72653271733E+02  0.19490438516E+03  0.82056546494E+02 0.  0.
          6    2    1    2  501    0 -0.14108696302E+03 -0.59602161294E+01 -0.16057834335E+02  0.22239821653E+03  0.17106156015E+03 0.  0.
         24    2    5    5    0    0 -0.13695824559E+03  0.39470819450E+02  0.20186078490E+02  0.16394535930E+03  0.78454422732E+02 0.  0.
          5    1    5    5  501    0 -0.41287174265E+01 -0.45431035580E+02 -0.36243912825E+02  0.58452857230E+02  0.47000000000E+01 0. -1.
        -11    1    6    6    0    0 -0.68524368715E+02  0.83860821122E+01 -0.28180051186E+02  0.74565613830E+02  0.00000000000E+00 0.  1.
         12    1    6    6    0    0 -0.68433876880E+02  0.31084737338E+02  0.48366129676E+02  0.89379745468E+02  0.00000000000E+00 0. -1.
         -5    1    3    3    0  503 -0.13985744284E+02 -0.37953336318E+02 -0.26067456811E+02  0.48349344209E+02  0.47000000000E+01 0.  1.
         13    1    4    4    0    0  0.14552382949E+03  0.31280205122E+02 -0.87947644214E+02  0.17288847361E+03  0.00000000000E+00 0. -1.
        -14    1    4    4    0    0  0.95488778116E+01  0.12633347325E+02  0.15294372481E+02  0.22015911557E+02  0.00000000000E+00 0.  1.
</event>
<event>
12    1  0.1032880E+000  0.2841176E+03  0.7818608E-02  0.1093724E+00
         21   -1    0    0  501  502  0.00000000000E+00  0.00000000000E+00  0.45396670569E+03  0.45396670569E+03  0.00000000000E+00 0. -1.
         21   -1    0    0  502  503 -0.00000000000E+00 -0.00000000000E+00 -0.25908977824E+03  0.25908977824E+03  0.00000000000E+00 0. -1.
         -6    2    1    2    0  503  0.19297171573E+03 -0.11160541241E+03 -0.10396720173E+03  0.30070880117E+03  0.17298194388E+03 0.  0.
        -24    2    3    3    0    0  0.62815915161E+02  0.39566821769E+01 -0.72599520734E+02  0.12378748662E+03  0.78045864095E+02 0.  0.
          6    2    1    2  501    0 -0.19297171573E+03  0.11160541241E+03  0.29884412918E+03  0.41234768276E+03  0.17615035277E+03 0.  0.
         24    2    5    5    0    0 -0.11136611242E+03  0.47464908867E+02  0.70448138358E+02  0.16142877691E+03  0.80255724089E+02 0.  0.
          5    1    5    5  501    0 -0.81605603317E+02  0.64140503545E+02  0.22839599082E+03  0.25091890585E+03  0.47000000000E+01 0. -1.
        -13    1    6    6    0    0 -0.99939141146E+02  0.71763257271E+01  0.64421702322E+02  0.11911963446E+03  0.00000000000E+00 0.  1.
         14    1    6    6    0    0 -0.11426971272E+02  0.40288583140E+02  0.60264360364E+01  0.42309142453E+02  0.00000000000E+00 0. -1.
         -5    1    3    3    0  503  0.13015580057E+03 -0.11556209459E+03 -0.31367681000E+02  0.17692131454E+03  0.47000000000E+01 0.  1.
         13    1    4    4    0    0  0.78535527516E+02  0.12379083932E+02 -0.46277046136E+02  0.91992585572E+02  0.00000000000E+00 0. -1.
        -14    1    4    4    0    0 -0.15719612355E+02 -0.84224017546E+01 -0.26322474597E+02  0.31794901051E+02  0.00000000000E+00 0.  1.
</event>
<event>
12    1  0.1032880E+000  0.2034526E+03  0.7818608E-02  0.1147155E+00
         21   -1    0    0  503  502  0.00000000000E+00  0.00000000000E+00  0.67330384830E+02  0.67330384830E+02  0.00000000000E+00 0. -1.
         21   -1    0    0  501  503 -0.00000000000E+00 -0.00000000000E+00 -0.61172681601E+03  0.61172681601E+03  0.00000000000E+00 0. -1.
          6    2    1    2  501    0 -0.99041180240E+02  0.40686997689E+02 -0.28866086995E+03  0.35315444695E+03  0.17299820344E+03 0.  0.
         24    2    3    3    0    0 -0.69462882357E+02 -0.26401888322E+02 -0.25900619376E+03  0.27392513323E+03  0.49281015386E+02 0.  0.
         -6    2    1    2    0  502  0.99041180240E+02 -0.40686997689E+02 -0.25573556123E+03  0.32590275389E+03  0.17131065511E+03 0.  0.
        -24    2    5    5    0    0  0.11665309779E+03  0.16889959550E+02 -0.18478874798E+03  0.23273180373E+03  0.78255959068E+02 0.  0.
          5    1    3    3  501    0 -0.29578297883E+02  0.67088886010E+02 -0.29654676190E+02  0.79229313715E+02  0.47000000000E+01 0. -1.
        -11    1    4    4    0    0 -0.55128400266E+02 -0.39651346137E+02 -0.22102440539E+03  0.23122101449E+03  0.00000000000E+00 0.  1.
         12    1    4    4    0    0 -0.14334482090E+02  0.13249457816E+02 -0.37981788373E+02  0.42704118739E+02  0.00000000000E+00 0. -1.
         -5    1    5    5    0  502 -0.17611917546E+02 -0.57576957239E+02 -0.70946813247E+02  0.93170950164E+02  0.47000000000E+01 0.  1.
         11    1    6    6    0    0  0.97405307070E+02  0.95682511920E+00 -0.18345135955E+03  0.20770919739E+03  0.00000000000E+00 0. -1.
        -12    1    6    6    0    0  0.19247790715E+02  0.15933134431E+02 -0.13373884328E+01  0.25022606340E+02  0.00000000000E+00 0.  1.
</event>
<event>
12    1  0.1032880E+000  0.2047156E+03  0.7818608E-02  0.1145844E+00
         21   -1    0    0  503  502  0.00000000000E+00  0.00000000000E+00  0.11583629769E+03  0.11583629769E+03  0.00000000000E+00 0. -1.
         21   -1    0    0  501  503 -0.00000000000E+00 -0.00000000000E+00 -0.67351445050E+03  0.67351445050E+03  0.00000000000E+00 0. -1.
          6    2    1    2  501    0 -0.10978356650E+03  0.20909849116E+01 -0.10289688989E+02  0.20497400386E+03  0.17277633191E+03 0.  0.
         24    2    3    3    0    0 -0.10616744462E+03  0.81020731963E+01  0.51719560637E+02  0.14239248455E+03  0.79142509554E+02 0.  0.
         -6    2    1    2    0  502  0.10978356650E+03 -0.20909849116E+01 -0.54738846382E+03  0.58437674433E+03  0.17264195693E+03 0.  0.
        -24    2    5    5    0    0  0.87574144364E+02  0.22213686188E+02 -0.53595952512E+03  0.54921019618E+03  0.78845091208E+02 0.  0.
          5    1    3    3  501    0 -0.36161218793E+01 -0.60110882846E+01 -0.62009249626E+02  0.62581519309E+02  0.47000000000E+01 0. -1.
        -13    1    4    4    0    0 -0.20772574659E+02  0.29650579252E+02  0.39326596310E+02  0.53453137282E+02  0.00000000000E+00 0.  1.
         14    1    4    4    0    0 -0.85394869957E+02 -0.21548506056E+02  0.12392964327E+02  0.88939347271E+02  0.00000000000E+00 0. -1.
         -5    1    5    5    0  502  0.22209422131E+02 -0.24304671100E+02 -0.11428938708E+02  0.35166548148E+02  0.47000000000E+01 0.  1.
         13    1    6    6    0    0  0.10265897666E+02  0.16018179104E+02 -0.30467889203E+03  0.30527233410E+03  0.00000000000E+00 0. -1.
        -14    1    6    6    0    0  0.77308246698E+02  0.61955070843E+01 -0.23128063309E+03  0.24393786208E+03  0.00000000000E+00 0.  1.
</event>
<event>
12    1  0.1032880E+000  0.2561698E+03  0.7818608E-02  0.1109563E+00
         21   -1    0    0  503  502  0.00000000000E+00  0.00000000000E+00  0.80073062651E+02  0.80073062651E+02  0.00000000000E+00 0.  1.
         21   -1    0    0  501  503 -0.00000000000E+00 -0.00000000000E+00 -0.83817736340E+03  0.83817736340E+03  0.00000000000E+00 0.  1.
          6    2    1    2  501    0  0.18901819202E+03  0.17007935294E+02 -0.30744441758E+03  0.40018127091E+03  0.17206345607E+03 0.  0.
         24    2    3    3    0    0  0.10336709345E+03  0.26753064596E+02 -0.75560754716E+02  0.15274804490E+03  0.78880004409E+02 0.  0.
         -6    2    1    2    0  502 -0.18901819202E+03 -0.17007935294E+02 -0.45065988318E+03  0.51806915514E+03  0.17112618861E+03 0.  0.
        -24    2    5    5    0    0 -0.20068226090E+02 -0.24453854440E+02 -0.12664733758E+03  0.15254794864E+03  0.78934173987E+02 0.  0.
          5    1    3    3  501    0  0.85651098569E+02 -0.97451293014E+01 -0.23188366286E+03  0.24743322601E+03  0.47000000000E+01 0. -1.
        -13    1    4    4    0    0  0.15028439669E+02  0.37412806687E+02 -0.81923686671E+01  0.41142277616E+02  0.00000000000E+00 0.  1.
         14    1    4    4    0    0  0.88338653778E+02 -0.10659742092E+02 -0.67368386049E+02  0.11160576729E+03  0.00000000000E+00 0. -1.
         -5    1    5    5    0  502 -0.16894996593E+03  0.74459191456E+01 -0.32401254560E+03  0.36552120650E+03  0.47000000000E+01 0.  1.
         11    1    6    6    0    0 -0.39764358848E+02 -0.42459715056E+02 -0.82130332993E+02  0.10064503582E+03  0.00000000000E+00 0. -1.
        -12    1    6    6    0    0  0.19696132757E+02  0.18005860616E+02 -0.44517004585E+02  0.51902912821E+02  0.00000000000E+00 0.  1.
</event>
<event>
12    1  0.1032880E+000  0.1789073E+03  0.7818608E-02  0.1168888E+00
         21   -1    0    0  501  502  0.00000000000E+00  0.00000000000E+00  0.22356555293E+02  0.22356555293E+02  0.00000000000E+00 0. -1.
         21   -1    0    0  502  503 -0.00000000000E+00 -0.00000000000E+00 -0.16631742486E+04  0.16631742486E+04  0.00000000000E+00 0. -1.
         -6    2    1    2    0  503 -0.55509065597E+01 -0.48208379864E+02 -0.11351436240E+04  0.11491409533E+04  0.17210178068E+03 0.  0.
        -24    2    3    3    0    0 -0.67544552095E+02 -0.47152757609E+02 -0.66169488140E+03  0.67162642124E+03  0.80351008527E+02 0.  0.
          6    2    1    2  501    0  0.55509065597E+01  0.48208379864E+02 -0.50567406937E+03  0.53638985069E+03  0.17220031079E+03 0.  0.
         24    2    5    5    0    0  0.41618699265E+02  0.67063426480E+02 -0.46150456425E+03  0.47614506970E+03  0.86591254059E+02 0.  0.
          5    1    5    5  501    0 -0.36067792706E+02 -0.18855046615E+02 -0.44169505125E+02  0.60244780990E+02  0.47000000000E+01 0. -1.
        -11    1    6    6    0    0  0.61136686279E+02  0.18573895924E+02 -0.22258489142E+03  0.23157443276E+03  0.00000000000E+00 0.  1.
         12    1    6    6    0    0 -0.19517987013E+02  0.48489530555E+02 -0.23891967283E+03  0.24457063694E+03  0.00000000000E+00 0. -1.
         -5    1    3    3    0  503  0.61993645535E+02 -0.10556222552E+01 -0.47344874258E+03  0.47751453201E+03  0.47000000000E+01 0.  1.
         13    1    4    4    0    0  0.12824314928E+02  0.83753333020E+01 -0.54003305390E+02  0.56133468220E+02  0.00000000000E+00 0. -1.
        -14    1    4    4    0    0 -0.80368867023E+02 -0.55528090911E+02 -0.60769157601E+03  0.61549295302E+03  0.00000000000E+00 0.  1.
</event>
<event>
12    1  0.1032880E+000  0.2951723E+03  0.7818608E-02  0.1087868E+00
         21   -1    0    0  503  502  0.00000000000E+00  0.00000000000E+00  0.95991063991E+03  0.95991063991E+03  0.00000000000E+00 0. -1.
         21   -1    0    0  501  503 -0.00000000000E+00 -0.00000000000E+00 -0.16156329054E+03  0.16156329054E+03  0.00000000000E+00 0.  1.
          6    2    1    2  501    0 -0.20767537492E+03  0.12012525153E+03  0.26234701969E+02  0.29486360983E+03  0.16940233591E+03 0.  0.
         24    2    3    3    0    0 -0.22156553739E+03  0.13580763889E+03  0.27429430315E+02  0.27336032491E+03  0.80240210906E+02 0.  0.
         -6    2    1    2    0  502  0.20767537492E+03 -0.12012525153E+03  0.77211264740E+03  0.82661032062E+03  0.17195215751E+03 0.  0.
        -24    2    5    5    0    0  0.20481723548E+02 -0.37874081774E+02  0.24865887237E+03  0.26462040733E+03  0.79616443648E+02 0.  0.
          5    1    3    3  501    0  0.13890162469E+02 -0.15682387358E+02 -0.11947283461E+01  0.21503284923E+02  0.47000000000E+01 0. -1.
        -13    1    4    4    0    0 -0.11569198069E+03  0.25674120451E+02  0.22391772025E+01  0.11852767091E+03  0.00000000000E+00 0.  1.
         14    1    4    4    0    0 -0.10587355670E+03  0.11013351844E+03  0.25190253112E+02  0.15483265400E+03  0.00000000000E+00 0. -1.
         -5    1    5    5    0  502  0.18719365137E+03 -0.82251169759E+02  0.52345377503E+03  0.56198991329E+03  0.47000000000E+01 0.  1.
         13    1    6    6    0    0  0.14637331492E+02  0.23826382890E+02  0.91688033278E+02  0.95857412030E+02  0.00000000000E+00 0. -1.
        -14    1    6    6    0    0  0.58443920558E+01 -0.61700464664E+02  0.15697083909E+03  0.16876299530E+03  0.00000000000E+00 0.  1.
</event>
<event>
12    1  0.1032880E+000  0.6585214E+03  0.7818608E-02  0.9790934E-01
         21   -1    0    0  501  502  0.00000000000E+00  0.00000000000E+00  0.10855701316E+04  0.10855701316E+04  0.00000000000E+00 0.  1.
         21   -1    0    0  502  503 -0.00000000000E+00 -0.00000000000E+00 -0.40413011480E+03  0.40413011480E+03  0.00000000000E+00 0.  1.
         -6    2    1    2    0  503 -0.61007447140E+03 -0.17816392611E+03  0.42089035934E+03  0.78153642622E+03  0.17238690701E+03 0.  0.
        -24    2    3    3    0    0 -0.16793253408E+03 -0.95626380271E+02  0.13502962119E+03  0.24858202778E+03  0.78830738471E+02 0.  0.
          6    2    1    2  501    0  0.61007447140E+03  0.17816392611E+03  0.26054965750E+03  0.70816382021E+03  0.17226905413E+03 0.  0.
         24    2    5    5    0    0  0.17433923420E+03  0.85150686721E+02  0.50968187634E+02  0.21575835502E+03  0.79429865789E+02 0.  0.
          5    1    5    5  501    0  0.43573523720E+03  0.93013239388E+02  0.20958146987E+03  0.49240546520E+03  0.47000000000E+01 0. -1.
        -11    1    6    6    0    0  0.59549828595E+02  0.23668006936E+01  0.43964619819E+02  0.74058568897E+02  0.00000000000E+00 0.  1.
         12    1    6    6    0    0  0.11478940560E+03  0.82783886027E+02  0.70035678148E+01  0.14169978612E+03  0.00000000000E+00 0. -1.
         -5    1    3    3    0  503 -0.44214193732E+03 -0.82537545837E+02  0.28586073815E+03  0.53295439845E+03  0.47000000000E+01 0.  1.
         13    1    4    4    0    0 -0.13216714086E+03 -0.60852759879E+02  0.57630856732E+02  0.15650088548E+03  0.00000000000E+00 0. -1.
        -14    1    4    4    0    0 -0.35765393224E+02 -0.34773620392E+02  0.77398764457E+02  0.92081142299E+02  0.00000000000E+00 0.  1.
</event>
<event>
12    1  0.1032880E+000  0.1876184E+03  0.7818608E-02  0.1160997E+00
         21   -1    0    0  503  502  0.00000000000E+00  0.00000000000E+00  0.32165134662E+03  0.32165134662E+03  0.00000000000E+00 0.  1.
         21   -1    0    0  501  503 -0.00000000000E+00 -0.00000000000E+00 -0.11096980552E+03  0.11096980552E+03  0.00000000000E+00 0.  1.
          6    2    1    2  501    0  0.75108443944E+02 -0.30281875759E+01  0.72650846163E+02  0.19969812446E+03  0.17014919098E+03 0.  0.
         24    2    3    3    0    0 -0.21818145762E+02 -0.43844240163E+01  0.75783683246E+01  0.82851556081E+02  0.79446170582E+02 0.  0.
         -6    2    1    2    0  502 -0.75108443944E+02  0.30281875759E+01  0.13803069493E+03  0.23292302768E+03  0.17190176209E+03 0.  0.
        -24    2    5    5    0    0 -0.66066282510E+02  0.50273820160E+01  0.71132191663E+01  0.10159430682E+03  0.76686224560E+02 0.  0.
          5    1    3    3  501    0  0.96926589706E+02  0.13562364404E+01  0.65072477838E+02  0.11684656838E+03  0.47000000000E+01 0. -1.
        -13    1    4    4    0    0  0.87723643032E+01 -0.11157511410E+02 -0.30440104784E+02  0.33586372469E+02  0.00000000000E+00 0.  1.
         14    1    4    4    0    0 -0.30590510065E+02  0.67730873934E+01  0.38018473109E+02  0.49265183613E+02  0.00000000000E+00 0. -1.
         -5    1    5    5    0  502 -0.90421614345E+01 -0.19991944401E+01  0.13091747577E+03  0.13132872086E+03  0.47000000000E+01 0.  1.
         13    1    6    6    0    0 -0.67270676674E+02  0.21782225336E+02  0.26886978293E+02  0.75648654201E+02  0.00000000000E+00 0. -1.
        -14    1    6    6    0    0  0.12043941640E+01 -0.16754843320E+02 -0.19773759126E+02  0.25945652622E+02  0.00000000000E+00 0.  1.
</event>
<event>
12    1  0.1032880E+000  0.3653399E+03  0.7818608E-02  0.1056727E+00
         21   -1    0    0  503  502  0.00000000000E+00  0.00000000000E+00  0.25733127322E+03  0.25733127322E+03  0.00000000000E+00 0.  1.
         21   -1    0    0  501  503 -0.00000000000E+00 -0.00000000000E+00 -0.58824503255E+03  0.58824503255E+03  0.00000000000E+00 0.  1.
          6    2    1    2  501    0 -0.28037884796E+03 -0.15327415981E+03 -0.31490280725E+03  0.48232460931E+03  0.17711009086E+03 0.  0.
         24    2    3    3    0    0 -0.91186807448E+02 -0.17900089652E+02 -0.16571886326E+03  0.20592325944E+03  0.79411586544E+02 0.  0.
         -6    2    1    2    0  502  0.28037884796E+03  0.15327415981E+03 -0.16010952078E+02  0.36325169646E+03  0.17201795820E+03 0.  0.
        -24    2    5    5    0    0  0.14492198407E+03  0.15114960123E+03  0.14022000517E+02  0.22440954160E+03  0.79463466081E+02 0.  0.
          5    1    3    3  501    0 -0.18919204052E+03 -0.13537407016E+03 -0.14918394399E+03  0.27640134987E+03  0.47000000000E+01 0. -1.
        -13    1    4    4    0    0 -0.70832595307E+02  0.20092908568E+02 -0.73031335642E+02  0.10370418274E+03  0.00000000000E+00 0.  1.
         14    1    4    4    0    0 -0.20354212141E+02 -0.37992998219E+02 -0.92687527620E+02  0.10221907670E+03  0.00000000000E+00 0. -1.
         -5    1    5    5    0  502  0.13545686389E+03  0.21245585766E+01 -0.30032952595E+02  0.13884215486E+03  0.47000000000E+01 0.  1.
         11    1    6    6    0    0  0.14529756359E+03  0.10969635201E+03  0.16993899424E+02  0.18284820001E+03  0.00000000000E+00 0. -1.
        -12    1    6    6    0    0 -0.37557952211E+00  0.41453249225E+02 -0.29718989069E+01  0.41561341586E+02  0.00000000000E+00 0.  1.
</event>
<event>
12    1  0.1032880E+000  0.5130173E+03  0.7818608E-02  0.1010498E+00
         21   -1    0    0  501  502  0.00000000000E+00  0.00000000000E+00  0.43093976220E+03  0.43093976220E+03  0.00000000000E+00 0.  1.
         21   -1    0    0  502  503 -0.00000000000E+00 -0.00000000000E+00 -0.61055840018E+03  0.61055840018E+03  0.00000000000E+00 0.  1.
         -6    2    1    2    0  503  0.39168868841E+03 -0.28245408574E+03 -0.68736001623E+02  0.51663469387E+03  0.17025401555E+03 0.  0.
        -24    2    3    3    0    0  0.71248705109E+02 -0.71342520255E+02 -0.38903222856E+01  0.12743432374E+03  0.77834690746E+02 0.  0.
          6    2    1    2  501    0 -0.39168868841E+03  0.28245408574E+03 -0.11088263636E+03  0.52486346851E+03  0.17316570778E+03 0.  0.
         24    2    5    5    0    0 -0.67645808760E+02  0.81545931261E+02 -0.25842598916E+02  0.13419510230E+03  0.78197130479E+02 0.  0.
          5    1    5    5  501    0 -0.32404287965E+03  0.20090815448E+03 -0.85040037441E+02  0.39066836621E+03  0.47000000000E+01 0. -1.
        -13    1    6    6    0    0 -0.32468273736E+02  0.56193039586E+02 -0.52343289390E+02  0.83376654055E+02  0.00000000000E+00 0.  1.
         14    1    6    6    0    0 -0.35177535025E+02  0.25352891675E+02  0.26500690474E+02  0.50818448248E+02  0.00000000000E+00 0. -1.
         -5    1    3    3    0  503  0.32043998330E+03 -0.21111156548E+03 -0.64845679337E+02  0.38920037013E+03  0.47000000000E+01 0.  1.
         13    1    4    4    0    0  0.79380051943E+02 -0.29574487884E+02 -0.51138480128E+01  0.84864565171E+02  0.00000000000E+00 0. -1.
        -14    1    4    4    0    0 -0.81313468338E+01 -0.41768032371E+02  0.12235257271E+01  0.42569758570E+02  0.00000000000E+00 0.  1.
</event>
<event>
12    1  0.1032880E+000  0.2342420E+03  0.7818608E-02  0.1123769E+00
         21   -1    0    0  503  502  0.00000000000E+00  0.00000000000E+00  0.14496724457E+03  0.14496724457E+03  0.00000000000E+00 0.  1.
         21   -1    0    0  501  503 -0.00000000000E+00 -0.00000000000E+00 -0.48651102645E+03  0.48651102645E+03  0.00000000000E+00 0.  1.
          6    2    1    2  501    0 -0.13569580331E+03 -0.80569605103E+02 -0.21351423269E+02  0.23475109404E+03  0.17247428961E+03 0.  0.
         24    2    3    3    0    0 -0.66918446194E+02  0.13304401221E+02  0.27651894621E+02  0.10839418256E+03  0.79558695336E+02 0.  0.
         -6    2    1    2    0  502  0.13569580331E+03  0.80569605103E+02 -0.32019235861E+03  0.39672717698E+03  0.17310255383E+03 0.  0.
        -24    2    5    5    0    0  0.10671700967E+03  0.12419877064E+03 -0.25038352118E+03  0.30932787293E+03  0.78600066856E+02 0.  0.
          5    1    3    3  501    0 -0.68777357112E+02 -0.93874006324E+02 -0.49003317891E+02  0.12635691148E+03  0.47000000000E+01 0. -1.
        -11    1    4    4    0    0 -0.19283378127E+02  0.43223721355E+02  0.20897806296E+02  0.51738352001E+02  0.00000000000E+00 0.  1.
         12    1    4    4    0    0 -0.47635068067E+02 -0.29919320135E+02  0.67540883249E+01  0.56655830557E+02  0.00000000000E+00 0. -1.
         -5    1    5    5    0  502  0.28978793636E+02 -0.43629165537E+02 -0.69808837425E+02  0.87399304052E+02  0.47000000000E+01 0.  1.
         11    1    6    6    0    0  0.85699232602E+02  0.41193175274E+02 -0.11610346979E+03  0.15007082280E+03  0.00000000000E+00 0. -1.
        -12    1    6    6    0    0  0.21017777068E+02  0.83005595366E+02 -0.13428005139E+03  0.15925705013E+03  0.00000000000E+00 0.  1.
</event>
<event>
12    1  0.1032880E+000  0.2363911E+03  0.7818608E-02  0.1122536E+00
         21   -1    0    0  501  502  0.00000000000E+00  0.00000000000E+00  0.11486127346E+03  0.11486127346E+03  0.00000000000E+00 0. -1.
         21   -1    0    0  502  503 -0.00000000000E+00 -0.00000000000E+00 -0.56183822678E+03  0.56183822678E+03  0.00000000000E+00 0. -1.
         -6    2    1    2    0  503 -0.12061042509E+03  0.10837447567E+03 -0.97261970124E+02  0.25561817742E+03  0.17201412785E+03 0.  0.
        -24    2    3    3    0    0 -0.39171579276E+02  0.23937055244E+02 -0.10284317577E+03  0.13808008389E+03  0.79887392797E+02 0.  0.
          6    2    1    2  501    0  0.12061042509E+03 -0.10837447567E+03 -0.34971498320E+03  0.42108132281E+03  0.16946093748E+03 0.  0.
         24    2    5    5    0    0  0.94556200658E+01 -0.60456642830E+02 -0.96004089152E+02  0.13993577840E+03  0.81368436941E+02 0.  0.
          5    1    5    5  501    0  0.11115480502E+03 -0.47917832840E+02 -0.25371089405E+03  0.28114554441E+03  0.47000000000E+01 0. -1.
        -11    1    6    6    0    0 -0.19865112020E+02  0.11272943615E+02 -0.12586510521E+02  0.26079152218E+02  0.00000000000E+00 0.  1.
         12    1    6    6    0    0  0.29320732086E+02 -0.71729586445E+02 -0.83417578630E+02  0.11385662618E+03  0.00000000000E+00 0. -1.
         -5    1    3    3    0  503 -0.81438845813E+02  0.84437420426E+02  0.55812056444E+01  0.11753809354E+03  0.47000000000E+01 0.  1.
         11    1    4    4    0    0  0.18793733784E+02  0.37207294284E+01 -0.60610849684E+02  0.63566684328E+02  0.00000000000E+00 0. -1.
        -12    1    4    4    0    0 -0.57965313060E+02  0.20216325816E+02 -0.42232326085E+02  0.74513399561E+02  0.00000000000E+00 0.  1.
</event>
<event>
12    1  0.1032880E+000  0.6725483E+03  0.7818608E-02  0.9765822E-01
         21   -1    0    0  501  502  0.00000000000E+00  0.00000000000E+00  0.99448541962E+03  0.99448541962E+03  0.00000000000E+00 0.  1.
         21   -1    0    0  502  503 -0.00000000000E+00 -0.00000000000E+00 -0.60144996652E+03  0.60144996652E+03  0.00000000000E+00 0. -1.
         -6    2    1    2    0  503  0.64935413242E+03 -0.47931484546E+01 -0.19850305991E+03  0.70025744636E+03  0.17109430975E+03 0.  0.
        -24    2    3    3    0    0  0.52162528736E+03  0.45242817415E+01 -0.96962437414E+02  0.53675191012E+03  0.81163348909E+02 0.  0.
          6    2    1    2  501    0 -0.64935413242E+03  0.47931484546E+01  0.59153851301E+03  0.89567793978E+03  0.17503541318E+03 0.  0.
         24    2    5    5    0    0 -0.44427436065E+03 -0.41813942348E+02  0.33304696376E+03  0.56240642174E+03  0.79073319377E+02 0.  0.
          5    1    5    5  501    0 -0.20507977177E+03  0.46607090803E+02  0.25849154926E+03  0.33327151804E+03  0.47000000000E+01 0. -1.
        -11    1    6    6    0    0 -0.40665504514E+02  0.17640016957E+02  0.22608185605E+02  0.49759255541E+02  0.00000000000E+00 0.  1.
         12    1    6    6    0    0 -0.40360885614E+03 -0.59453959305E+02  0.31043877815E+03  0.51264716619E+03  0.00000000000E+00 0. -1.
         -5    1    3    3    0  503  0.12772884506E+03 -0.93174301961E+01 -0.10154062250E+03  0.16350553624E+03  0.47000000000E+01 0.  1.
         13    1    4    4    0    0  0.39557348631E+03 -0.70595409046E+01 -0.10676804239E+03  0.40978974495E+03  0.00000000000E+00 0. -1.
        -14    1    4    4    0    0  0.12605180105E+03  0.11583822646E+02  0.98056049785E+01  0.12696216517E+03  0.00000000000E+00 0.  1.
</event>
<event>
12    1  0.1032880E+000  0.3619792E+03  0.7818608E-02  0.1057855E+00
         21   -1    0    0  501  502  0.00000000000E+00  0.00000000000E+00  0.15654538960E+03  0.15654538960E+03  0.00000000000E+00 0.  1.
         21   -1    0    0  502  503 -0.00000000000E+00 -0.00000000000E+00 -0.13767035905E+04  0.13767035905E+04  0.00000000000E+00 0.  1.
         -6    2    1    2    0  503 -0.24891068059E+03 -0.19776958043E+03 -0.12981002610E+03  0.38455114483E+03  0.17308843478E+03 0.  0.
        -24    2    3    3    0    0 -0.20660814069E+03 -0.85759532721E+02 -0.56524262455E+02  0.24409243622E+03  0.79652394334E+02 0.  0.
          6    2    1    2  501    0  0.24891068059E+03  0.19776958043E+03 -0.10903481748E+04  0.11486978352E+04  0.17198325672E+03 0.  0.
         24    2    5    5    0    0  0.10107993287E+03  0.15142131300E+03 -0.72783135608E+03  0.75443570707E+03  0.79304390552E+02 0.  0.
          5    1    5    5  501    0  0.14783074773E+03  0.46348267439E+02 -0.36251681868E+03  0.39426212815E+03  0.47000000000E+01 0. -1.
        -11    1    6    6    0    0  0.90665772628E+02  0.14427069959E+03 -0.54149664969E+03  0.56767326757E+03  0.00000000000E+00 0.  1.
         12    1    6    6    0    0  0.10414160239E+02  0.71506134067E+01 -0.18633470639E+03  0.18676243951E+03  0.00000000000E+00 0. -1.
         -5    1    3    3    0  503 -0.42302539904E+02 -0.11201004771E+03 -0.73285763643E+02  0.14045870861E+03  0.47000000000E+01 0.  1.
         11    1    4    4    0    0 -0.63060563407E+02 -0.46058971145E+02 -0.54346898530E+02  0.95140153773E+02  0.00000000000E+00 0. -1.
        -12    1    4    4    0    0 -0.14354757728E+03 -0.39700561576E+02 -0.21773639251E+01  0.14895228245E+03  0.00000000000E+00 0.  1.
</event>
<event>
12    1  0.1032880E+000  0.1970471E+03  0.7818608E-02  0.1152338E+00
         21   -1    0    0  503  502  0.00000000000E+00  0.00000000000E+00  0.75217729387E+03  0.75217729387E+03  0.00000000000E+00 0.  1.
         21   -1    0    0  501  503 -0.00000000000E+00 -0.00000000000E+00 -0.10258365171E+03  0.10258365171E+03  0.00000000000E+00 0.  1.
          6    2    1    2  501    0 -0.57309870634E+02  0.75708727612E+02  0.23423809126E+02  0.19843448223E+03  0.17265959630E+03 0.  0.
         24    2    3    3    0    0 -0.64022303613E+02  0.62554152566E+02 -0.45794009506E+02  0.12750285305E+03  0.78409239678E+02 0.  0.
         -6    2    1    2    0  502  0.57309870634E+02 -0.75708727612E+02  0.62616983304E+03  0.65632646335E+03  0.17221943555E+03 0.  0.
        -24    2    5    5    0    0  0.14534992539E+02 -0.40469730238E+02  0.56996941178E+03  0.57725652924E+03  0.80690179712E+02 0.  0.
          5    1    3    3  501    0  0.67124329788E+01  0.13154575045E+02  0.69217818632E+02  0.70931629174E+02  0.47000000000E+01 0. -1.
        -13    1    4    4    0    0 -0.37806228257E+01  0.11161305824E+02 -0.46851386063E+02  0.48310663757E+02  0.00000000000E+00 0.  1.
         14    1    4    4    0    0 -0.60241680787E+02  0.51392846742E+02  0.10573765570E+01  0.79192189296E+02  0.00000000000E+00 0. -1.
         -5    1    5    5    0  502  0.42774878095E+02 -0.35238997374E+02  0.56200421256E+02  0.79069934117E+02  0.47000000000E+01 0.  1.
         11    1    6    6    0    0  0.28254879970E+02 -0.50839560093E+02  0.24410989480E+03  0.25094349932E+03  0.00000000000E+00 0. -1.
        -12    1    6    6    0    0 -0.13719887431E+02  0.10369829856E+02  0.32585951699E+03  0.32631302992E+03  0.00000000000E+00 0.  1.
</event>
<event>
12    1  0.1032880E+000  0.6818338E+03  0.7818608E-02  0.9748858E-01
         21   -1    0    0  503  502  0.00000000000E+00  0.00000000000E+00  0.11946568991E+04  0.11946568991E+04  0.00000000000E+00 0.  1.
         21   -1    0    0  501  503 -0.00000000000E+00 -0.00000000000E+00 -0.43792818532E+03  0.43792818532E+03  0.00000000000E+00 0.  1.
          6    2    1    2  501    0 -0.56065635385E+03 -0.34787066446E+03  0.10578778055E+03  0.68999157981E+03  0.17189467529E+03 0.  0.
         24    2    3    3    0    0 -0.44093396354E+03 -0.19985688703E+03  0.61998559932E+02  0.49459169523E+03  0.80072392661E+02 0.  0.
         -6    2    1    2    0  502  0.56065635385E+03  0.34787066446E+03  0.65094093328E+03  0.94259350466E+03  0.17149014581E+03 0.  0.
        -24    2    5    5    0    0  0.23975685909E+03  0.13431056281E+03  0.19844478748E+03  0.34815321774E+03  0.79420718842E+02 0.  0.
          5    1    3    3  501    0 -0.11972239031E+03 -0.14801377743E+03  0.43789220615E+02  0.19539988458E+03  0.47000000000E+01 0. -1.
        -11    1    4    4    0    0 -0.21916651480E+03 -0.12504603466E+03  0.64843286042E+02  0.26052854688E+03  0.00000000000E+00 0.  1.
         12    1    4    4    0    0 -0.22176744873E+03 -0.74810852375E+02 -0.28447261101E+01  0.23406314835E+03  0.00000000000E+00 0. -1.
         -5    1    5    5    0  502  0.32089949476E+03  0.21356010165E+03  0.45249614580E+03  0.59444028692E+03  0.47000000000E+01 0.  1.
         13    1    6    6    0    0  0.31655061924E+02 -0.91906585568E+01  0.28288696435E+02  0.43436867937E+02  0.00000000000E+00 0. -1.
        -14    1    6    6    0    0  0.20810179716E+03  0.14350122137E+03  0.17015609104E+03  0.30471634980E+03  0.00000000000E+00 0.  1.
</event>
<event>
12    1  0.1032880E+000  0.2257547E+03  0.7818608E-02  0.1129873E+00
         21   -1    0    0  503  502  0.00000000000E+00  0.00000000000E+00  0.24056999148E+03  0.24056999148E+03  0.00000000000E+00 0.  1.
         21   -1    0    0  501  503 -0.00000000000E+00 -0.00000000000E+00 -0.21100527818E+03  0.21100527818E+03  0.00000000000E+00 0.  1.
          6    2    1    2  501    0 -0.24044555917E+02 -0.14246639892E+03  0.72626680703E+01  0.22587148065E+03  0.17346574282E+03 0.  0.
         24    2    3    3    0    0  0.10268874023E+02 -0.12438142644E+03  0.58470491945E+02  0.16146023218E+03  0.84109566221E+02 0.  0.
         -6    2    1    2    0  502  0.24044555917E+02  0.14246639892E+03  0.22302045223E+02  0.22570378900E+03  0.17195930815E+03 0.  0.
        -24    2    5    5    0    0  0.20406748659E+02  0.11371003334E+03 -0.52117985592E+02  0.14570008165E+03  0.71873655110E+02 0.  0.
          5    1    3    3  501    0 -0.34313429940E+02 -0.18084972485E+02 -0.51207823875E+02  0.64411248475E+02  0.47000000000E+01 0. -1.
        -13    1    4    4    0    0  0.39784823642E+02 -0.29820844377E+02  0.82602428581E+01  0.50401850796E+02  0.00000000000E+00 0.  1.
         14    1    4    4    0    0 -0.29515949619E+02 -0.94560582062E+02  0.50210249087E+02  0.11105838138E+03  0.00000000000E+00 0. -1.
         -5    1    5    5    0  502  0.36378072577E+01  0.28756365587E+02  0.74420030816E+02  0.80003707352E+02  0.47000000000E+01 0.  1.
         11    1    6    6    0    0  0.74917042845E+01  0.64039808620E+02  0.98658237292E+01  0.65226966809E+02  0.00000000000E+00 0. -1.
        -12    1    6    6    0    0  0.12915044374E+02  0.49670224717E+02 -0.61983809322E+02  0.80473114844E+02  0.00000000000E+00 0.  1.
</event>
<event>
12    1  0.1032880E+000  0.2868019E+03  0.7818608E-02  0.1092269E+00
         21   -1    0    0  501  502  0.00000000000E+00  0.00000000000E+00  0.76930545305E+03  0.76930545305E+03  0.00000000000E+00 0. -1.
         21   -1    0    0  502  503 -0.00000000000E+00 -0.00000000000E+00 -0.11767446625E+03  0.11767446625E+03  0.00000000000E+00 0. -1.
         -6    2    1    2    0  503  0.56612086703E+02 -0.22146238981E+03  0.46489294393E+03  0.54624240800E+03  0.17321893813E+03 0.  0.
        -24    2    3    3    0    0 -0.14653797853E+01 -0.21342284958E+03  0.37081956557E+03  0.43529414602E+03  0.80139773490E+02 0.  0.
          6    2    1    2  501    0 -0.56612086703E+02  0.22146238981E+03  0.18673804288E+03  0.34073751130E+03  0.17023641350E+03 0.  0.
         24    2    5    5    0    0  0.50998438284E+01  0.17296904269E+03  0.17935873831E+03  0.26176592640E+03  0.80047142858E+02 0.  0.
          5    1    5    5  501    0 -0.61711930531E+02  0.48493347118E+02  0.73793045713E+01  0.78971584893E+02  0.47000000000E+01 0. -1.
        -13    1    6    6    0    0 -0.12899620117E+02  0.15527636559E+03  0.11810000062E+03  0.19551153434E+03  0.00000000000E+00 0.  1.
         14    1    6    6    0    0  0.17999463945E+02  0.17692677102E+02  0.61258737686E+02  0.66254392067E+02  0.00000000000E+00 0. -1.
         -5    1    3    3    0  503  0.58077466488E+02 -0.80395402356E+01  0.94073378359E+02  0.11094826198E+03  0.47000000000E+01 0.  1.
         11    1    4    4    0    0  0.13132214357E+02 -0.19833914322E+01  0.92489160584E+01  0.16184293119E+02  0.00000000000E+00 0. -1.
        -12    1    4    4    0    0 -0.14597594142E+02 -0.21143945814E+03  0.36157064951E+03  0.41910985290E+03  0.00000000000E+00 0.  1.
</event>
<event>
12    1  0.1032880E+000  0.2584683E+03  0.7818608E-02  0.1108191E+00
         21   -1    0    0  503  502  0.00000000000E+00  0.00000000000E+00  0.11875727129E+03  0.11875727129E+03  0.00000000000E+00 0.  1.
         21   -1    0    0  501  503 -0.00000000000E+00 -0.00000000000E+00 -0.56239977343E+03  0.56239977343E+03  0.00000000000E+00 0.  1.
          6    2    1    2  501    0 -0.65491144916E+02  0.18143248736E+03 -0.20380704431E+03  0.32915521118E+03  0.17204361136E+03 0.  0.
         24    2    3    3    0    0 -0.63316589179E+01  0.12253024641E+03 -0.20063972056E+03  0.24548059907E+03  0.70361039402E+02 0.  0.
         -6    2    1    2    0  502  0.65491144916E+02 -0.18143248736E+03 -0.23983545783E+03  0.35200183353E+03  0.17081395273E+03 0.  0.
        -24    2    5    5    0    0  0.55507877610E+02 -0.61544348132E+02 -0.10857387475E+03  0.17388803635E+03  0.10761009081E+03 0.  0.
          5    1    3    3  501    0 -0.59159485998E+02  0.58902240951E+02 -0.31673237490E+01  0.83674612113E+02  0.47000000000E+01 0. -1.
        -11    1    4    4    0    0  0.45478005475E+01 -0.52951139006E+01  0.40560506468E+00  0.69917978024E+01  0.00000000000E+00 0.  1.
         12    1    4    4    0    0 -0.10879459465E+02  0.12782536031E+03 -0.20104532562E+03  0.23848880127E+03  0.00000000000E+00 0. -1.
         -5    1    5    5    0  502  0.99832673055E+01 -0.11988813923E+03 -0.13126158308E+03  0.17811379718E+03  0.47000000000E+01 0.  1.
         13    1    6    6    0    0  0.30812458416E+02 -0.89738914762E+02 -0.94326717515E+02  0.13379091917E+03  0.00000000000E+00 0. -1.
        -14    1    6    6    0    0  0.24695419194E+02  0.28194566630E+02 -0.14247157230E+02  0.40097117175E+02  0.00000000000E+00 0.  1.
</event>
<event>
12    1  0.1032880E+000  0.4109459E+03  0.7818608E-02  0.1040238E+00
         21   -1    0    0  503  502  0.00000000000E+00  0.00000000000E+00  0.46929326425E+03  0.46929326425E+03  0.00000000000E+00 0.  1.
         21   -1    0    0  501  503 -0.00000000000E+00 -0.00000000000E+00 -0.44427978089E+03  0.44427978089E+03  0.00000000000E+00 0.  1.
          6    2    1    2  501    0  0.29177144819E+03 -0.23293460317E+03 -0.18889385376E+03  0.45028818430E+03  0.16640148317E+03 0.  0.
         24    2    3    3    0    0  0.24784519550E+03 -0.22823354778E+03 -0.20444415387E+03  0.40321890100E+03  0.85265918197E+02 0.  0.
         -6    2    1    2    0  502 -0.29177144819E+03  0.23293460317E+03  0.21390733712E+03  0.46328486084E+03  0.17171897413E+03 0.  0.
        -24    2    5    5    0    0 -0.98488894674E+02  0.81942907005E+02  0.14330064110E+03  0.20801239204E+03  0.79494522582E+02 0.  0.
          5    1    3    3  501    0  0.43926252690E+02 -0.47010553897E+01  0.15550300111E+02  0.47069283304E+02  0.47000000000E+01 0. -1.
        -13    1    4    4    0    0  0.24062153341E+02 -0.30282310648E+02 -0.59944988109E+02  0.71340081027E+02  0.00000000000E+00 0.  1.
         14    1    4    4    0    0  0.22378304216E+03 -0.19795123713E+03 -0.14449916576E+03  0.33187881997E+03  0.00000000000E+00 0. -1.
         -5    1    5    5    0  502 -0.19328255351E+03  0.15099169616E+03  0.70606696029E+02  0.25527246880E+03  0.47000000000E+01 0.  1.
         11    1    6    6    0    0 -0.97302803156E+02  0.63572598925E+02  0.77531516563E+02  0.13971559289E+03  0.00000000000E+00 0. -1.
        -12    1    6    6    0    0 -0.11860915178E+01  0.18370308080E+02  0.65769124533E+02  0.68296799148E+02  0.00000000000E+00 0.  1.
</event>
<event>
12    1  0.1032880E+000  0.4872751E+03  0.7818608E-02  0.1017188E+00
         21   -1    0    0  501  502  0.00000000000E+00  0.00000000000E+00  0.73524568823E+03  0.73524568823E+03  0.00000000000E+00 0. -1.
         21   -1    0    0  502  503 -0.00000000000E+00 -0.00000000000E+00 -0.72132090328E+03  0.72132090328E+03  0.00000000000E+00 0. -1.
         -6    2    1    2    0  503 -0.11243474395E+03  0.44133861660E+03  0.54842403516E+03  0.73362518528E+03  0.17325023517E+03 0.  0.
        -24    2    3    3    0    0 -0.85173249729E+02  0.13718517290E+03  0.16407080540E+03  0.24270563829E+03  0.76893065641E+02 0.  0.
          6    2    1    2  501    0  0.11243474395E+03 -0.44133861660E+03 -0.53449925021E+03  0.72294140622E+03  0.17185308321E+03 0.  0.
         24    2    5    5    0    0 -0.11404880529E+02 -0.19010420974E+03 -0.21190550586E+03  0.29568996541E+03  0.79113401970E+02 0.  0.
          5    1    5    5  501    0  0.12383962448E+03 -0.25123440686E+03 -0.32259374435E+03  0.42725144081E+03  0.47000000000E+01 0. -1.
        -13    1    6    6    0    0  0.24895602561E+02 -0.93322075803E+02 -0.66406941304E+02  0.11721212698E+03  0.00000000000E+00 0.  1.
         14    1    6    6    0    0 -0.36300483089E+02 -0.96782133937E+02 -0.14549856456E+03  0.17847783843E+03  0.00000000000E+00 0. -1.
         -5    1    3    3    0  503 -0.27261494223E+02  0.30415344370E+03  0.38435322976E+03  0.49091954699E+03  0.47000000000E+01 0.  1.
         13    1    4    4    0    0 -0.45640224198E+02  0.11994261905E+03  0.89156486442E+02  0.15626305067E+03  0.00000000000E+00 0. -1.
        -14    1    4    4    0    0 -0.39533025531E+02  0.17242553847E+02  0.74914318957E+02  0.86442587626E+02  0.00000000000E+00 0.  1.
</event>
<event>
12    1  0.1032880E+000  0.1755781E+03  0.7818608E-02  0.1172428E+00
         21   -1    0    0  501  502  0.00000000000E+00  0.00000000000E+00  0.14014257881E+03  0.14014257881E+03  0.00000000000E+00 0.  1.
         21   -1    0    0  502  503 -0.00000000000E+00 -0.00000000000E+00 -0.21992665043E+03  0.21992665043E+03  0.00000000000E+00 0.  1.
         -6    2    1    2    0  503 -0.39347730748E+02  0.71888752979E+01 -0.26043761411E+02  0.17749910429E+03  0.17096119640E+03 0.  0.
        -24    2    3    3    0    0  0.29119312293E+02 -0.20900185546E+02 -0.48248246685E+02  0.10009199552E+03  0.80036005368E+02 0.  0.
          6    2    1    2  501    0  0.39347730748E+02 -0.71888752979E+01 -0.53740310201E+02  0.18257012495E+03  0.16983493675E+03 0.  0.
         24    2    5    5    0    0 -0.31819264593E+02 -0.15198770523E+02  0.83237048582E+01  0.87686345446E+02  0.79850753850E+02 0.  0.
          5    1    5    5  501    0  0.71166995341E+02  0.80098952248E+01 -0.62064015060E+02  0.94883779503E+02  0.47000000000E+01 0. -1.
        -13    1    6    6    0    0 -0.17092171236E+02 -0.47389982869E+02 -0.31415349597E+01  0.50475955026E+02  0.00000000000E+00 0.  1.
         14    1    6    6    0    0 -0.14727093357E+02  0.32191212347E+02  0.11465239818E+02  0.37210390419E+02  0.00000000000E+00 0. -1.
         -5    1    3    3    0  503 -0.68467043041E+02  0.28089060844E+02  0.22204485273E+02  0.77407108770E+02  0.47000000000E+01 0.  1.
         13    1    4    4    0    0  0.15675369784E+02  0.32376779710E+01 -0.65561027981E+02  0.67486651765E+02  0.00000000000E+00 0. -1.
        -14    1    4    4    0    0  0.13443942509E+02 -0.24137863517E+02  0.17312781296E+02  0.32605343758E+02  0.00000000000E+00 0.  1.
</event>
<event>
12    1  0.1032880E+000  0.2464895E+03  0.7818608E-02  0.1115674E+00
         21   -1    0    0  503  502  0.00000000000E+00  0.00000000000E+00  0.56548586846E+02  0.56548586846E+02  0.00000000000E+00 0. -1.
         21   -1    0    0  501  503 -0.00000000000E+00 -0.00000000000E+00 -0.12120736588E+04  0.12120736588E+04  0.00000000000E+00 0. -1.
          6    2    1    2  501    0  0.16750042190E+03  0.53049959252E+02 -0.36045183348E+03  0.43621697904E+03  0.17172372881E+03 0.  0.
         24    2    3    3    0    0  0.16665280096E+03  0.91523171573E+02 -0.28196728881E+03  0.34867944264E+03  0.76955537540E+02 0.  0.
         -6    2    1    2    0  502 -0.16750042190E+03 -0.53049959252E+02 -0.79507323852E+03  0.83240526665E+03  0.17287678797E+03 0.  0.
        -24    2    5    5    0    0 -0.17485931864E+02 -0.74160834553E+01 -0.21697813692E+03  0.23340373548E+03  0.83887041489E+02 0.  0.
          5    1    3    3  501    0  0.84762093255E+00 -0.38473212321E+02 -0.78484544667E+02  0.87537536401E+02  0.47000000000E+01 0. -1.
        -13    1    4    4    0    0  0.13835961152E+03  0.38896488812E+02 -0.17816031387E+03  0.22890481948E+03  0.00000000000E+00 0.  1.
         14    1    4    4    0    0  0.28293189439E+02  0.52626682761E+02 -0.10380697495E+03  0.11977462317E+03  0.00000000000E+00 0. -1.
         -5    1    5    5    0  502 -0.15001449003E+03 -0.45633875797E+02 -0.57809510160E+03  0.59900153117E+03  0.47000000000E+01 0.  1.
         13    1    6    6    0    0  0.89383872189E+01 -0.25592572756E+02 -0.18872451517E+03  0.19066152515E+03  0.00000000000E+00 0. -1.
        -14    1    6    6    0    0 -0.26424319082E+02  0.18176489300E+02 -0.28253621748E+02  0.42742210333E+02  0.00000000000E+00 0.  1.
</event>
<event>
12    1  0.1032880E+000  0.2734531E+03  0.7818608E-02  0.1099466E+00
         21   -1    0    0  503  502  0.00000000000E+00  0.00000000000E+00  0.40298478955E+03  0.40298478955E+03  0.00000000000E+00 0.  1.
         21   -1    0    0  501  503 -0.00000000000E+00 -0.00000000000E+00 -0.28535206858E+03  0.28535206858E+03  0.00000000000E+00 0. -1.
          6    2    1    2  501    0  0.19751435432E+01  0.21242293543E+03  0.26299272720E+03  0.37864972565E+03  0.17053748997E+03 0.  0.
         24    2    3    3    0    0 -0.43489944685E+02  0.61009629924E+02  0.74141351024E+02  0.13231662675E+03  0.79982495270E+02 0.  0.
         -6    2    1    2    0  502 -0.19751435432E+01 -0.21242293543E+03 -0.14536000623E+03  0.30968713248E+03  0.17218938388E+03 0.  0.
        -24    2    5    5    0    0 -0.48874393428E+02 -0.17126294467E+03 -0.15158847357E+03  0.24680177420E+03  0.78818448866E+02 0.  0.
          5    1    3    3  501    0  0.45465088228E+02  0.15141330551E+03  0.18885137617E+03  0.24633309890E+03  0.47000000000E+01 0. -1.
        -11    1    4    4    0    0 -0.39746948713E+02  0.26442048543E+02  0.83611618717E+02  0.96280344035E+02  0.00000000000E+00 0.  1.
         12    1    4    4    0    0 -0.37429959721E+01  0.34567581381E+02 -0.94702676931E+01  0.36036282710E+02  0.00000000000E+00 0. -1.
         -5    1    5    5    0  502  0.46899249885E+02 -0.41159990765E+02  0.62284673404E+01  0.62885358272E+02  0.47000000000E+01 0.  1.
         11    1    6    6    0    0  0.11578815749E+02 -0.78988119819E+02 -0.37837731885E+02  0.88345265866E+02  0.00000000000E+00 0. -1.
        -12    1    6    6    0    0 -0.60453209178E+02 -0.92274824848E+02 -0.11375074169E+03  0.15845650834E+03  0.00000000000E+00 0.  1.
</event>
<event>
12    1  0.1032880E+000  0.2107154E+03  0.7818608E-02  0.1141332E+00
         21   -1    0    0  503  502  0.00000000000E+00  0.00000000000E+00  0.39881897946E+03  0.39881897946E+03  0.00000000000E+00 0.  1.
         21   -1    0    0  501  503 -0.00000000000E+00 -0.00000000000E+00 -0.13523747198E+03  0.13523747198E+03  0.00000000000E+00 0.  1.
          6    2    1    2  501    0  0.72041208302E+02 -0.99434610807E+02  0.24654350822E+03  0.32432186513E+03  0.17124191437E+03 0.  0.
         24    2    3    3    0    0  0.34295786920E+02 -0.13247934469E+03  0.18786875124E+03  0.24698178252E+03  0.83536551478E+02 0.  0.
         -6    2    1    2    0  502 -0.72041208302E+02  0.99434610807E+02  0.17037999261E+02  0.20973458630E+03  0.16917779332E+03 0.  0.
        -24    2    5    5    0    0 -0.88450779830E+02  0.12550453351E+03  0.30803702795E+02  0.17566848143E+03  0.79596600923E+02 0.  0.
          5    1    3    3  501    0  0.37745421382E+02  0.33044733880E+02  0.58674756981E+02  0.77340082617E+02  0.47000000000E+01 0. -1.
        -11    1    4    4    0    0  0.75985820032E+01 -0.16074170966E+02 -0.64361514812E+01  0.18908766924E+02  0.00000000000E+00 0.  1.
         12    1    4    4    0    0  0.26697204917E+02 -0.11640517372E+03  0.19430490272E+03  0.22807301559E+03  0.00000000000E+00 0. -1.
         -5    1    5    5    0  502  0.16409571528E+02 -0.26069922703E+02 -0.13765703535E+02  0.34066104874E+02  0.47000000000E+01 0.  1.
         11    1    6    6    0    0 -0.26195372958E+02  0.93095082298E+02 -0.50750144590E+01  0.96843418384E+02  0.00000000000E+00 0. -1.
        -12    1    6    6    0    0 -0.62255406872E+02  0.32409451211E+02  0.35878717254E+02  0.78825063047E+02  0.00000000000E+00 0.  1.
</event>
<event>
12    1  0.1032880E+000  0.3010059E+03  0.7818608E-02  0.1085086E+00
         21   -1    0    0  503  502  0.00000000000E+00  0.00000000000E+00  0.25051083391E+03  0.25051083391E+03  0.00000000000E+00 0. -1.
         21   -1    0    0  501  503 -0.00000000000E+00 -0.00000000000E+00 -0.36271096211E+03  0.36271096211E+03  0.00000000000E+00 0. -1.
          6    2    1    2  501    0 -0.18304910091E+03 -0.16972723880E+03 -0.89963058868E+02  0.31416225083E+03  0.16819708366E+03 0.  0.
         24    2    3    3    0    0 -0.15180646211E+03 -0.16736888233E+03 -0.23713172233E+02  0.24072655240E+03  0.79557612999E+02 0.  0.
         -6    2    1    2    0  502  0.18304910091E+03  0.16972723880E+03 -0.22237069341E+02  0.29905954519E+03  0.16318031553E+03 0.  0.
        -24    2    5    5    0    0  0.87088186776E+02  0.67073792421E+02 -0.66042243661E+02  0.15179376371E+03  0.81218980835E+02 0.  0.
          5    1    3    3  501    0 -0.31242638805E+02 -0.23583564775E+01 -0.66249886635E+02  0.73435698430E+02  0.47000000000E+01 0. -1.
        -11    1    4    4    0    0 -0.99377351843E+02 -0.71110793256E+02 -0.42778477241E+02  0.12947046417E+03  0.00000000000E+00 0.  1.
         12    1    4    4    0    0 -0.52429110267E+02 -0.96258089069E+02  0.19065305008E+02  0.11125608824E+03  0.00000000000E+00 0. -1.
         -5    1    5    5    0  502  0.95960914139E+02  0.10265344638E+03  0.43805174320E+02  0.14726578148E+03  0.47000000000E+01 0.  1.
         13    1    6    6    0    0  0.30763293592E+02  0.66325699285E+02 -0.61037364111E+02  0.95241999327E+02  0.00000000000E+00 0. -1.
        -14    1    6    6    0    0  0.56324893183E+02  0.74809313579E+00 -0.50048795505E+01  0.56551764382E+02  0.00000000000E+00 0.  1.
</event>
<event>
12    1  0.1032880E+000  0.2129567E+03  0.7818608E-02  0.1139907E+00
         21   -1    0    0  501  502  0.00000000000E+00  0.00000000000E+00  0.97140223440E+02  0.97140223440E+02  0.00000000000E+00 0.  1.
         21   -1    0    0  502  503 -0.00000000000E+00 -0.00000000000E+00 -0.47425633072E+03  0.47425633072E+03  0.00000000000E+00 0.  1.
         -6    2    1    2    0  503 -0.11651485693E+03  0.12254142647E+02 -0.24043122219E+03  0.32118179189E+03  0.17783333473E+03 0.  0.
        -24    2    3    3    0    0 -0.14493932328E+03 -0.21236020140E+02 -0.17002496571E+03  0.23806336889E+03  0.79418528431E+02 0.  0.
          6    2    1    2  501    0  0.11651485693E+03 -0.12254142647E+02 -0.13668488509E+03  0.25021476227E+03  0.17377800076E+03 0.  0.
         24    2    5    5    0    0  0.11198193244E+03  0.30625104081E+02 -0.43503587919E+02  0.14743333716E+03  0.79788323404E+02 0.  0.
          5    1    5    5  501    0  0.45329244846E+01 -0.42879246728E+02 -0.93181297173E+02  0.10278142511E+03  0.47000000000E+01 0. -1.
        -11    1    6    6    0    0  0.17916165851E+02 -0.13718307115E+02  0.15960425183E+02  0.27639032561E+02  0.00000000000E+00 0.  1.
         12    1    6    6    0    0  0.94065766591E+02  0.44343411196E+02 -0.59464013102E+02  0.11979430460E+03  0.00000000000E+00 0. -1.
         -5    1    3    3    0  503  0.28424466353E+02  0.33490162787E+02 -0.70406256485E+02  0.83118423007E+02  0.47000000000E+01 0.  1.
         13    1    4    4    0    0 -0.46789861758E+02  0.26601209512E+02 -0.34103520112E+02  0.63717859309E+02  0.00000000000E+00 0. -1.
        -14    1    4    4    0    0 -0.98149461521E+02 -0.47837229652E+02 -0.13592144559E+03  0.17434550958E+03  0.00000000000E+00 0.  1.
</event>
<event>
12    1  0.1032880E+000  0.2174216E+03  0.7818608E-02  0.1137100E+00
         21   -1    0    0  503  502  0.00000000000E+00  0.00000000000E+00  0.63801375040E+02  0.63801375040E+02  0.00000000000E+00 0. -1.
         21   -1    0    0  501  503 -0.00000000000E+00 -0.00000000000E+00 -0.79936296345E+03  0.79936296345E+03  0.00000000000E+00 0. -1.
          6    2    1    2  501    0  0.14203991512E+02  0.12077273894E+03 -0.23561075186E+03  0.32060034920E+03  0.18023415234E+03 0.  0.
         24    2    3    3    0    0  0.48202426111E+02  0.14483098738E+03 -0.21114888321E+03  0.27207029778E+03  0.78351179063E+02 0.  0.
         -6    2    1    2    0  502 -0.14203991512E+02 -0.12077273894E+03 -0.49995083655E+03  0.54256398929E+03  0.17215410440E+03 0.  0.
        -24    2    5    5    0    0 -0.72707627405E+02 -0.48206133215E+02 -0.27288290239E+03  0.29706343043E+03  0.78558086265E+02 0.  0.
          5    1    3    3  501    0 -0.33998434599E+02 -0.24058248445E+02 -0.24461868649E+02  0.48530051424E+02  0.47000000000E+01 0. -1.
        -13    1    4    4    0    0 -0.17201799519E+02  0.15079571248E+02 -0.50604399811E+02  0.55534679759E+02  0.00000000000E+00 0.  1.
         14    1    4    4    0    0  0.65404225629E+02  0.12975141614E+03 -0.16054448340E+03  0.21653561802E+03  0.00000000000E+00 0. -1.
         -5    1    5    5    0  502  0.58503635893E+02 -0.72566605724E+02 -0.22706793415E+03  0.24550055886E+03  0.47000000000E+01 0.  1.
         11    1    6    6    0    0 -0.51590946815E+02  0.11168198102E+02 -0.14899253953E+03  0.15806685698E+03  0.00000000000E+00 0. -1.
        -12    1    6    6    0    0 -0.21116680590E+02 -0.59374331317E+02 -0.12389036287E+03  0.13899657345E+03  0.00000000000E+00 0.  1.
</event>
<event>
12    1  0.1032880E+000  0.1762105E+03  0.7818608E-02  0.1171976E+00
         21   -1    0    0  503  502  0.00000000000E+00  0.00000000000E+00  0.25340889536E+04  0.25340889536E+04  0.00000000000E+00 0.  1.
         21   -1    0    0  501  503 -0.00000000000E+00 -0.00000000000E+00 -0.13474104494E+02  0.13474104494E+02  0.00000000000E+00 0.  1.
          6    2    1    2  501    0  0.13505165289E+02  0.24539532578E+02  0.16689232520E+04  0.16781999118E+04  0.17396995351E+03 0.  0.
         24    2    3    3    0    0  0.44675405459E+02 -0.34241765752E+01  0.46555719872E+03  0.47409630284E+03  0.77564052564E+02 0.  0.
         -6    2    1    2    0  502 -0.13505165289E+02 -0.24539532578E+02  0.85169159710E+03  0.86936314630E+03  0.17213112855E+03 0.  0.
        -24    2    5    5    0    0 -0.60554946206E+02  0.27767222220E+02  0.49676162417E+03  0.50749707416E+03  0.79644515747E+02 0.  0.
          5    1    3    3  501    0 -0.31170240170E+02  0.27963709153E+02  0.12033660533E+04  0.12041036089E+04  0.47000000000E+01 0. -1.
        -13    1    4    4    0    0  0.24103404251E+02 -0.75332940516E+01  0.44131671588E+03  0.44203865027E+03  0.00000000000E+00 0.  1.
         14    1    4    4    0    0  0.20572001208E+02  0.41091174764E+01  0.24240482834E+02  0.32057652568E+02  0.00000000000E+00 0. -1.
         -5    1    5    5    0  502  0.47049780917E+02 -0.52306754798E+02  0.35492997293E+03  0.36186607214E+03  0.47000000000E+01 0.  1.
         13    1    6    6    0    0 -0.60454261140E+02 -0.98987479681E+01  0.22708347665E+03  0.23520120805E+03  0.00000000000E+00 0. -1.
        -14    1    6    6    0    0 -0.10068506641E+00  0.37665970188E+02  0.26967814752E+03  0.27229586611E+03  0.00000000000E+00 0.  1.
</event>
<event>
12    1  0.1032880E+000  0.1868127E+03  0.7818608E-02  0.1162179E+00
         21   -1    0    0  501  502  0.00000000000E+00  0.00000000000E+00  0.31073513104E+03  0.31073513104E+03  0.00000000000E+00 0. -1.
         21   -1    0    0  502  503 -0.00000000000E+00 -0.00000000000E+00 -0.18783492439E+03  0.18783492439E+03  0.00000000000E+00 0. -1.
         -6    2    1    2    0  503  0.58857418660E+02 -0.38645589568E+02 -0.98443776489E+02  0.21116383360E+03  0.17303557486E+03 0.  0.
        -24    2    3    3    0    0  0.98476966622E+02 -0.34411813836E+02 -0.34544065435E+02  0.13571254793E+03  0.79641178551E+02 0.  0.
          6    2    1    2  501    0 -0.58857418660E+02  0.38645589568E+02  0.22134398313E+03  0.28740622183E+03  0.16926754016E+03 0.  0.
         24    2    5    5    0    0 -0.73194760608E+02 -0.66470243650E+01  0.70945542846E+02  0.12961280912E+03  0.79778156948E+02 0.  0.
          5    1    5    5  501    0  0.14337341948E+02  0.45292613933E+02  0.15039844029E+03  0.15779341270E+03  0.47000000000E+01 0. -1.
        -11    1    6    6    0    0 -0.43530533495E+01  0.12465352466E+02  0.54796644250E+02  0.56364938628E+02  0.00000000000E+00 0.  1.
         12    1    6    6    0    0 -0.68841707258E+02 -0.19112376831E+02  0.16148898596E+02  0.73247870496E+02  0.00000000000E+00 0. -1.
         -5    1    3    3    0  503 -0.39619547963E+02 -0.42337757315E+01 -0.63899711054E+02  0.75451285678E+02  0.47000000000E+01 0.  1.
         13    1    4    4    0    0  0.61659805824E+01 -0.24336057097E+02  0.16214441033E+02  0.29885968106E+02  0.00000000000E+00 0. -1.
        -14    1    4    4    0    0  0.92310986040E+02 -0.10075756739E+02 -0.50758506468E+02  0.10582657982E+03  0.00000000000E+00 0.  1.
</event>
<event>
12    1  0.1032880E+000  0.1977400E+03  0.7818608E-02  0.1152355E+00
         21   -1    0    0  501  502  0.00000000000E+00  0.00000000000E+00  0.81718197017E+02  0.81718197017E+02  0.00000000000E+00 0. -1.
         21   -1    0    0  502  503 -0.00000000000E+00 -0.00000000000E+00 -0.72618804503E+03  0.72618804503E+03  0.00000000000E+00 0. -1.
         -6    2    1    2    0  503  0.91694277988E+02  0.16683893594E+02 -0.56010297818E+03  0.59292046161E+03  0.17074289065E+03 0.  0.
        -24    2    3    3    0    0  0.28419105197E+02 -0.54491208122E+02 -0.30035736145E+03  0.31622655491E+03  0.77509690673E+02 0.  0.
          6    2    1    2  501    0 -0.91694277988E+02 -0.16683893594E+02 -0.84366869831E+02  0.21498578043E+03  0.17439875040E+03 0.  0.
         24    2    5    5    0    0 -0.35149830911E+02 -0.73265066858E+02 -0.22048345587E+02  0.11347522863E+03  0.76073762463E+02 0.  0.
          5    1    5    5  501    0 -0.56544447077E+02  0.56581173264E+02 -0.62318524245E+02  0.10151055180E+03  0.47000000000E+01 0. -1.
        -11    1    6    6    0    0 -0.13859002291E+02  0.81852821393E+01 -0.24428616649E+02  0.29254539812E+02  0.00000000000E+00 0.  1.
         12    1    6    6    0    0 -0.21290828620E+02 -0.81450348997E+02  0.23802710628E+01  0.84220688820E+02  0.00000000000E+00 0. -1.
         -5    1    3    3    0  503  0.63275172791E+02  0.71175101716E+02 -0.25974561673E+03  0.27669390670E+03  0.47000000000E+01 0.  1.
         13    1    4    4    0    0  0.42946780387E+02 -0.51620191988E+02 -0.29114031637E+03  0.29878379136E+03  0.00000000000E+00 0. -1.
        -14    1    4    4    0    0 -0.14527675190E+02 -0.28710161342E+01 -0.92170450872E+01  0.17442763549E+02  0.00000000000E+00 0.  1.
</event>
<event>
12    1  0.1032880E+000  0.4745003E+03  0.7818608E-02  0.1020788E+00
         21   -1    0    0  503  502  0.00000000000E+00  0.00000000000E+00  0.42975517574E+03  0.42975517574E+03  0.00000000000E+00 0.  1.
         21   -1    0    0  501  503 -0.00000000000E+00 -0.00000000000E+00 -0.68842985881E+03  0.68842985881E+03  0.00000000000E+00 0.  1.
          6    2    1    2  501    0 -0.36012498339E+03  0.25463505801E+03  0.14549704811E+03  0.49630631244E+03  0.17499013783E+03 0.  0.
         24    2    3    3    0    0 -0.83219523323E+02  0.96044584072E+02  0.13393589678E+02  0.15090656437E+03  0.80270491062E+02 0.  0.
         -6    2    1    2    0  502  0.36012498339E+03 -0.25463505801E+03 -0.40417173118E+03  0.62187872210E+03  0.16985093550E+03 0.  0.
        -24    2    5    5    0    0  0.34213399197E+03 -0.21238146056E+03 -0.30146956791E+03  0.50927824870E+03  0.79491389292E+02 0.  0.
          5    1    3    3  501    0 -0.27690546006E+03  0.15859047394E+03  0.13210345843E+03  0.34539974807E+03  0.47000000000E+01 0. -1.
        -11    1    4    4    0    0 -0.25071057448E+02  0.63340356956E+02  0.40097041773E+02  0.79046388278E+02  0.00000000000E+00 0.  1.
         12    1    4    4    0    0 -0.58148465874E+02  0.32704227115E+02 -0.26703452095E+02  0.71860176096E+02  0.00000000000E+00 0. -1.
         -5    1    5    5    0  502  0.17990991414E+02 -0.42253597454E+02 -0.10270216327E+03  0.11260047340E+03  0.47000000000E+01 0.  1.
         11    1    6    6    0    0  0.30588743852E+03 -0.21493685385E+03 -0.26928775198E+03  0.46073948122E+03  0.00000000000E+00 0. -1.
        -12    1    6    6    0    0  0.36246553454E+02  0.25553932920E+01 -0.32181815928E+02  0.48538767481E+02  0.00000000000E+00 0.  1.
</event>
<event>
12    1  0.1032880E+000  0.2184042E+03  0.7818608E-02  0.1135552E+00
         21   -1    0    0  503  502  0.00000000000E+00  0.00000000000E+00  0.58033838504E+02  0.58033838504E+02  0.00000000000E+00 0. -1.
         21   -1    0    0  501  503 -0.00000000000E+00 -0.00000000000E+00 -0.86132343203E+03  0.86132343203E+03  0.00000000000E+00 0. -1.
          6    2    1    2  501    0 -0.83971183165E+02  0.10419519109E+03 -0.51321978114E+03  0.55775884562E+03  0.17260529734E+03 0.  0.
         24    2    3    3    0    0 -0.91768127130E+02  0.13824379115E+02 -0.24020854593E+03  0.27003519254E+03  0.81279499618E+02 0.  0.
         -6    2    1    2    0  502  0.83971183165E+02 -0.10419519109E+03 -0.29006981239E+03  0.36159842491E+03  0.16942587580E+03 0.  0.
        -24    2    5    5    0    0  0.37933288601E+01 -0.36099203920E+02 -0.54061239678E+02  0.10316528427E+03  0.80018225269E+02 0.  0.
          5    1    3    3  501    0  0.77969439651E+01  0.90370811978E+02 -0.27301123521E+03  0.28772365308E+03  0.47000000000E+01 0. -1.
        -13    1    4    4    0    0 -0.47979392501E+02  0.16517191651E+02 -0.21174255861E+03  0.21773780299E+03  0.00000000000E+00 0.  1.
         14    1    4    4    0    0 -0.43788734629E+02 -0.26928125366E+01 -0.28465987323E+02  0.52297389553E+02  0.00000000000E+00 0. -1.
         -5    1    5    5    0  502  0.80177854305E+02 -0.68095987172E+02 -0.23600857271E+03  0.25843314064E+03  0.47000000000E+01 0.  1.
         13    1    6    6    0    0  0.35265812685E+01 -0.26231420133E+02 -0.75261329078E+02  0.79779645476E+02  0.00000000000E+00 0. -1.
        -14    1    6    6    0    0  0.26674759157E+00 -0.98677837866E+01  0.21200089401E+02  0.23385638792E+02  0.00000000000E+00 0.  1.
</event>
<event>
12    1  0.1032880E+000  0.2039075E+03  0.7818608E-02  0.1147528E+00
         21   -1    0    0  501  502  0.00000000000E+00  0.00000000000E+00  0.93083346419E+03  0.93083346419E+03  0.00000000000E+00 0. -1.
         21   -1    0    0  502  503 -0.00000000000E+00 -0.00000000000E+00 -0.49372391212E+02  0.49372391212E+02  0.00000000000E+00 0. -1.
         -6    2    1    2    0  503  0.86442628554E+02  0.56710929867E+02  0.27766529363E+03  0.34449424384E+03  0.17575497476E+03 0.  0.
        -24    2    3    3    0    0 -0.14755108350E+02  0.42931556829E+02  0.78436320597E+02  0.12056316790E+03  0.79513453391E+02 0.  0.
          6    2    1    2  501    0 -0.86442628554E+02 -0.56710929867E+02  0.60379577934E+03  0.63571161156E+03  0.16991601550E+03 0.  0.
         24    2    5    5    0    0  0.12362617763E+01 -0.10708335412E+02  0.40770770072E+03  0.41599258397E+03  0.81902771045E+02 0.  0.
          5    1    5    5  501    0 -0.87678890330E+02 -0.46002594455E+02  0.19608807863E+03  0.21971902759E+03  0.47000000000E+01 0. -1.
        -13    1    6    6    0    0 -0.38730226883E+02  0.19964826948E+01  0.15203774855E+03  0.15690600180E+03  0.00000000000E+00 0.  1.
         14    1    6    6    0    0  0.39966488659E+02 -0.12704818107E+02  0.25566995217E+03  0.25908658217E+03  0.00000000000E+00 0. -1.
         -5    1    3    3    0  503  0.10119773690E+03  0.13779373038E+02  0.19922897303E+03  0.22393107594E+03  0.47000000000E+01 0.  1.
         13    1    4    4    0    0  0.79292596218E+01 -0.21276532794E+02  0.13220396513E+02  0.26274377060E+02  0.00000000000E+00 0. -1.
        -14    1    4    4    0    0 -0.22684367972E+02  0.64208089623E+02  0.65215924084E+02  0.94288790837E+02  0.00000000000E+00 0.  1.
</event>
<event>
12    1  0.1032880E+000  0.2548194E+03  0.7818608E-02  0.1110566E+00
         21   -1    0    0  501  502  0.00000000000E+00  0.00000000000E+00  0.35720914755E+03  0.35720914755E+03  0.00000000000E+00 0.  1.
         21   -1    0    0  502  503 -0.00000000000E+00 -0.00000000000E+00 -0.22046871354E+03  0.22046871354E+03  0.00000000000E+00 0.  1.
         -6    2    1    2    0  503 -0.13412399292E+03 -0.13148085388E+03  0.19110111615E+03  0.31712462576E+03  0.16962290900E+03 0.  0.
        -24    2    3    3    0    0 -0.64972046945E+02 -0.15878384563E+02  0.13845927062E+03  0.17242087168E+03  0.78003188324E+02 0.  0.
          6    2    1    2  501    0  0.13412399292E+03  0.13148085388E+03 -0.54360682131E+02  0.26055323533E+03  0.17221046503E+03 0.  0.
         24    2    5    5    0    0  0.68368323391E+02  0.10896446959E+02  0.22309689305E+02  0.10318474063E+03  0.73187487065E+02 0.  0.
          5    1    5    5  501    0  0.65755669529E+02  0.12058440693E+03 -0.76670371435E+02  0.15736849470E+03  0.47000000000E+01 0. -1.
        -11    1    6    6    0    0  0.18677394714E+02  0.38614411373E+02  0.26152924767E+01  0.42973917598E+02  0.00000000000E+00 0.  1.
         12    1    6    6    0    0  0.49690928676E+02 -0.27717964414E+02  0.19694396828E+02  0.60210823034E+02  0.00000000000E+00 0. -1.
         -5    1    3    3    0  503 -0.69151945975E+02 -0.11560246932E+03  0.52641845525E+02  0.14470375408E+03  0.47000000000E+01 0.  1.
         11    1    4    4    0    0 -0.66684270137E+02 -0.37584990943E+02  0.83352353131E+02  0.11316818546E+03  0.00000000000E+00 0. -1.
        -12    1    4    4    0    0  0.17122231916E+01  0.21706606380E+02  0.55106917489E+02  0.59252686217E+02  0.00000000000E+00 0.  1.
</event>
<event>
12    1  0.1032880E+000  0.1840912E+03  0.7818608E-02  0.1164030E+00
         21   -1    0    0  501  502  0.00000000000E+00  0.00000000000E+00  0.20059583565E+03  0.20059583565E+03  0.00000000000E+00 0.  1.
         21   -1    0    0  502  503 -0.00000000000E+00 -0.00000000000E+00 -0.20055732733E+03  0.20055732733E+03  0.00000000000E+00 0.  1.
         -6    2    1    2    0  503  0.60133559755E+02 -0.27909073098E+02  0.80280095802E+02  0.20083438361E+03  0.17173990360E+03 0.  0.
        -24    2    3    3    0    0  0.49858200952E+02  0.32330397441E+01  0.11553235843E+03  0.15245849901E+03  0.86020784277E+02 0.  0.
          6    2    1    2  501    0 -0.60133559755E+02  0.27909073098E+02 -0.80241587489E+02  0.20031877937E+03  0.17115472426E+03 0.  0.
         24    2    5    5    0    0 -0.86214503196E+02  0.51457250533E+02 -0.97163949448E+02  0.16103534004E+03  0.80067212247E+02 0.  0.
          5    1    5    5  501    0  0.26080943441E+02 -0.23548177435E+02  0.16922361959E+02  0.39283439329E+02  0.47000000000E+01 0. -1.
        -13    1    6    6    0    0  0.86964133421E+01  0.28337259078E+02 -0.31942936950E+02  0.43577277084E+02  0.00000000000E+00 0.  1.
         14    1    6    6    0    0 -0.94910916538E+02  0.23119991454E+02 -0.65221012498E+02  0.11745806296E+03  0.00000000000E+00 0. -1.
         -5    1    3    3    0  503  0.10275358803E+02 -0.31142112842E+02 -0.35252262625E+02  0.48375884602E+02  0.47000000000E+01 0.  1.
         13    1    4    4    0    0  0.55801276302E+02  0.27401674806E+02  0.11091004409E+03  0.12714429637E+03  0.00000000000E+00 0. -1.
        -14    1    4    4    0    0 -0.59430753497E+01 -0.24168635062E+02  0.46223143369E+01  0.25314202638E+02  0.00000000000E+00 0.  1.
</event>
<event>
12    1  0.1032880E+000  0.2455380E+03  0.7818608E-02  0.1116669E+00
         21   -1    0    0  503  502  0.00000000000E+00  0.00000000000E+00  0.20414435583E+03  0.20414435583E+03  0.00000000000E+00 0.  1.
         21   -1    0    0  501  503 -0.00000000000E+00 -0.00000000000E+00 -0.29945860185E+03  0.29945860185E+03  0.00000000000E+00 0.  1.
          6    2    1    2  501    0  0.40038811947E+02  0.16913546244E+03 -0.88857067466E+02  0.26112162536E+03  0.17343302359E+03 0.  0.
         24    2    3    3    0    0  0.21469743742E+02  0.37649005315E+02  0.15641684843E+02  0.92078500872E+02  0.79720703211E+02 0.  0.
         -6    2    1    2    0  502 -0.40038811947E+02 -0.16913546244E+03 -0.64571785523E+01  0.24248133233E+03  0.16895440288E+03 0.  0.
        -24    2    5    5    0    0 -0.44477311757E+02 -0.13619824235E+03  0.54729876562E+02  0.17269231842E+03  0.79366775001E+02 0.  0.
          5    1    3    3  501    0  0.18569068205E+02  0.13148645713E+03 -0.10449875231E+03  0.16904312449E+03  0.47000000000E+01 0. -1.
        -11    1    4    4    0    0  0.43756981328E+01 -0.24848058433E+02  0.96368397338E+01  0.27008173247E+02  0.00000000000E+00 0.  1.
         12    1    4    4    0    0  0.17094045609E+02  0.62497063749E+02  0.60048451088E+01  0.65070327625E+02  0.00000000000E+00 0. -1.
         -5    1    5    5    0  502  0.44384998098E+01 -0.32937220098E+02 -0.61187055115E+02  0.69789013906E+02  0.47000000000E+01 0.  1.
         11    1    6    6    0    0 -0.29429175953E+02 -0.14386478616E+03  0.47672654391E+02  0.15438858465E+03  0.00000000000E+00 0. -1.
        -12    1    6    6    0    0 -0.15048135804E+02  0.76665438124E+01  0.70572221709E+01  0.18303733771E+02  0.00000000000E+00 0.  1.
</event>
<event>
12    1  0.1032880E+000  0.2549573E+03  0.7818608E-02  0.1110267E+00
         21   -1    0    0  501  502  0.00000000000E+00  0.00000000000E+00  0.46010220057E+03  0.46010220057E+03  0.00000000000E+00 0. -1.
         21   -1    0    0  502  503 -0.00000000000E+00 -0.00000000000E+00 -0.14146129470E+03  0.14146129470E+03  0.00000000000E+00 0. -1.
         -6    2    1    2    0  503 -0.12234652780E+03  0.14247229233E+03  0.17501368319E+03  0.30924589854E+03  0.17244190186E+03 0.  0.
        -24    2    3    3    0    0 -0.59072325052E+02  0.18344536173E+02  0.65233493414E+02  0.13180547291E+03  0.96390935424E+02 0.  0.
          6    2    1    2  501    0  0.12234652780E+03 -0.14247229233E+03  0.14362722269E+03  0.29231759673E+03  0.17191210346E+03 0.  0.
         24    2    5    5    0    0  0.10723225855E+03 -0.17110283580E+03  0.14287432443E+03  0.25959442436E+03  0.78748046844E+02 0.  0.
          5    1    5    5  501    0  0.15114269247E+02  0.28630543473E+02  0.75289825423E+00  0.32723172374E+02  0.47000000000E+01 0. -1.
        -13    1    6    6    0    0  0.11513377270E+02  0.65400397069E+00 -0.59676170382E+01  0.12984530429E+02  0.00000000000E+00 0.  1.
         14    1    6    6    0    0  0.95718881282E+02 -0.17175683977E+03  0.14884194147E+03  0.24660989393E+03  0.00000000000E+00 0. -1.
         -5    1    3    3    0  503 -0.63274202746E+02  0.12412775615E+03  0.10978018977E+03  0.17744042563E+03  0.47000000000E+01 0.  1.
         11    1    4    4    0    0 -0.43360491028E+01 -0.21467479222E+02 -0.15218552587E+02  0.26669426855E+02  0.00000000000E+00 0. -1.
        -12    1    4    4    0    0 -0.54736275950E+02  0.39812015395E+02  0.80452046001E+02  0.10513604606E+03  0.00000000000E+00 0.  1.
</event>
<event>
12    1  0.1032880E+000  0.1977130E+03  0.7818608E-02  0.1151735E+00
         21   -1    0    0  501  502  0.00000000000E+00  0.00000000000E+00  0.65574439438E+02  0.65574439438E+02  0.00000000000E+00 0.  1.
         21   -1    0    0  502  503 -0.00000000000E+00 -0.00000000000E+00 -0.12184356157E+04  0.12184356157E+04  0.00000000000E+00 0.  1.
         -6    2    1    2    0  503 -0.11664784785E+02  0.96136664244E+02 -0.10356918454E+04  0.10543946213E+04  0.17237196276E+03 0.  0.
        -24    2    3    3    0    0 -0.54744774138E+02  0.16949590340E+02 -0.69614734354E+03  0.70305570110E+03  0.79886895208E+02 0.  0.
          6    2    1    2  501    0  0.11664784785E+02 -0.96136664244E+02 -0.11716933095E+03  0.22961543384E+03  0.17209378237E+03 0.  0.
         24    2    5    5    0    0  0.52484410645E+02 -0.71312427331E+02 -0.19403009633E+02  0.12069882273E+03  0.79697260761E+02 0.  0.
          5    1    5    5  501    0 -0.40819625860E+02 -0.24824236914E+02 -0.97766321314E+02  0.10891661112E+03  0.47000000000E+01 0. -1.
        -13    1    6    6    0    0 -0.19587778052E+02 -0.20471742868E+02 -0.15765679174E+02  0.32424218493E+02  0.00000000000E+00 0.  1.
         14    1    6    6    0    0  0.72072188697E+02 -0.50840684462E+02 -0.36373304596E+01  0.88274604236E+02  0.00000000000E+00 0. -1.
         -5    1    3    3    0  503  0.43079989353E+02  0.79187073904E+02 -0.33954450182E+03  0.35133892024E+03  0.47000000000E+01 0.  1.
         13    1    4    4    0    0 -0.10675410816E+02  0.79536220089E+01 -0.13611154611E+02  0.19039118388E+02  0.00000000000E+00 0. -1.
        -14    1    4    4    0    0 -0.44069363322E+02  0.89959683309E+01 -0.68253618893E+03  0.68401658271E+03  0.00000000000E+00 0.  1.
</event>
<event>
12    1  0.1032880E+000  0.2423334E+03  0.7818608E-02  0.1118388E+00
         21   -1    0    0  501  502  0.00000000000E+00  0.00000000000E+00  0.10402008225E+03  0.10402008225E+03  0.00000000000E+00 0.  1.
         21   -1    0    0  502  503 -0.00000000000E+00 -0.00000000000E+00 -0.56472887972E+03  0.56472887972E+03  0.00000000000E+00 0.  1.
         -6    2    1    2    0  503  0.97616323743E+02 -0.14007907039E+03 -0.25138088721E+03  0.34916735635E+03  0.17197208978E+03 0.  0.
        -24    2    3    3    0    0  0.53335364404E+02 -0.68758187221E+02 -0.23491305644E+03  0.26348917251E+03  0.81670377362E+02 0.  0.
          6    2    1    2  501    0 -0.97616323743E+02  0.14007907039E+03 -0.20932791026E+03  0.31958160561E+03  0.17077217575E+03 0.  0.
         24    2    5    5    0    0  0.10873722670E+02  0.29546434287E+02 -0.61180824632E+02  0.10520529443E+03  0.79585369576E+02 0.  0.
          5    1    5    5  501    0 -0.10849004641E+03  0.11053263610E+03 -0.14814708563E+03  0.21437631118E+03  0.47000000000E+01 0. -1.
        -11    1    6    6    0    0 -0.11076315906E+02  0.18099528652E+02 -0.74242348605E+02  0.77215309608E+02  0.00000000000E+00 0.  1.
         12    1    6    6    0    0  0.21950038575E+02  0.11446905635E+02  0.13061523973E+02  0.27989984826E+02  0.00000000000E+00 0. -1.
         -5    1    3    3    0  503  0.44280959339E+02 -0.71320883170E+02 -0.16467830775E+02  0.85678183842E+02  0.47000000000E+01 0.  1.
         11    1    4    4    0    0  0.27646937983E+02 -0.68780524518E+02 -0.22332769734E+03  0.23530910337E+03  0.00000000000E+00 0. -1.
        -12    1    4    4    0    0  0.25688426422E+02  0.22337296995E-01 -0.11585359102E+02  0.28180069136E+02  0.00000000000E+00 0.  1.
</event>
<event>
12    1  0.1032880E+000  0.3796570E+03  0.7818608E-02  0.1051064E+00
         21   -1    0    0  501  502  0.00000000000E+00  0.00000000000E+00  0.53859381803E+03  0.53859381803E+03  0.00000000000E+00 0. -1.
         21   -1    0    0  502  503 -0.00000000000E+00 -0.00000000000E+00 -0.27364150665E+03  0.27364150665E+03  0.00000000000E+00 0. -1.
         -6    2    1    2    0  503 -0.35048967613E+02 -0.33687072626E+03  0.72132158174E+02  0.38644858185E+03  0.17154924025E+03 0.  0.
        -24    2    3    3    0    0 -0.80556753016E+02 -0.15750530317E+03  0.44028110496E+02  0.19921920107E+03  0.80327483326E+02 0.  0.
          6    2    1    2  501    0  0.35048967613E+02  0.33687072626E+03  0.19282015321E+03  0.42578674283E+03  0.17147717791E+03 0.  0.
         24    2    5    5    0    0  0.53763818756E+02  0.34185990893E+03  0.16328193214E+03  0.39015341431E+03  0.76157414582E+02 0.  0.
          5    1    5    5  501    0 -0.18714851143E+02 -0.49891826742E+01  0.29538221072E+02  0.35633328517E+02  0.47000000000E+01 0. -1.
        -11    1    6    6    0    0  0.30203031377E+02  0.26525210134E+03  0.15711451252E+03  0.30976744570E+03  0.00000000000E+00 0.  1.
         12    1    6    6    0    0  0.23560787379E+02  0.76607807586E+02  0.61674196217E+01  0.80385968613E+02  0.00000000000E+00 0. -1.
         -5    1    3    3    0  503  0.45507785403E+02 -0.17936542308E+03  0.28104047678E+02  0.18722938078E+03  0.47000000000E+01 0.  1.
         13    1    4    4    0    0 -0.42738842150E+02 -0.12217070075E+03 -0.27442778043E+01  0.12945972273E+03  0.00000000000E+00 0. -1.
        -14    1    4    4    0    0 -0.37817910866E+02 -0.35334602427E+02  0.46772388300E+02  0.69759478340E+02  0.00000000000E+00 0.  1.
</event>
<event>
12    1  0.1032880E+000  0.2509385E+03  0.7818608E-02  0.1112799E+00
         21   -1    0    0  503  502  0.00000000000E+00  0.00000000000E+00  0.33724323074E+03  0.33724323074E+03  0.00000000000E+00 0. -1.
         21   -1    0    0  501  503 -0.00000000000E+00 -0.00000000000E+00 -0.25049611258E+03  0.25049611258E+03  0.00000000000E+00 0. -1.
          6    2    1    2  501    0 -0.18065380435E+03  0.12914117777E+01 -0.10541190473E+03  0.27167727865E+03  0.17337649583E+03 0.  0.
         24    2    3    3    0    0 -0.11413742661E+03  0.64071340235E+02 -0.38013854787E+02  0.15796564749E+03  0.79847378411E+02 0.  0.
         -6    2    1    2    0  502  0.18065380435E+03 -0.12914117777E+01  0.19215902290E+03  0.31606206467E+03  0.17416277981E+03 0.  0.
        -24    2    5    5    0    0  0.33053482428E+02 -0.36935554392E+02  0.52039028054E+02  0.10939309532E+03  0.82474365622E+02 0.  0.
          5    1    3    3  501    0 -0.66516377747E+02 -0.62779928457E+02 -0.67398049944E+02  0.11371163116E+03  0.47000000000E+01 0. -1.
        -13    1    4    4    0    0 -0.83429770163E+02  0.28797922517E+01 -0.10330402053E+02  0.84116211038E+02  0.00000000000E+00 0.  1.
         14    1    4    4    0    0 -0.30707656443E+02  0.61191547983E+02 -0.27683452734E+02  0.73849436450E+02  0.00000000000E+00 0. -1.
         -5    1    5    5    0  502  0.14760032192E+03  0.35644142614E+02  0.14011999484E+03  0.20666896934E+03  0.47000000000E+01 0.  1.
         11    1    6    6    0    0  0.75187536973E+01 -0.32335111234E+02 -0.15796920493E+02  0.36764572250E+02  0.00000000000E+00 0. -1.
        -12    1    6    6    0    0  0.25534728731E+02 -0.46004431579E+01  0.67835948547E+02  0.72628523073E+02  0.00000000000E+00 0.  1.
</event>
<event>
12    1  0.1032880E+000  0.1823274E+03  0.7818608E-02  0.1165629E+00
         21   -1    0    0  503  502  0.00000000000E+00  0.00000000000E+00  0.22755563881E+02  0.22755563881E+02  0.00000000000E+00 0.  1.
         21   -1    0    0  501  503 -0.00000000000E+00 -0.00000000000E+00 -0.14609718765E+04  0.14609718765E+04  0.00000000000E+00 0.  1.
          6    2    1    2  501    0 -0.51364052339E+02 -0.32083408381E+02 -0.69150926748E+03  0.71514219337E+03  0.17197580867E+03 0.  0.
         24    2    3    3    0    0 -0.83542452249E+02  0.60862149137E+01 -0.60421963100E+03  0.61447471998E+03  0.74036718367E+02 0.  0.
         -6    2    1    2    0  502  0.51364052339E+02  0.32083408381E+02 -0.74670704517E+03  0.76858524703E+03  0.17170981245E+03 0.  0.
        -24    2    5    5    0    0  0.64441012931E+02 -0.35947396213E+02 -0.53035345112E+03  0.54136252606E+03  0.79710363569E+02 0.  0.
          5    1    3    3  501    0  0.32178399911E+02 -0.38169623295E+02 -0.87289636474E+02  0.10066747339E+03  0.47000000000E+01 0. -1.
        -13    1    4    4    0    0 -0.95318565376E+00 -0.17923911918E+02 -0.22072431723E+03  0.22145292818E+03  0.00000000000E+00 0.  1.
         14    1    4    4    0    0 -0.82589266595E+02  0.24010126831E+02 -0.38349531377E+03  0.39302179180E+03  0.00000000000E+00 0. -1.
         -5    1    5    5    0  502 -0.13076960592E+02  0.68030804594E+02 -0.21635359404E+03  0.22722272098E+03  0.47000000000E+01 0.  1.
         13    1    6    6    0    0  0.61115126007E+02 -0.41065154892E+01 -0.46009002421E+03  0.46414949367E+03  0.00000000000E+00 0. -1.
        -14    1    6    6    0    0  0.33258869241E+01 -0.31840880724E+02 -0.70263426911E+02  0.77213032387E+02  0.00000000000E+00 0.  1.
</event>
<event>
12    1  0.1032880E+000  0.3333873E+03  0.7818608E-02  0.1069703E+00
         21   -1    0    0  503  502  0.00000000000E+00  0.00000000000E+00  0.16560686294E+04  0.16560686294E+04  0.00000000000E+00 0. -1.
         21   -1    0    0  501  503 -0.00000000000E+00 -0.00000000000E+00 -0.80115533604E+02  0.80115533604E+02  0.00000000000E+00 0. -1.
          6    2    1    2  501    0  0.28485406117E+03  0.16343958840E+02  0.11385346516E+04  0.11862005294E+04  0.17146889496E+03 0.  0.
         24    2    3    3    0    0  0.65128926331E+02 -0.27362598673E+02  0.44743265653E+03  0.45967905304E+03  0.78219951553E+02 0.  0.
         -6    2    1    2    0  502 -0.28485406117E+03 -0.16343958840E+02  0.43741844423E+03  0.54998363362E+03  0.17244750141E+03 0.  0.
        -24    2    5    5    0    0 -0.21675539608E+03 -0.33944527046E+02  0.41483857689E+03  0.47596236238E+03  0.79460637256E+02 0.  0.
          5    1    3    3  501    0  0.21972513484E+03  0.43706557514E+02  0.69110199508E+03  0.72652147639E+03  0.47000000000E+01 0. -1.
        -13    1    4    4    0    0  0.46230028274E+02 -0.52702692105E+02  0.24651345231E+03  0.25628825849E+03  0.00000000000E+00 0.  1.
         14    1    4    4    0    0  0.18898898057E+02  0.25340093432E+02  0.20091920422E+03  0.20339079455E+03  0.00000000000E+00 0. -1.
         -5    1    5    5    0  502 -0.68098665086E+02  0.17600568206E+02  0.22579867335E+02  0.74021271243E+02  0.47000000000E+01 0.  1.
         13    1    6    6    0    0 -0.84728527054E+02  0.18753980259E+02  0.20385069661E+03  0.22155302205E+03  0.00000000000E+00 0. -1.
        -14    1    6    6    0    0 -0.13202686903E+03 -0.52698507305E+02  0.21098788028E+03  0.25440934033E+03  0.00000000000E+00 0.  1.
</event>
<event>
12    1  0.1032880E+000  0.2781564E+03  0.7818608E-02  0.1097062E+00
         21   -1    0    0  501  502  0.00000000000E+00  0.00000000000E+00  0.67774399691E+03  0.67774399691E+03  0.00000000000E+00 0. -1.
         21   -1    0    0  502  503 -0.00000000000E+00 -0.00000000000E+00 -0.11315736862E+03  0.11315736862E+03  0.00000000000E+00 0. -1.
         -6    2    1    2    0  503 -0.46659015422E+02 -0.21208091264E+03  0.29072493933E+03  0.40055381360E+03  0.16960834301E+03 0.  0.
        -24    2    3    3    0    0 -0.82748424629E+02 -0.85104767835E+02  0.16095694047E+03  0.21538575390E+03  0.79961009313E+02 0.  0.
          6    2    1    2  501    0  0.46659015422E+02  0.21208091264E+03  0.27386168896E+03  0.39034755193E+03  0.17382637715E+03 0.  0.
         24    2    5    5    0    0 -0.22510195011E+02  0.14398947791E+03  0.10700912261E+03  0.19726028654E+03  0.78873250843E+02 0.  0.
          5    1    5    5  501    0  0.69169210433E+02  0.68091434731E+02  0.16685256635E+03  0.19308726539E+03  0.47000000000E+01 0. -1.
        -11    1    6    6    0    0 -0.51471730824E+02  0.81752687740E+02  0.69750699783E+02  0.11915536558E+03  0.00000000000E+00 0.  1.
         12    1    6    6    0    0  0.28961535814E+02  0.62236790168E+02  0.37258422825E+02  0.78104920963E+02  0.00000000000E+00 0. -1.
         -5    1    3    3    0  503  0.36089409207E+02 -0.12697614480E+03  0.12976799886E+03  0.18516805970E+03  0.47000000000E+01 0.  1.
         11    1    4    4    0    0 -0.38910118722E+02  0.60602932318E+01  0.27987678002E+02  0.48311847543E+02  0.00000000000E+00 0. -1.
        -12    1    4    4    0    0 -0.43838305907E+02 -0.91165061067E+02  0.13296926247E+03  0.16707390635E+03  0.00000000000E+00 0.  1.
</event>
<event>
12    1  0.1032880E+000  0.1712206E+03  0.7818608E-02  0.1178508E+00
         21   -1    0    0  501  502  0.00000000000E+00  0.00000000000E+00  0.64138341024E+02  0.64138341024E+02  0.00000000000E+00 0. -1.
         21   -1    0    0  502  503 -0.00000000000E+00 -0.00000000000E+00 -0.46433982811E+03  0.46433982811E+03  0.00000000000E+00 0. -1.
         -6    2    1    2    0  503  0.34045973208E+02 -0.96404074318E+01 -0.13287947454E+03  0.21102334961E+03  0.16006821540E+03 0.  0.
        -24    2    3    3    0    0 -0.22225152732E+02  0.35602046418E+02 -0.83758954634E+02  0.12356916320E+03  0.80574887467E+02 0.  0.
          6    2    1    2  501    0 -0.34045973208E+02  0.96404074318E+01 -0.26732201254E+03  0.31745481952E+03  0.16752444090E+03 0.  0.
         24    2    5    5    0    0 -0.65157127149E+02  0.34578532194E+02 -0.25141890774E+03  0.27427134225E+03  0.81068957724E+02 0.  0.
          5    1    5    5  501    0  0.31111153941E+02 -0.24938124762E+02 -0.15903104806E+02  0.43183477265E+02  0.47000000000E+01 0. -1.
        -11    1    6    6    0    0 -0.51505633552E+02  0.39420509923E+02 -0.83510637605E+02  0.10573946039E+03  0.00000000000E+00 0.  1.
         12    1    6    6    0    0 -0.13651493597E+02 -0.48419777290E+01 -0.16790827013E+03  0.16853188186E+03  0.00000000000E+00 0. -1.
         -5    1    3    3    0  503  0.56271125940E+02 -0.45242453850E+02 -0.49120519907E+02  0.87454186411E+02  0.47000000000E+01 0.  1.
         11    1    4    4    0    0 -0.16843437264E+02 -0.20077176129E+01  0.11847416042E+02  0.20690422320E+02  0.00000000000E+00 0. -1.
        -12    1    4    4    0    0 -0.53817154674E+01  0.37609764031E+02 -0.95606370677E+02  0.10287874088E+03  0.00000000000E+00 0.  1.
</event>
<event>
12    1  0.1032880E+000  0.2346573E+03  0.7818608E-02  0.1123852E+00
         21   -1    0    0  503  502  0.00000000000E+00  0.00000000000E+00  0.49161026799E+03  0.49161026799E+03  0.00000000000E+00 0. -1.
         21   -1    0    0  501  503 -0.00000000000E+00 -0.00000000000E+00 -0.11077580915E+03  0.11077580915E+03  0.00000000000E+00 0. -1.
          6    2    1    2  501    0  0.16386065235E+01 -0.15678826310E+03  0.19326587455E+03  0.30399956025E+03  0.17458175704E+03 0.  0.
         24    2    3    3    0    0 -0.21029511371E+01 -0.12554687125E+03  0.21684361381E+03  0.26440128241E+03  0.84382735247E+02 0.  0.
         -6    2    1    2    0  502 -0.16386065235E+01  0.15678826310E+03  0.18756858429E+03  0.29838651689E+03  0.17107686919E+03 0.  0.
        -24    2    5    5    0    0  0.36775157179E+02  0.32951041634E+02  0.39890508108E+02  0.10181037681E+03  0.79598472722E+02 0.  0.
          5    1    3    3  501    0  0.37415576606E+01 -0.31241391856E+02 -0.23577739265E+02  0.39598277838E+02  0.47000000000E+01 0. -1.
        -11    1    4    4    0    0  0.29977245141E+02 -0.16541279906E+02  0.29024675407E+02  0.44885197445E+02  0.00000000000E+00 0.  1.
         12    1    4    4    0    0 -0.32080196278E+02 -0.10900559134E+03  0.18781893841E+03  0.21951608497E+03  0.00000000000E+00 0. -1.
         -5    1    5    5    0  502 -0.38413763702E+02  0.12383722147E+03  0.14767807618E+03  0.19657614008E+03  0.47000000000E+01 0.  1.
         13    1    6    6    0    0  0.36909504398E+02  0.43767993402E+02 -0.32389765578E+01  0.57344918960E+02  0.00000000000E+00 0. -1.
        -14    1    6    6    0    0 -0.13434721909E+00 -0.10816951768E+02  0.43129484666E+02  0.44465457855E+02  0.00000000000E+00 0.  1.
</event>
<event>
12    1  0.1032880E+000  0.1746027E+03  0.7818608E-02  0.1173146E+00
         21   -1    0    0  501  502  0.00000000000E+00  0.00000000000E+00  0.16780654388E+03  0.16780654388E+03  0.00000000000E+00 0. -1.
         21   -1    0    0  502  503 -0.00000000000E+00 -0.00000000000E+00 -0.18257355597E+03  0.18257355597E+03  0.00000000000E+00 0. -1.
         -6    2    1    2    0  503  0.24537510305E+02 -0.19699584974E+02 -0.20089957567E+02  0.17569629399E+03  0.17168406527E+03 0.  0.
        -24    2    3    3    0    0 -0.73529256225E+01 -0.50439698737E+02 -0.76175758906E+02  0.10407463798E+03  0.49300662297E+02 0.  0.
          6    2    1    2  501    0 -0.24537510305E+02  0.19699584974E+02  0.53229454801E+01  0.17468380586E+03  0.17174380694E+03 0.  0.
         24    2    5    5    0    0 -0.42312530894E+02  0.14762363164E+02 -0.49358452929E+02  0.11678326313E+03  0.95884284610E+02 0.  0.
          5    1    5    5  501    0  0.17775020589E+02  0.49372218106E+01  0.54681398409E+02  0.57900542727E+02  0.47000000000E+01 0. -1.
        -13    1    6    6    0    0 -0.72822060894E+02  0.37928940907E+01 -0.28853832987E+02  0.78421822706E+02  0.00000000000E+00 0.  1.
         14    1    6    6    0    0  0.30509530000E+02  0.10969469073E+02 -0.20504619942E+02  0.38361440426E+02  0.00000000000E+00 0. -1.
         -5    1    3    3    0  503  0.31890435928E+02  0.30740113762E+02  0.56085801339E+02  0.71621656010E+02  0.47000000000E+01 0.  1.
         11    1    4    4    0    0 -0.22187857994E+02 -0.21349148055E+02 -0.60428901212E+02  0.67821377653E+02  0.00000000000E+00 0. -1.
        -12    1    4    4    0    0  0.14834932372E+02 -0.29090550682E+02 -0.15746857693E+02  0.36253260331E+02  0.00000000000E+00 0.  1.
</event>
<event>
12    1  0.1032880E+000  0.2912763E+03  0.7818608E-02  0.1089696E+00
         21   -1    0    0  501  502  0.00000000000E+00  0.00000000000E+00  0.12774978975E+03  0.12774978975E+03  0.00000000000E+00 0.  1.
         21   -1    0    0  502  503 -0.00000000000E+00 -0.00000000000E+00 -0.98045626510E+03  0.98045626510E+03  0.00000000000E+00 0.  1.
         -6    2    1    2    0  503 -0.21311497242E+03 -0.98137476933E+02 -0.11146802206E+03  0.31179136939E+03  0.17245226076E+03 0.  0.
        -24    2    3    3    0    0 -0.46109246833E+02 -0.73788243909E+02 -0.70559813803E+02  0.13806926652E+03  0.80707294897E+02 0.  0.
          6    2    1    2  501    0  0.21311497242E+03  0.98137476933E+02 -0.74123845329E+03  0.79641468545E+03  0.17260634612E+03 0.  0.
         24    2    5    5    0    0  0.54387116282E+02  0.83890217329E+02 -0.40621444412E+03  0.42538814538E+03  0.77132176390E+02 0.  0.
          5    1    5    5  501    0  0.15872785613E+03  0.14247259604E+02 -0.33502400917E+03  0.37102654008E+03  0.47000000000E+01 0. -1.
        -11    1    6    6    0    0  0.50860722450E+02  0.12486638481E+02 -0.21383274153E+03  0.22015260747E+03  0.00000000000E+00 0.  1.
         12    1    6    6    0    0  0.35263938319E+01  0.71403578848E+02 -0.19238170259E+03  0.20523553790E+03  0.00000000000E+00 0. -1.
         -5    1    3    3    0  503 -0.16700572558E+03 -0.24349233024E+02 -0.40908208256E+02  0.17372210288E+03  0.47000000000E+01 0.  1.
         13    1    4    4    0    0  0.20605482845E+02 -0.33967997079E+02 -0.14630949882E+02  0.42337636250E+02  0.00000000000E+00 0. -1.
        -14    1    4    4    0    0 -0.66714729678E+02 -0.39820246830E+02 -0.55928863921E+02  0.95731630265E+02  0.00000000000E+00 0.  1.
</event>
<event>
12    1  0.1032880E+000  0.1798831E+03  0.7818608E-02  0.1168899E+00
         21   -1    0    0  501  502  0.00000000000E+00  0.00000000000E+00  0.95118782158E+02  0.95118782158E+02  0.00000000000E+00 0.  1.
         21   -1    0    0  502  503 -0.00000000000E+00 -0.00000000000E+00 -0.51186652390E+03  0.51186652390E+03  0.00000000000E+00 0.  1.
         -6    2    1    2    0  503 -0.39325158606E+02  0.19607053662E+02 -0.30323285102E+02  0.18242103987E+03  0.17443345297E+03 0.  0.
        -24    2    3    3    0    0  0.26074447644E+02 -0.38674042915E+02 -0.25029318800E+02  0.94535257198E+02  0.78325536312E+02 0.  0.
          6    2    1    2  501    0  0.39325158606E+02 -0.19607053662E+02 -0.38642445663E+03  0.42456426619E+03  0.17029401277E+03 0.  0.
         24    2    5    5    0    0  0.12991392724E+02  0.27088434246E+02 -0.34891428595E+03  0.35896671501E+03  0.78824894448E+02 0.  0.
          5    1    5    5  501    0  0.26333765882E+02 -0.46695487908E+02 -0.37510170681E+02  0.65597551181E+02  0.47000000000E+01 0. -1.
        -11    1    6    6    0    0  0.26752892460E+02  0.16837460992E+02 -0.47453885134E+02  0.57018317775E+02  0.00000000000E+00 0.  1.
         12    1    6    6    0    0 -0.13761499736E+02  0.10250973254E+02 -0.30146040082E+03  0.30194839723E+03  0.00000000000E+00 0. -1.
         -5    1    3    3    0  503 -0.65399606250E+02  0.58281096577E+02 -0.52939663017E+01  0.87885782668E+02  0.47000000000E+01 0.  1.
         11    1    4    4    0    0  0.39695713541E+01  0.22146085976E+02  0.52279762080E+01  0.23098449212E+02  0.00000000000E+00 0. -1.
        -12    1    4    4    0    0  0.22104876290E+02 -0.60820128890E+02 -0.30257295008E+02  0.71436807986E+02  0.00000000000E+00 0.  1.
</event>
<event>
12    1  0.1032880E+000  0.2899092E+03  0.7818608E-02  0.1090749E+00
         21   -1    0    0  503  502  0.00000000000E+00  0.00000000000E+00  0.26799190131E+03  0.26799190131E+03  0.00000000000E+00 0. -1.
         21   -1    0    0  501  503 -0.00000000000E+00 -0.00000000000E+00 -0.31622752869E+03  0.31622752869E+03  0.00000000000E+00 0. -1.
          6    2    1    2  501    0 -0.18393100843E+03 -0.14038885247E+03 -0.62785414977E+02  0.29662995581E+03  0.17466446860E+03 0.  0.
         24    2    3    3    0    0 -0.87232124275E+02 -0.23014748743E+02  0.22626538770E+02  0.12214601309E+03  0.79174276713E+02 0.  0.
         -6    2    1    2    0  502  0.18393100843E+03  0.14038885247E+03  0.14549787596E+02  0.28758947419E+03  0.17016569450E+03 0.  0.
        -24    2    5    5    0    0  0.16842866480E+03  0.85863474091E+02 -0.39948501716E+02  0.20881452205E+03  0.79163568154E+02 0.  0.
          5    1    3    3  501    0 -0.96698884150E+02 -0.11737410373E+03 -0.85411953747E+02  0.17448394271E+03  0.47000000000E+01 0. -1.
        -11    1    4    4    0    0 -0.40880676810E+02 -0.42588415857E+02 -0.13058898140E+02  0.60461043014E+02  0.00000000000E+00 0.  1.
         12    1    4    4    0    0 -0.46351447465E+02  0.19573667114E+02  0.35685436910E+02  0.61684970081E+02  0.00000000000E+00 0. -1.
         -5    1    5    5    0  502  0.15502343627E+02  0.54525378378E+02  0.54498289312E+02  0.78774952131E+02  0.47000000000E+01 0.  1.
         11    1    6    6    0    0  0.21877545533E+01  0.22669750969E+02  0.87864982847E+01  0.24411194790E+02  0.00000000000E+00 0. -1.
        -12    1    6    6    0    0  0.16624091024E+03  0.63193723122E+02 -0.48735000001E+02  0.18440332726E+03  0.00000000000E+00 0.  1.
</event>
<event>
12    1  0.1032880E+000  0.2039611E+03  0.7818608E-02  0.1146550E+00
         21   -1    0    0  503  502  0.00000000000E+00  0.00000000000E+00  0.19525391199E+03  0.19525391199E+03  0.00000000000E+00 0. -1.
         21   -1    0    0  501  503 -0.00000000000E+00 -0.00000000000E+00 -0.21369822422E+03  0.21369822422E+03  0.00000000000E+00 0. -1.
          6    2    1    2  501    0 -0.25257419100E+02 -0.10564212583E+03  0.60892202712E+01  0.20405200335E+03  0.17263239991E+03 0.  0.
         24    2    3    3    0    0  0.41447656454E+02 -0.62681171294E+02  0.38713779800E+02  0.11813540074E+03  0.82525018643E+02 0.  0.
         -6    2    1    2    0  502  0.25257419100E+02  0.10564212583E+03 -0.24533532501E+02  0.20490013285E+03  0.17199992517E+03 0.  0.
        -24    2    5    5    0    0  0.24492896777E+02  0.53388594580E+02  0.52608566277E+02  0.11160485202E+03  0.78979349986E+02 0.  0.
          5    1    3    3  501    0 -0.66705075553E+02 -0.42960954531E+02 -0.32624559529E+02  0.85916602606E+02  0.47000000000E+01 0. -1.
        -11    1    4    4    0    0 -0.90866270115E+01 -0.31525006119E+02  0.47903515460E+02  0.58061515608E+02  0.00000000000E+00 0.  1.
         12    1    4    4    0    0  0.50534283465E+02 -0.31156165176E+02 -0.91897356598E+01  0.60073885135E+02  0.00000000000E+00 0. -1.
         -5    1    5    5    0  502  0.76452232250E+00  0.52253531246E+02 -0.77142098779E+02  0.93295280835E+02  0.47000000000E+01 0.  1.
         13    1    6    6    0    0  0.42150298651E+01  0.71263121333E+02  0.37499160231E+02  0.80637373202E+02  0.00000000000E+00 0. -1.
        -14    1    6    6    0    0  0.20277866912E+02 -0.17874526752E+02  0.15109406047E+02  0.30967478816E+02  0.00000000000E+00 0.  1.
</event>
<event>
12    1  0.1032880E+000  0.2228904E+03  0.7818608E-02  0.1131832E+00
         21   -1    0    0  503  502  0.00000000000E+00  0.00000000000E+00  0.34645215199E+03  0.34645215199E+03  0.00000000000E+00 0. -1.
         21   -1    0    0  501  503 -0.00000000000E+00 -0.00000000000E+00 -0.17414746054E+03  0.17414746054E+03  0.00000000000E+00 0. -1.
          6    2    1    2  501    0 -0.13957837090E+03 -0.25075054950E+02 -0.23685718336E+02  0.22414534282E+03  0.17195709189E+03 0.  0.
         24    2    3    3    0    0 -0.13333107674E+03  0.11784943269E+02  0.29776603859E+02  0.15873893604E+03  0.79970886990E+02 0.  0.
         -6    2    1    2    0  502  0.13957837090E+03  0.25075054950E+02  0.19599040979E+03  0.29645426970E+03  0.17135347470E+03 0.  0.
        -24    2    5    5    0    0  0.12265625956E+03 -0.40118764081E+02  0.11303293894E+03  0.18949341770E+03  0.80481282451E+02 0.  0.
          5    1    3    3  501    0 -0.62472941602E+01 -0.36859998218E+02 -0.53462322195E+02  0.65406406777E+02  0.47000000000E+01 0. -1.
        -11    1    4    4    0    0 -0.12174340273E+03 -0.15026221873E+02  0.37959465101E+02  0.12840624768E+03  0.00000000000E+00 0.  1.
         12    1    4    4    0    0 -0.11587674008E+02  0.26811165141E+02 -0.81828612422E+01  0.30332688362E+02  0.00000000000E+00 0. -1.
         -5    1    5    5    0  502  0.16922111345E+02  0.65193819031E+02  0.82957470849E+02  0.10696085201E+03  0.47000000000E+01 0.  1.
         11    1    6    6    0    0  0.41137124230E+02 -0.10032201253E+01  0.85646683603E+02  0.95019070995E+02  0.00000000000E+00 0. -1.
        -12    1    6    6    0    0  0.81519135328E+02 -0.39115543956E+02  0.27386255339E+02  0.94474346704E+02  0.00000000000E+00 0.  1.
</event>
<event>
12    1  0.1032880E+000  0.3358016E+03  0.7818608E-02  0.1068617E+00
         21   -1    0    0  503  502  0.00000000000E+00  0.00000000000E+00  0.98598188973E+03  0.98598188973E+03  0.00000000000E+00 0.  1.
         21   -1    0    0  501  503 -0.00000000000E+00 -0.00000000000E+00 -0.12856648375E+03  0.12856648375E+03  0.00000000000E+00 0.  1.
          6    2    1    2  501    0  0.50638668646E+02  0.28383623803E+03  0.24320763049E+03  0.41462356068E+03  0.17214953025E+03 0.  0.
         24    2    3    3    0    0  0.10246499450E+03  0.20798941196E+03  0.16784122039E+03  0.29570806612E+03  0.74255737303E+02 0.  0.
         -6    2    1    2    0  502 -0.50638668646E+02 -0.28383623803E+03  0.61420777549E+03  0.69992481280E+03  0.17180298984E+03 0.  0.
        -24    2    5    5    0    0 -0.28629215179E+02 -0.26760098071E+03  0.42913027186E+03  0.51277842098E+03  0.79743350529E+02 0.  0.
          5    1    3    3  501    0 -0.51826325850E+02  0.75846826065E+02  0.75366410100E+02  0.11891549456E+03  0.47000000000E+01 0. -1.
        -13    1    4    4    0    0  0.13650284404E+02 -0.34794247965E+01  0.90787678958E+01  0.16758898763E+02  0.00000000000E+00 0.  1.
         14    1    4    4    0    0  0.88814710091E+02  0.21146883676E+03  0.15876245249E+03  0.27894916736E+03  0.00000000000E+00 0. -1.
         -5    1    5    5    0  502 -0.22009453467E+02 -0.16235257318E+02  0.18507750363E+03  0.18714639182E+03  0.47000000000E+01 0.  1.
         13    1    6    6    0    0 -0.55765228425E+02 -0.18377653388E+03  0.30857130447E+03  0.36345539623E+03  0.00000000000E+00 0. -1.
        -14    1    6    6    0    0  0.27136013246E+02 -0.83824446835E+02  0.12055896739E+03  0.14932302475E+03  0.00000000000E+00 0.  1.
</event>
<event>
12    1  0.1032880E+000  0.2098070E+03  0.7818608E-02  0.1142232E+00
         21   -1    0    0  503  502  0.00000000000E+00  0.00000000000E+00  0.24331648290E+03  0.24331648290E+03  0.00000000000E+00 0.  1.
         21   -1    0    0  501  503 -0.00000000000E+00 -0.00000000000E+00 -0.29902221666E+03  0.29902221666E+03  0.00000000000E+00 0.  1.
          6    2    1    2  501    0 -0.11575190449E+03  0.73601578311E+01 -0.19996552558E+03  0.28983648964E+03  0.17483221667E+03 0.  0.
         24    2    3    3    0    0  0.79446810780E+01 -0.33737720793E+02 -0.45323458167E+02  0.87534388996E+02  0.66382992061E+02 0.  0.
         -6    2    1    2    0  502  0.11575190449E+03 -0.73601578311E+01  0.14425979183E+03  0.25250220992E+03  0.17173759973E+03 0.  0.
        -24    2    5    5    0    0  0.13588610127E+03 -0.18602418676E+02  0.68589897408E+02  0.17325703827E+03  0.80637117910E+02 0.  0.
          5    1    3    3  501    0 -0.12369658557E+03  0.41097878624E+02 -0.15464206742E+03  0.20230210064E+03  0.47000000000E+01 0. -1.
        -11    1    4    4    0    0  0.28184717139E+02 -0.29294704674E+02 -0.51778911554E+02  0.65830188241E+02  0.00000000000E+00 0.  1.
         12    1    4    4    0    0 -0.20240036061E+02 -0.44430161192E+01  0.64554533866E+01  0.21704200755E+02  0.00000000000E+00 0. -1.
         -5    1    5    5    0  502 -0.20134196774E+02  0.11242260845E+02  0.75669894420E+02  0.79245171653E+02  0.47000000000E+01 0.  1.
         13    1    6    6    0    0  0.50897326574E+02 -0.25800252925E+02  0.66922411339E+02  0.87947711982E+02  0.00000000000E+00 0. -1.
        -14    1    6    6    0    0  0.84988774693E+02  0.71978342490E+01  0.16674860687E+01  0.85309326286E+02  0.00000000000E+00 0.  1.
</event>
<event>
12    1  0.1032880E+000  0.1811655E+03  0.7818608E-02  0.1167805E+00
         21   -1    0    0  503  502  0.00000000000E+00  0.00000000000E+00  0.43780531841E+02  0.43780531841E+02  0.00000000000E+00 0. -1.
         21   -1    0    0  501  503 -0.00000000000E+00 -0.00000000000E+00 -0.92364119813E+03  0.92364119813E+03  0.00000000000E+00 0. -1.
          6    2    1    2  501    0 -0.32197956909E+02  0.46836959340E+02 -0.65652312608E+03  0.67984458967E+03  0.16713958787E+03 0.  0.
         24    2    3    3    0    0 -0.24471787214E+02 -0.10275682221E+02 -0.56764708429E+03  0.57381351720E+03  0.79588203931E+02 0.  0.
         -6    2    1    2    0  502  0.32197956909E+02 -0.46836959340E+02 -0.22333754020E+03  0.28757714030E+03  0.17201902676E+03 0.  0.
        -24    2    5    5    0    0  0.21340625637E+02 -0.16422592241E+02 -0.23716601798E+03  0.25213377468E+03  0.81231745106E+02 0.  0.
          5    1    3    3  501    0 -0.77261696947E+01  0.57112641562E+02 -0.88876041791E+02  0.10603107247E+03  0.47000000000E+01 0. -1.
        -13    1    4    4    0    0 -0.45545876056E+02 -0.22246801232E+02 -0.24123693567E+03  0.24650477911E+03  0.00000000000E+00 0.  1.
         14    1    4    4    0    0  0.21074088842E+02  0.11971119011E+02 -0.32641014862E+03  0.32730873810E+03  0.00000000000E+00 0. -1.
         -5    1    5    5    0  502  0.10857331272E+02 -0.30414367099E+02  0.13828477778E+02  0.35443365614E+02  0.47000000000E+01 0.  1.
         11    1    6    6    0    0  0.33957173685E+01 -0.48536752900E+02 -0.14202658295E+03  0.15012960249E+03  0.00000000000E+00 0. -1.
        -12    1    6    6    0    0  0.17944908269E+02  0.32114160658E+02 -0.95139435028E+02  0.10200417219E+03  0.00000000000E+00 0.  1.
</event>
<event>
12    1  0.1032880E+000  0.2674398E+03  0.7818608E-02  0.1102763E+00
         21   -1    0    0  503  502  0.00000000000E+00  0.00000000000E+00  0.10978068574E+04  0.10978068574E+04  0.00000000000E+00 0.  1.
         21   -1    0    0  501  503 -0.00000000000E+00 -0.00000000000E+00 -0.82490554660E+02  0.82490554660E+02  0.00000000000E+00 0.  1.
          6    2    1    2  501    0 -0.64520876641E+02  0.19412983059E+03  0.77829375733E+03  0.82294082136E+03  0.17216587384E+03 0.  0.
         24    2    3    3    0    0 -0.73823110306E+02  0.63488575561E+02  0.49815386683E+03  0.51366082311E+03  0.78800477932E+02 0.  0.
         -6    2    1    2    0  502  0.64520876641E+02 -0.19412983059E+03  0.23702254544E+03  0.35735659073E+03  0.17226349365E+03 0.  0.
        -24    2    5    5    0    0 -0.69054120136E+01 -0.30184150300E+02  0.99142213678E+02  0.13149606589E+03  0.80642849444E+02 0.  0.
          5    1    3    3  501    0  0.93022336657E+01  0.13064125502E+03  0.28013989050E+03  0.30927999825E+03  0.47000000000E+01 0. -1.
        -11    1    4    4    0    0 -0.24923544183E+02  0.45071726022E+02  0.39172880538E+03  0.39510011453E+03  0.00000000000E+00 0.  1.
         12    1    4    4    0    0 -0.48899566124E+02  0.18416849540E+02  0.10642506145E+03  0.11856070858E+03  0.00000000000E+00 0. -1.
         -5    1    5    5    0  502  0.71426288654E+02 -0.16394568029E+03  0.13788033176E+03  0.22586052484E+03  0.47000000000E+01 0.  1.
         11    1    6    6    0    0 -0.42174796474E+02 -0.77290988234E+01  0.63130291011E+02  0.76314389661E+02  0.00000000000E+00 0. -1.
        -12    1    6    6    0    0  0.35269384460E+02 -0.22455051476E+02  0.36011922668E+02  0.55181676227E+02  0.00000000000E+00 0.  1.
</event>
<event>
12    1  0.1032880E+000  0.2276112E+03  0.7818608E-02  0.1128585E+00
         21   -1    0    0  501  502  0.00000000000E+00  0.00000000000E+00  0.12315549924E+03  0.12315549924E+03  0.00000000000E+00 0.  1.
         21   -1    0    0  502  503 -0.00000000000E+00 -0.00000000000E+00 -0.66610268114E+03  0.66610268114E+03  0.00000000000E+00 0. -1.
         -6    2    1    2    0  503 -0.12721144865E+02 -0.14816902958E+03 -0.30133148540E+02  0.22820105002E+03  0.17044595547E+03 0.  0.
        -24    2    3    3    0    0 -0.19906413343E+00  0.71764648687E+00 -0.23499562387E+02  0.78567700527E+02  0.74967322820E+02 0.  0.
          6    2    1    2  501    0  0.12721144865E+02  0.14816902958E+03 -0.51281403337E+03  0.56105713036E+03  0.17231071314E+03 0.  0.
         24    2    5    5    0    0 -0.20918833339E+01  0.54088104961E+02 -0.10673178269E+03  0.14392941552E+03  0.79963142386E+02 0.  0.
          5    1    5    5  501    0  0.14813028199E+02  0.94080924616E+02 -0.40608225067E+03  0.41712771485E+03  0.47000000000E+01 0. -1.
        -11    1    6    6    0    0  0.29498900423E+02 -0.46016475569E+01 -0.30828625645E+02  0.42915783176E+02  0.00000000000E+00 0.  1.
         12    1    6    6    0    0 -0.31590783757E+02  0.58689752518E+02 -0.75903157048E+02  0.10101363234E+03  0.00000000000E+00 0. -1.
         -5    1    3    3    0  503 -0.12522080732E+02 -0.14888667606E+03 -0.66335861532E+01  0.14963334949E+03  0.47000000000E+01 0.  1.
         11    1    4    4    0    0 -0.79781910661E+01 -0.36282084656E+02 -0.10902224627E+02  0.38715626063E+02  0.00000000000E+00 0. -1.
        -12    1    4    4    0    0  0.77791269326E+01  0.36999731143E+02 -0.12597337760E+02  0.39852074464E+02  0.00000000000E+00 0.  1.
</event>
<event>
12    1  0.1032880E+000  0.2059016E+03  0.7818608E-02  0.1146145E+00
         21   -1    0    0  503  502  0.00000000000E+00  0.00000000000E+00  0.15253807466E+03  0.15253807466E+03  0.00000000000E+00 0.  1.
         21   -1    0    0  501  503 -0.00000000000E+00 -0.00000000000E+00 -0.32860508595E+03  0.32860508595E+03  0.00000000000E+00 0.  1.
          6    2    1    2  501    0 -0.10314694429E+03  0.57468611971E+02  0.12823988362E+02  0.20630061270E+03  0.16868181480E+03 0.  0.
         24    2    3    3    0    0 -0.15454775610E+02  0.72535611065E+02 -0.13071999309E+02  0.11351255804E+03  0.84935026378E+02 0.  0.
         -6    2    1    2    0  502  0.10314694429E+03 -0.57468611971E+02 -0.18889099966E+03  0.27484254791E+03  0.16098659234E+03 0.  0.
        -24    2    5    5    0    0  0.89284026647E+02 -0.99847807561E+02 -0.14449661536E+03  0.21174636687E+03  0.77563070758E+02 0.  0.
          5    1    3    3  501    0 -0.87692168678E+02 -0.15066999094E+02  0.25895987671E+02  0.92788054655E+02  0.47000000000E+01 0. -1.
        -11    1    4    4    0    0  0.12307443003E+02  0.42061613205E+02 -0.43904202427E+02  0.62034115206E+02  0.00000000000E+00 0.  1.
         12    1    4    4    0    0 -0.27762218613E+02  0.30473997861E+02  0.30832203118E+02  0.51478442838E+02  0.00000000000E+00 0. -1.
         -5    1    5    5    0  502  0.13862917641E+02  0.42379195590E+02 -0.44394384302E+02  0.63096181040E+02  0.47000000000E+01 0.  1.
         11    1    6    6    0    0  0.21362195521E+02 -0.64553352115E+02 -0.10633457860E+03  0.12621616883E+03  0.00000000000E+00 0. -1.
        -12    1    6    6    0    0  0.67921831126E+02 -0.35294455445E+02 -0.38162036756E+02  0.85530198047E+02  0.00000000000E+00 0.  1.
</event>
<event>
12    1  0.1032880E+000  0.2863004E+03  0.7818608E-02  0.1093489E+00
         21   -1    0    0  501  502  0.00000000000E+00  0.00000000000E+00  0.75137567140E+03  0.75137567140E+03  0.00000000000E+00 0. -1.
         21   -1    0    0  502  503 -0.00000000000E+00 -0.00000000000E+00 -0.12016282856E+03  0.12016282856E+03  0.00000000000E+00 0. -1.
         -6    2    1    2    0  503 -0.21343059135E+03 -0.64718346986E+02  0.16035112543E+03  0.32046802089E+03  0.16506419123E+03 0.  0.
        -24    2    3    3    0    0 -0.94927210746E+02  0.16474032192E+01  0.13420415273E+03  0.18207286853E+03  0.78268036697E+02 0.  0.
          6    2    1    2  501    0  0.21343059135E+03  0.64718346986E+02  0.47086171741E+03  0.55107047907E+03  0.17951833950E+03 0.  0.
         24    2    5    5    0    0  0.15312538588E+03 -0.23376299820E+02  0.24063928932E+03  0.29725589912E+03  0.80373918644E+02 0.  0.
          5    1    5    5  501    0  0.60305205471E+02  0.88094646806E+02  0.23022242809E+03  0.25381457996E+03  0.47000000000E+01 0. -1.
        -11    1    6    6    0    0  0.12280301249E+03  0.10529513716E+02  0.13823411028E+03  0.18520291515E+03  0.00000000000E+00 0.  1.
         12    1    6    6    0    0  0.30322373385E+02 -0.33905813536E+02  0.10240517905E+03  0.11205298396E+03  0.00000000000E+00 0. -1.
         -5    1    3    3    0  503 -0.11850338060E+03 -0.66365750205E+02  0.26146972699E+02  0.13839515236E+03  0.47000000000E+01 0.  1.
         11    1    4    4    0    0 -0.96441180515E+02  0.72474811735E+01  0.74482008226E+02  0.12206963927E+03  0.00000000000E+00 0. -1.
        -12    1    4    4    0    0  0.15139697693E+01 -0.56000779542E+01  0.59722144505E+02  0.60003229262E+02  0.00000000000E+00 0.  1.
</event>
<event>
12    1  0.1032880E+000  0.3275646E+03  0.7818608E-02  0.1072530E+00
         21   -1    0    0  501  502  0.00000000000E+00  0.00000000000E+00  0.63479938295E+03  0.63479938295E+03  0.00000000000E+00 0.  1.
         21   -1    0    0  502  503 -0.00000000000E+00 -0.00000000000E+00 -0.20760356183E+03  0.20760356183E+03  0.00000000000E+00 0.  1.
         -6    2    1    2    0  503  0.26670142191E+03 -0.69313060290E+02  0.39922154455E+03  0.51640719837E+03  0.17710054802E+03 0.  0.
        -24    2    3    3    0    0  0.17280818474E+03 -0.43685319589E+02  0.36257843260E+03  0.41230374629E+03  0.82220335443E+02 0.  0.
          6    2    1    2  501    0 -0.26670142191E+03  0.69313060290E+02  0.27974276570E+02  0.32599574642E+03  0.17192067286E+03 0.  0.
         24    2    5    5    0    0 -0.44015684737E+02  0.98084188940E+01  0.31185043681E+02  0.95426583444E+02  0.78103394896E+02 0.  0.
          5    1    5    5  501    0 -0.22268573718E+03  0.59504641396E+02 -0.32107671110E+01  0.23056916297E+03  0.47000000000E+01 0. -1.
        -13    1    6    6    0    0  0.19568591690E+01 -0.28726894760E+02  0.24074940750E+01  0.28893940681E+02  0.00000000000E+00 0.  1.
         14    1    6    6    0    0 -0.45972543906E+02  0.38535313654E+02  0.28777549606E+02  0.66532642762E+02  0.00000000000E+00 0. -1.
         -5    1    3    3    0  503  0.93893237168E+02 -0.25627740701E+02  0.36643111957E+02  0.10410345207E+03  0.47000000000E+01 0.  1.
         11    1    4    4    0    0  0.36518486675E+02  0.16572383967E+02  0.13032262388E+03  0.13635332806E+03  0.00000000000E+00 0. -1.
        -12    1    4    4    0    0  0.13628969807E+03 -0.60257703557E+02  0.23225580872E+03  0.27595041823E+03  0.00000000000E+00 0.  1.
</event>
<event>
12    1  0.1032880E+000  0.1889570E+03  0.7818608E-02  0.1159590E+00
         21   -1    0    0  503  502  0.00000000000E+00  0.00000000000E+00  0.13548083124E+04  0.13548083124E+04  0.00000000000E+00 0.  1.
         21   -1    0    0  501  503 -0.00000000000E+00 -0.00000000000E+00 -0.27159944576E+02  0.27159944576E+02  0.00000000000E+00 0.  1.
          6    2    1    2  501    0 -0.12258905456E+02 -0.75484494746E+02  0.78954418618E+03  0.81165181804E+03  0.17190247839E+03 0.  0.
         24    2    3    3    0    0  0.52093348323E+02 -0.63499745356E+02  0.40779561326E+03  0.42430325445E+03  0.83606548446E+02 0.  0.
         -6    2    1    2    0  502  0.12258905456E+02  0.75484494746E+02  0.53810418161E+03  0.57031643891E+03  0.17279045261E+03 0.  0.
        -24    2    5    5    0    0 -0.16773907817E+02  0.12894233407E+02  0.45566901261E+03  0.46271489547E+03  0.77609279113E+02 0.  0.
          5    1    3    3  501    0 -0.64352253779E+02 -0.11984749390E+02  0.38174857293E+03  0.38734856359E+03  0.47000000000E+01 0. -1.
        -11    1    4    4    0    0  0.23229021507E+01 -0.33944237793E+02  0.30023042070E+03  0.30215213497E+03  0.00000000000E+00 0.  1.
         12    1    4    4    0    0  0.49770446173E+02 -0.29555507563E+02  0.10756519256E+03  0.12215111948E+03  0.00000000000E+00 0. -1.
         -5    1    5    5    0  502  0.29032813273E+02  0.62590261339E+02  0.82435169005E+02  0.10760154344E+03  0.47000000000E+01 0.  1.
         11    1    6    6    0    0  0.26246399293E+02  0.22666763792E+02  0.24789159558E+03  0.25030561084E+03  0.00000000000E+00 0. -1.
        -12    1    6    6    0    0 -0.43020307110E+02 -0.97725303856E+01  0.20777741703E+03  0.21240928464E+03  0.00000000000E+00 0.  1.
</event>
<event>
12    1  0.1032880E+000  0.1900828E+03  0.7818608E-02  0.1158530E+00
         21   -1    0    0  503  502  0.00000000000E+00  0.00000000000E+00  0.14806713189E+03  0.14806713189E+03  0.00000000000E+00 0. -1.
         21   -1    0    0  501  503 -0.00000000000E+00 -0.00000000000E+00 -0.30976592175E+03  0.30976592175E+03  0.00000000000E+00 0. -1.
          6    2    1    2  501    0 -0.40199783586E+02  0.69092583007E+02  0.25367047001E+02  0.19114013027E+03  0.17175929290E+03 0.  0.
         24    2    3    3    0    0 -0.78136643002E+00  0.45525056588E+02 -0.47469561432E+02  0.10490497827E+03  0.81722419764E+02 0.  0.
         -6    2    1    2    0  502  0.40199783586E+02 -0.69092583007E+02 -0.18706583686E+03  0.26669292337E+03  0.17245776420E+03 0.  0.
        -24    2    5    5    0    0 -0.27137421633E+02 -0.82817143864E+02 -0.93588285071E+02  0.15057744006E+03  0.79496411125E+02 0.  0.
          5    1    3    3  501    0 -0.39418417156E+02  0.23567526418E+02  0.72836608433E+02  0.86235152001E+02  0.47000000000E+01 0. -1.
        -11    1    4    4    0    0  0.51565929204E+01 -0.23163270170E+02 -0.61026453493E+01  0.24502445098E+02  0.00000000000E+00 0.  1.
         12    1    4    4    0    0 -0.59379593504E+01  0.68688326758E+02 -0.41366916082E+02  0.80402533171E+02  0.00000000000E+00 0. -1.
         -5    1    5    5    0  502  0.67337205219E+02  0.13724560857E+02 -0.93477551786E+02  0.11611548331E+03  0.47000000000E+01 0.  1.
         13    1    6    6    0    0  0.19481807908E+02 -0.49214811278E+02 -0.71615443468E+02  0.89052850778E+02  0.00000000000E+00 0. -1.
        -14    1    6    6    0    0 -0.46619229541E+02 -0.33602332585E+02 -0.21972841603E+02  0.61524589282E+02  0.00000000000E+00 0.  1.
</event>
<event>
12    1  0.1032880E+000  0.2800914E+03  0.7818608E-02  0.1095729E+00
         21   -1    0    0  501  502  0.00000000000E+00  0.00000000000E+00  0.16736164428E+04  0.16736164428E+04  0.00000000000E+00 0.  1.
         21   -1    0    0  502  503 -0.00000000000E+00 -0.00000000000E+00 -0.53346765260E+02  0.53346765260E+02  0.00000000000E+00 0.  1.
         -6    2    1    2    0  503  0.19162135185E+03  0.10997619571E+03  0.11142662276E+04  0.11489301080E+04  0.17215592033E+03 0.  0.
        -24    2    3    3    0    0  0.63593885440E+02  0.94054301471E+02  0.31913942671E+03  0.34339099758E+03  0.56364968233E+02 0.  0.
          6    2    1    2  501    0 -0.19162135185E+03 -0.10997619571E+03  0.50600344996E+03  0.57803310011E+03  0.17108263310E+03 0.  0.
         24    2    5    5    0    0 -0.15458069112E+03 -0.14591858439E+03  0.42230286546E+03  0.47958644604E+03  0.80473757942E+02 0.  0.
          5    1    5    5  501    0 -0.37040660737E+02  0.35942388684E+02  0.83700584501E+02  0.98446654072E+02  0.47000000000E+01 0. -1.
        -11    1    6    6    0    0 -0.33994535567E+02 -0.11246610780E+02  0.26784751300E+02  0.44716189514E+02  0.00000000000E+00 0.  1.
         12    1    6    6    0    0 -0.12058615555E+03 -0.13467197361E+03  0.39551811416E+03  0.43487025653E+03  0.00000000000E+00 0. -1.
         -5    1    3    3    0  503  0.12802746641E+03  0.15921894237E+02  0.79512680090E+03  0.80553911040E+03  0.47000000000E+01 0.  1.
         13    1    4    4    0    0  0.10365134344E+02  0.31612303540E+02  0.16948767328E+03  0.17272187221E+03  0.00000000000E+00 0. -1.
        -14    1    4    4    0    0  0.53228751096E+02  0.62441997931E+02  0.14965175343E+03  0.17066912537E+03  0.00000000000E+00 0.  1.
</event>
<event>
12    1  0.1032880E+000  0.1812476E+03  0.7818608E-02  0.1167134E+00
         21   -1    0    0  503  502  0.00000000000E+00  0.00000000000E+00  0.26719262548E+02  0.26719262548E+02  0.00000000000E+00 0. -1.
         21   -1    0    0  501  503 -0.00000000000E+00 -0.00000000000E+00 -0.13149535801E+04  0.13149535801E+04  0.00000000000E+00 0. -1.
          6    2    1    2  501    0 -0.48836856911E+02 -0.30422123811E+02 -0.82583882926E+03  0.84502378124E+03  0.16954313534E+03 0.  0.
         24    2    3    3    0    0 -0.82069672275E+02  0.97080953758E+01 -0.58112368673E+03  0.59477901008E+03  0.96060675266E+02 0.  0.
         -6    2    1    2    0  502  0.48836856911E+02  0.30422123811E+02 -0.46239548833E+03  0.49664906145E+03  0.17187250623E+03 0.  0.
        -24    2    5    5    0    0  0.32658445904E+01 -0.14155080237E+02 -0.39714544508E+03  0.40530628708E+03  0.79609357254E+02 0.  0.
          5    1    3    3  501    0  0.33232815364E+02 -0.40130219187E+02 -0.24471514252E+03  0.25024477115E+03  0.47000000000E+01 0. -1.
        -11    1    4    4    0    0 -0.22616937134E+01 -0.24439603749E+01 -0.34904115179E+03  0.34905703523E+03  0.00000000000E+00 0.  1.
         12    1    4    4    0    0 -0.79807978562E+02  0.12152055751E+02 -0.23208253494E+03  0.24572197485E+03  0.00000000000E+00 0. -1.
         -5    1    5    5    0  502  0.45571012321E+02  0.44577204047E+02 -0.65250043255E+02  0.91342774369E+02  0.47000000000E+01 0.  1.
         13    1    6    6    0    0  0.40066374811E+02 -0.12131890671E+02 -0.25741801971E+03  0.26079979684E+03  0.00000000000E+00 0. -1.
        -14    1    6    6    0    0 -0.36800530221E+02 -0.20231895653E+01 -0.13972742537E+03  0.14450649024E+03  0.00000000000E+00 0.  1.
</event>
<event>
12    1  0.1032880E+000  0.2362461E+03  0.7818608E-02  0.1122532E+00
         21   -1    0    0  501  502  0.00000000000E+00  0.00000000000E+00  0.13557153762E+04  0.13557153762E+04  0.00000000000E+00 0. -1.
         21   -1    0    0  502  503 -0.00000000000E+00 -0.00000000000E+00 -0.48995891158E+02  0.48995891158E+02  0.00000000000E+00 0. -1.
         -6    2    1    2    0  503 -0.15578504709E+03  0.34937807970E+02  0.93941955080E+03  0.96866987040E+03  0.17413383953E+03 0.  0.
        -24    2    3    3    0    0 -0.67816041186E+02 -0.29229745932E+02  0.28227375357E+03  0.30254772710E+03  0.80020383218E+02 0.  0.
          6    2    1    2  501    0  0.15578504709E+03 -0.34937807970E+02  0.36729993425E+03  0.43604139696E+03  0.17243325330E+03 0.  0.
         24    2    5    5    0    0  0.12559446280E+03  0.39936153739E+02  0.24564919802E+03  0.28996411212E+03  0.79792182385E+02 0.  0.
          5    1    5    5  501    0  0.30190584299E+02 -0.74873961710E+02  0.12165073623E+03  0.14607728485E+03  0.47000000000E+01 0. -1.
        -11    1    6    6    0    0  0.80425029269E+02 -0.15972284958E+02  0.12364436949E+03  0.14836181896E+03  0.00000000000E+00 0.  1.
         12    1    6    6    0    0  0.45169433526E+02  0.55908438697E+02  0.12200482853E+03  0.14160229315E+03  0.00000000000E+00 0. -1.
         -5    1    3    3    0  503 -0.87969005908E+02  0.64167553903E+02  0.65714579723E+03  0.66612214330E+03  0.47000000000E+01 0.  1.
         13    1    4    4    0    0 -0.19154388655E+02  0.20229651975E+02  0.30148577768E+02  0.41049557430E+02  0.00000000000E+00 0. -1.
        -14    1    4    4    0    0 -0.48661652531E+02 -0.49459397907E+02  0.25212517580E+03  0.26149816967E+03  0.00000000000E+00 0.  1.
</event>
<event>
12    1  0.1032880E+000  0.4189975E+03  0.7818608E-02  0.1037500E+00
         21   -1    0    0  501  502  0.00000000000E+00  0.00000000000E+00  0.88000766645E+03  0.88000766645E+03  0.00000000000E+00 0.  1.
         21   -1    0    0  502  503 -0.00000000000E+00 -0.00000000000E+00 -0.30934812638E+03  0.30934812638E+03  0.00000000000E+00 0.  1.
         -6    2    1    2    0  503  0.20564507560E+03  0.31956856975E+03 -0.69759116239E+02  0.42476493711E+03  0.17647931778E+03 0.  0.
        -24    2    3    3    0    0  0.20817011390E+03  0.20152807345E+03 -0.56012219335E+02  0.30580695393E+03  0.80200770876E+02 0.  0.
          6    2    1    2  501    0 -0.20564507560E+03 -0.31956856975E+03  0.64041865630E+03  0.76459085573E+03  0.17334691640E+03 0.  0.
         24    2    5    5    0    0 -0.85442543461E+02 -0.83713427164E+02  0.28248808245E+03  0.31938002621E+03  0.88857854435E+02 0.  0.
          5    1    5    5  501    0 -0.12020253214E+03 -0.23585514259E+03  0.35793057386E+03  0.44521082952E+03  0.47000000000E+01 0. -1.
        -11    1    6    6    0    0 -0.10282404795E+03 -0.67214982525E+02  0.25404472027E+03  0.28218674421E+03  0.00000000000E+00 0.  1.
         12    1    6    6    0    0  0.17381504485E+02 -0.16498444639E+02  0.28443362181E+02  0.37193281998E+02  0.00000000000E+00 0. -1.
         -5    1    3    3    0  503 -0.25250383008E+01  0.11804049630E+03 -0.13746896904E+02  0.11895798317E+03  0.47000000000E+01 0.  1.
         13    1    4    4    0    0  0.13619133783E+03  0.14855241787E+03 -0.23212149736E+01  0.20154723861E+03  0.00000000000E+00 0. -1.
        -14    1    4    4    0    0  0.71978776073E+02  0.52975655585E+02 -0.53691004361E+02  0.10425971532E+03  0.00000000000E+00 0.  1.
</event>
<event>
12    1  0.1032880E+000  0.2639836E+03  0.7818608E-02  0.1105472E+00
         21   -1    0    0  501  502  0.00000000000E+00  0.00000000000E+00  0.59921698339E+03  0.59921698339E+03  0.00000000000E+00 0. -1.
         21   -1    0    0  502  503 -0.00000000000E+00 -0.00000000000E+00 -0.21669096036E+03  0.21669096036E+03  0.00000000000E+00 0. -1.
         -6    2    1    2    0  503  0.12338005389E+03  0.15748745407E+03 -0.88340446787E+02  0.27837271985E+03  0.17222775831E+03 0.  0.
        -24    2    3    3    0    0  0.15333663082E+03  0.10971144533E+03 -0.83938234538E+02  0.22161522708E+03  0.80740064841E+02 0.  0.
          6    2    1    2  501    0 -0.12338005389E+03 -0.15748745407E+03  0.47086646982E+03  0.53753522389E+03  0.16493619565E+03 0.  0.
         24    2    5    5    0    0 -0.22674509940E+02 -0.55867750846E+02  0.10839571360E+03  0.14782339474E+03  0.80416331177E+02 0.  0.
          5    1    5    5  501    0 -0.10070554395E+03 -0.10161970323E+03  0.36247075622E+03  0.38971182916E+03  0.47000000000E+01 0. -1.
        -13    1    6    6    0    0 -0.49097132811E+02 -0.24199862356E+02  0.82884342095E+02  0.99327619285E+02  0.00000000000E+00 0.  1.
         14    1    6    6    0    0  0.26422622871E+02 -0.31667888490E+02  0.25511371502E+02  0.48495775452E+02  0.00000000000E+00 0. -1.
         -5    1    3    3    0  503 -0.29956576928E+02  0.47776008746E+02 -0.44022122484E+01  0.56757492771E+02  0.47000000000E+01 0.  1.
         11    1    4    4    0    0  0.10140005592E+03  0.76505350237E+02 -0.95470274883E+02  0.15890126916E+03  0.00000000000E+00 0. -1.
        -12    1    4    4    0    0  0.51936574897E+02  0.33206095092E+02  0.11532040345E+02  0.62713957919E+02  0.00000000000E+00 0.  1.
</event>
<event>
12    1  0.1032880E+000  0.2328578E+03  0.7818608E-02  0.1124695E+00
         21   -1    0    0  503  502  0.00000000000E+00  0.00000000000E+00  0.30419790743E+03  0.30419790743E+03  0.00000000000E+00 0. -1.
         21   -1    0    0  501  503 -0.00000000000E+00 -0.00000000000E+00 -0.22035917782E+03  0.22035917782E+03  0.00000000000E+00 0. -1.
          6    2    1    2  501    0 -0.15609315846E+03  0.12941147442E+02  0.15685731768E+03  0.28051926644E+03  0.17191362168E+03 0.  0.
         24    2    3    3    0    0 -0.59933222496E+02  0.37627769521E+02  0.14486326703E+03  0.18040877825E+03  0.80957525515E+02 0.  0.
         -6    2    1    2    0  502  0.15609315846E+03 -0.12941147442E+02 -0.73018588067E+02  0.24403781881E+03  0.17230843099E+03 0.  0.
        -24    2    5    5    0    0  0.12469081819E+03  0.54074907177E+02 -0.55218934041E+02  0.16777395952E+03  0.81406849147E+02 0.  0.
          5    1    3    3  501    0 -0.96159935968E+02 -0.24686622079E+02  0.11994050646E+02  0.10011048819E+03  0.47000000000E+01 0. -1.
        -11    1    4    4    0    0 -0.43412965745E+01  0.37794310401E+02  0.18385422503E+02  0.42252579984E+02  0.00000000000E+00 0.  1.
         12    1    4    4    0    0 -0.55591925922E+02 -0.16654088065E+00  0.12647784453E+03  0.13815619827E+03  0.00000000000E+00 0. -1.
         -5    1    5    5    0  502  0.31402340276E+02 -0.67016054619E+02 -0.17799654026E+02  0.76263859298E+02  0.47000000000E+01 0.  1.
         11    1    6    6    0    0  0.41116494483E+02 -0.48392234997E+01  0.14666218089E+02  0.43921317782E+02  0.00000000000E+00 0. -1.
        -12    1    6    6    0    0  0.83574323705E+02  0.58914130677E+02 -0.69885152129E+02  0.12385264173E+03  0.00000000000E+00 0.  1.
</event>
<event>
12    1  0.1032880E+000  0.4784385E+03  0.7818608E-02  0.1019987E+00
         21   -1    0    0  501  502  0.00000000000E+00  0.00000000000E+00  0.13134300747E+04  0.13134300747E+04  0.00000000000E+00 0.  1.
         21   -1    0    0  502  503 -0.00000000000E+00 -0.00000000000E+00 -0.43572401534E+03  0.43572401534E+03  0.00000000000E+00 0.  1.
         -6    2    1    2    0  503 -0.25808179738E+03  0.36427403906E+03 -0.24256065807E+03  0.53099936906E+03  0.15434658219E+03 0.  0.
        -24    2    3    3    0    0 -0.24569283024E+03  0.25768043991E+03 -0.18730187091E+03  0.41020489302E+03  0.80136679872E+02 0.  0.
          6    2    1    2  501    0  0.25808179738E+03 -0.36427403906E+03  0.11202667175E+04  0.12181547210E+04  0.17205120279E+03 0.  0.
         24    2    5    5    0    0  0.15101420953E+03 -0.15052730892E+03  0.41042448206E+03  0.46912253066E+03  0.78510706826E+02 0.  0.
          5    1    5    5  501    0  0.10706758784E+03 -0.21374673014E+03  0.70984223541E+03  0.74903219036E+03  0.47000000000E+01 0. -1.
        -11    1    6    6    0    0  0.91739861745E+02 -0.37449465454E+02  0.19419234645E+03  0.21801222928E+03  0.00000000000E+00 0.  1.
         12    1    6    6    0    0  0.59274347788E+02 -0.11307784346E+03  0.21623213561E+03  0.25111030138E+03  0.00000000000E+00 0. -1.
         -5    1    3    3    0  503 -0.12388967135E+02  0.10659359915E+03 -0.55258787153E+02  0.12079447605E+03  0.47000000000E+01 0.  1.
         11    1    4    4    0    0 -0.82838930752E+02  0.74347461636E+02 -0.19337089048E+02  0.11297679635E+03  0.00000000000E+00 0. -1.
        -12    1    4    4    0    0 -0.16285389949E+03  0.18333297828E+03 -0.16796478187E+03  0.29722809667E+03  0.00000000000E+00 0.  1.
</event>
<event>
12    1  0.1032880E+000  0.1938875E+03  0.7818608E-02  0.1155330E+00
         21   -1    0    0  503  502  0.00000000000E+00  0.00000000000E+00  0.32845481862E+03  0.32845481862E+03  0.00000000000E+00 0. -1.
         21   -1    0    0  501  503 -0.00000000000E+00 -0.00000000000E+00 -0.16346644556E+03  0.16346644556E+03  0.00000000000E+00 0. -1.
          6    2    1    2  501    0 -0.23446175677E+02 -0.85644345924E+02  0.21815609053E+03  0.29087609037E+03  0.17068140780E+03 0.  0.
         24    2    3    3    0    0  0.10833299401E+02 -0.11893109844E+03  0.18021764311E+03  0.22968372077E+03  0.77551570889E+02 0.  0.
         -6    2    1    2    0  502  0.23446175677E+02  0.85644345924E+02 -0.53167717469E+02  0.20104517381E+03  0.17235915580E+03 0.  0.
        -24    2    5    5    0    0  0.56757062863E+02  0.29896451433E+02  0.16568299051E+02  0.10563739139E+03  0.82277505636E+02 0.  0.
          5    1    3    3  501    0 -0.34279475078E+02  0.33286752513E+02  0.37938447424E+02  0.61192369602E+02  0.47000000000E+01 0. -1.
        -11    1    4    4    0    0  0.23697885517E+01 -0.97958641692E+02  0.18230672714E+03  0.20697162641E+03  0.00000000000E+00 0.  1.
         12    1    4    4    0    0  0.84635108489E+01 -0.20972456744E+02 -0.20890840342E+01  0.22712094353E+02  0.00000000000E+00 0. -1.
         -5    1    5    5    0  502 -0.33310887185E+02  0.55747894491E+02 -0.69736016520E+02  0.95407782415E+02  0.47000000000E+01 0.  1.
         13    1    6    6    0    0 -0.14673968338E+02 -0.10183777784E+02  0.15614603659E+02  0.23724470999E+02  0.00000000000E+00 0. -1.
        -14    1    6    6    0    0  0.71431031201E+02  0.40080229217E+02  0.95369539194E+00  0.81912920394E+02  0.00000000000E+00 0.  1.
</event>
<event>
12    1  0.1032880E+000  0.1825591E+03  0.7818608E-02  0.1166576E+00
         21   -1    0    0  503  502  0.00000000000E+00  0.00000000000E+00  0.27091588505E+02  0.27091588505E+02  0.00000000000E+00 0.  1.
         21   -1    0    0  501  503 -0.00000000000E+00 -0.00000000000E+00 -0.12956909619E+04  0.12956909619E+04  0.00000000000E+00 0.  1.
          6    2    1    2  501    0  0.33583135344E+02 -0.45603425776E+02 -0.45926579942E+03  0.49421948729E+03  0.17355208924E+03 0.  0.
         24    2    3    3    0    0 -0.38722678505E-03  0.38528348866E+02 -0.27767280857E+03  0.29123152504E+03  0.78925147396E+02 0.  0.
         -6    2    1    2    0  502 -0.33583135344E+02  0.45603425776E+02 -0.80933357401E+03  0.82856306315E+03  0.16819160554E+03 0.  0.
        -24    2    5    5    0    0 -0.27067636289E+02 -0.22232316302E+02 -0.63713652402E+03  0.64331173750E+03  0.81731930948E+02 0.  0.
          5    1    3    3  501    0  0.33583522571E+02 -0.84131774642E+02 -0.18159299085E+03  0.20298796225E+03  0.47000000000E+01 0. -1.
        -13    1    4    4    0    0  0.17478828021E+02 -0.19174261821E+02 -0.60139501948E+02  0.65497491860E+02  0.00000000000E+00 0.  1.
         14    1    4    4    0    0 -0.17479215248E+02  0.57702610688E+02 -0.21753330662E+03  0.22573403318E+03  0.00000000000E+00 0. -1.
         -5    1    5    5    0  502 -0.65154990555E+01  0.67835742078E+02 -0.17219704999E+03  0.18525132565E+03  0.47000000000E+01 0.  1.
         11    1    6    6    0    0 -0.29693999918E+02  0.65696084769E+01 -0.82587000535E+02  0.88008556653E+02  0.00000000000E+00 0. -1.
        -12    1    6    6    0    0  0.26263636289E+01 -0.28801924779E+02 -0.55454952348E+03  0.55530318084E+03  0.00000000000E+00 0.  1.
</event>
<event>
12    1  0.1032880E+000  0.1931739E+03  0.7818608E-02  0.1156033E+00
         21   -1    0    0  503  502  0.00000000000E+00  0.00000000000E+00  0.45354895918E+02  0.45354895918E+02  0.00000000000E+00 0.  1.
         21   -1    0    0  501  503 -0.00000000000E+00 -0.00000000000E+00 -0.84062817097E+03  0.84062817097E+03  0.00000000000E+00 0.  1.
          6    2    1    2  501    0 -0.82288457153E+02 -0.23050759941E+01 -0.47675322072E+03  0.51440235608E+03  0.17475539167E+03 0.  0.
         24    2    3    3    0    0 -0.10349079269E+03  0.46901196646E+02 -0.37119454699E+03  0.39593075653E+03  0.77882641443E+02 0.  0.
         -6    2    1    2    0  502  0.82288457153E+02  0.23050759941E+01 -0.31852005434E+03  0.37158071081E+03  0.17274401893E+03 0.  0.
        -24    2    5    5    0    0  0.61877188243E+02  0.22963270990E+02 -0.77644531491E+02  0.12891532715E+03  0.78958153888E+02 0.  0.
          5    1    3    3  501    0  0.21202335533E+02 -0.49206272640E+02 -0.10555867373E+03  0.11847159954E+03  0.47000000000E+01 0. -1.
        -11    1    4    4    0    0 -0.67120367833E+02  0.32035571874E+02 -0.33274881427E+03  0.34095922783E+03  0.00000000000E+00 0.  1.
         12    1    4    4    0    0 -0.36370424853E+02  0.14865624772E+02 -0.38445732715E+02  0.54971528702E+02  0.00000000000E+00 0. -1.
         -5    1    5    5    0  502  0.20411268911E+02 -0.20658194996E+02 -0.24087552285E+03  0.24266538366E+03  0.47000000000E+01 0.  1.
         13    1    6    6    0    0  0.23481640707E+02  0.26083589421E+02 -0.82912589465E+02  0.90034652102E+02  0.00000000000E+00 0. -1.
        -14    1    6    6    0    0  0.38395547535E+02 -0.31203184304E+01  0.52680579741E+01  0.38880675052E+02  0.00000000000E+00 0.  1.
</event>
<event>
12    1  0.1032880E+000  0.2281715E+03  0.7818608E-02  0.1128081E+00
         21   -1    0    0  503  502  0.00000000000E+00  0.00000000000E+00  0.52658823819E+03  0.52658823819E+03  0.00000000000E+00 0.  1.
         21   -1    0    0  501  503 -0.00000000000E+00 -0.00000000000E+00 -0.10501299167E+03  0.10501299167E+03  0.00000000000E+00 0.  1.
          6    2    1    2  501    0  0.10656007636E+03  0.10392865295E+03  0.28902681547E+03  0.36772379928E+03  0.17183735833E+03 0.  0.
         24    2    3    3    0    0  0.14287130757E+03  0.97789427686E+02  0.23409083233E+03  0.30141959245E+03  0.77976087610E+02 0.  0.
         -6    2    1    2    0  502 -0.10656007636E+03 -0.10392865295E+03  0.13254843105E+03  0.26387743059E+03  0.17293350463E+03 0.  0.
        -24    2    5    5    0    0 -0.14105979451E+03 -0.98633619303E+02  0.95786915934E+02  0.21296803138E+03  0.80955497926E+02 0.  0.
          5    1    3    3  501    0 -0.36311231216E+02  0.61392252608E+01  0.54935983140E+02  0.66304206826E+02  0.47000000000E+01 0. -1.
        -11    1    4    4    0    0  0.46088575526E+02  0.57851937046E+01  0.23490841818E+02  0.52052328570E+02  0.00000000000E+00 0.  1.
         12    1    4    4    0    0  0.96782732046E+02  0.92004233981E+02  0.21059999051E+03  0.24936726388E+03  0.00000000000E+00 0. -1.
         -5    1    5    5    0  502  0.34499718151E+02 -0.52950336431E+01  0.36761515116E+02  0.50909399204E+02  0.47000000000E+01 0.  1.
         11    1    6    6    0    0 -0.22731560149E+02 -0.61879539587E+02  0.39759701464E+02  0.76984642019E+02  0.00000000000E+00 0. -1.
        -12    1    6    6    0    0 -0.11832823436E+03 -0.36754079716E+02  0.56027214470E+02  0.13598338937E+03  0.00000000000E+00 0.  1.
</event>
<event>
12    1  0.1032880E+000  0.2187056E+03  0.7818608E-02  0.1135127E+00
         21   -1    0    0  503  502  0.00000000000E+00  0.00000000000E+00  0.25807513357E+03  0.25807513357E+03  0.00000000000E+00 0. -1.
         21   -1    0    0  501  503 -0.00000000000E+00 -0.00000000000E+00 -0.19682627761E+03  0.19682627761E+03  0.00000000000E+00 0. -1.
          6    2    1    2  501    0  0.10212086225E+03 -0.90099200389E+02  0.88350147334E+02  0.23452307136E+03  0.16925952278E+03 0.  0.
         24    2    3    3    0    0  0.87376546517E+02 -0.86528303686E+02  0.12730077902E+03  0.19245897910E+03  0.75585462068E+02 0.  0.
         -6    2    1    2    0  502 -0.10212086225E+03  0.90099200389E+02 -0.27101291371E+02  0.22037833981E+03  0.17113034870E+03 0.  0.
        -24    2    5    5    0    0 -0.68384586908E+02  0.20960205988E+02 -0.73748312220E+02  0.13028743364E+03  0.80126274392E+02 0.  0.
          5    1    3    3  501    0  0.14744315733E+02 -0.35708967033E+01 -0.38950631685E+02  0.42064092268E+02  0.47000000000E+01 0. -1.
        -11    1    4    4    0    0  0.21901953058E+02 -0.73077833079E+02  0.55364016786E+02  0.94261548841E+02  0.00000000000E+00 0.  1.
         12    1    4    4    0    0  0.65474593459E+02 -0.13450470607E+02  0.71936762233E+02  0.98197430255E+02  0.00000000000E+00 0. -1.
         -5    1    5    5    0  502 -0.33736275342E+02  0.69138994401E+02  0.46647020849E+02  0.90090906172E+02  0.47000000000E+01 0.  1.
         11    1    6    6    0    0 -0.81121073180E+02  0.13507534329E+01 -0.68824381165E+02  0.10639195689E+03  0.00000000000E+00 0. -1.
        -12    1    6    6    0    0  0.12736486271E+02  0.19609452555E+02 -0.49239310552E+01  0.23895476749E+02  0.00000000000E+00 0.  1.
</event>
<event>
12    1  0.1032880E+000  0.3328026E+03  0.7818608E-02  0.1070026E+00
         21   -1    0    0  501  502  0.00000000000E+00  0.00000000000E+00  0.64358273758E+03  0.64358273758E+03  0.00000000000E+00 0. -1.
         21   -1    0    0  502  503 -0.00000000000E+00 -0.00000000000E+00 -0.18997314027E+03  0.18997314027E+03  0.00000000000E+00 0. -1.
         -6    2    1    2    0  503  0.28461701694E+03  0.54274142730E+01  0.35706145943E+03  0.48810907124E+03  0.17239859761E+03 0.  0.
        -24    2    3    3    0    0  0.15280584731E+03  0.61057292807E+01  0.29694261832E+03  0.34315732200E+03  0.78709098375E+02 0.  0.
          6    2    1    2  501    0 -0.28461701694E+03 -0.54274142730E+01  0.96548137876E+02  0.34544680661E+03  0.17022235491E+03 0.  0.
         24    2    5    5    0    0 -0.22644881267E+03 -0.64207808147E+02  0.70456523934E+02  0.25860478332E+03  0.80688318863E+02 0.  0.
          5    1    5    5  501    0 -0.58168204267E+02  0.58780393874E+02  0.26091613941E+02  0.86842023293E+02  0.47000000000E+01 0. -1.
        -13    1    6    6    0    0 -0.47585809017E+02 -0.50272140964E+02  0.15055343497E+02  0.70840389219E+02  0.00000000000E+00 0.  1.
         14    1    6    6    0    0 -0.17886300366E+03 -0.13935667183E+02  0.55401180437E+02  0.18776439410E+03  0.00000000000E+00 0. -1.
         -5    1    3    3    0  503  0.13181116963E+03 -0.67831500776E+00  0.60118841114E+02  0.14495174924E+03  0.47000000000E+01 0.  1.
         13    1    4    4    0    0  0.42577666597E+02  0.26260639607E+02  0.15155735657E+03  0.15959984717E+03  0.00000000000E+00 0. -1.
        -14    1    4    4    0    0  0.11022818072E+03 -0.20154910326E+02  0.14538526175E+03  0.18355747484E+03  0.00000000000E+00 0.  1.
</event>
<event>
12    1  0.1032880E+000  0.6967479E+03  0.7818608E-02  0.9722953E-01
         21   -1    0    0  503  502  0.00000000000E+00  0.00000000000E+00  0.90195831376E+03  0.90195831376E+03  0.00000000000E+00 0.  1.
         21   -1    0    0  501  503 -0.00000000000E+00 -0.00000000000E+00 -0.62882343158E+03  0.62882343158E+03  0.00000000000E+00 0. -1.
          6    2    1    2  501    0 -0.39527228268E+03 -0.54727978653E+03  0.42752570899E+03  0.81745691543E+03  0.17234336231E+03 0.  0.
         24    2    3    3    0    0 -0.10644785818E+03 -0.24265057096E+03  0.17012934377E+03  0.32502063935E+03  0.80523141355E+02 0.  0.
         -6    2    1    2    0  502  0.39527228268E+03  0.54727978653E+03 -0.15439082681E+03  0.71332482992E+03  0.17099837244E+03 0.  0.
        -24    2    5    5    0    0  0.23478119079E+03  0.24954016653E+03 -0.12757967976E+03  0.37399136635E+03  0.78743032419E+02 0.  0.
          5    1    3    3  501    0 -0.28882442450E+03 -0.30462921557E+03  0.25739636522E+03  0.49243627607E+03  0.47000000000E+01 0. -1.
        -11    1    4    4    0    0 -0.79712181564E+02 -0.20570819841E+03  0.17144759929E+03  0.27939966729E+03  0.00000000000E+00 0.  1.
         12    1    4    4    0    0 -0.26735676618E+02 -0.36942372557E+02 -0.13182555148E+01  0.45620972063E+02  0.00000000000E+00 0. -1.
         -5    1    5    5    0  502  0.16049109189E+03  0.29773961999E+03 -0.26811147056E+02  0.33933346357E+03  0.47000000000E+01 0.  1.
         11    1    6    6    0    0  0.53789591163E+02  0.45490835232E+02 -0.61103928841E+02  0.93254631667E+02  0.00000000000E+00 0. -1.
        -12    1    6    6    0    0  0.18099159963E+03  0.20404933130E+03 -0.66475750917E+02  0.28073673468E+03  0.00000000000E+00 0.  1.
</event>
<event>
12    1  0.1032880E+000  0.2081775E+03  0.7818608E-02  0.1143314E+00
         21   -1    0    0  503  502  0.00000000000E+00  0.00000000000E+00  0.31613519173E+02  0.31613519173E+02  0.00000000000E+00 0.  1.
         21   -1    0    0  501  503 -0.00000000000E+00 -0.00000000000E+00 -0.14548265377E+04  0.14548265377E+04  0.00000000000E+00 0.  1.
          6    2    1    2  501    0  0.30324926429E+02 -0.11107852221E+03 -0.52067748229E+03  0.56020667455E+03  0.17166373640E+03 0.  0.
         24    2    3    3    0    0 -0.26173821504E+02 -0.75832142782E+02 -0.19390105392E+03  0.22668105348E+03  0.85738547232E+02 0.  0.
         -6    2    1    2    0  502 -0.30324926429E+02  0.11107852221E+03 -0.90253553626E+03  0.92623338234E+03  0.17343542052E+03 0.  0.
        -24    2    5    5    0    0 -0.73643991635E+02  0.28009454370E+02 -0.46760679878E+03  0.48130405298E+03  0.82398459383E+02 0.  0.
          5    1    3    3  501    0  0.56498747932E+02 -0.35246379426E+02 -0.32677642836E+03  0.33352562108E+03  0.47000000000E+01 0. -1.
        -11    1    4    4    0    0  0.36750179806E+01 -0.64499188943E+02 -0.57155913086E+02  0.86258040391E+02  0.00000000000E+00 0.  1.
         12    1    4    4    0    0 -0.29848839484E+02 -0.11332953839E+02 -0.13674514084E+03  0.14042301308E+03  0.00000000000E+00 0. -1.
         -5    1    5    5    0  502  0.43319065207E+02  0.83069067838E+02 -0.43492873748E+03  0.44492932936E+03  0.47000000000E+01 0.  1.
         11    1    6    6    0    0  0.13460750709E+02 -0.10577832597E+02 -0.46397503269E+02  0.49455137869E+02  0.00000000000E+00 0. -1.
        -12    1    6    6    0    0 -0.87104742345E+02  0.38587286967E+02 -0.42120929551E+03  0.43184891511E+03  0.00000000000E+00 0.  1.
</event>
<event>
12    1  0.1032880E+000  0.1846303E+03  0.7818608E-02  0.1163860E+00
         21   -1    0    0  503  502  0.00000000000E+00  0.00000000000E+00  0.38365007574E+03  0.38365007574E+03  0.00000000000E+00 0. -1.
         21   -1    0    0  501  503 -0.00000000000E+00 -0.00000000000E+00 -0.87915216265E+02  0.87915216265E+02  0.00000000000E+00 0. -1.
          6    2    1    2  501    0  0.34882399630E+02 -0.51703855317E+02  0.14464192296E+03  0.23299155447E+03  0.17167908468E+03 0.  0.
         24    2    3    3    0    0 -0.39384508579E+02 -0.45590489404E+02  0.11359264374E+03  0.15212688581E+03  0.81299867358E+02 0.  0.
         -6    2    1    2    0  502 -0.34882399630E+02  0.51703855317E+02  0.15109293651E+03  0.23857373754E+03  0.17377652983E+03 0.  0.
        -24    2    5    5    0    0 -0.43229616585E+02  0.99244990896E+01  0.11360065660E+02  0.92414386710E+02  0.80274979582E+02 0.  0.
          5    1    3    3  501    0  0.74266908209E+02 -0.61133659135E+01  0.31049279218E+02  0.80864668661E+02  0.47000000000E+01 0. -1.
        -11    1    4    4    0    0 -0.46441640510E+01  0.41279497857E+01  0.84728112019E+02  0.84955642517E+02  0.00000000000E+00 0.  1.
         12    1    4    4    0    0 -0.34740344528E+02 -0.49718439189E+02  0.28864531724E+02  0.67171243289E+02  0.00000000000E+00 0. -1.
         -5    1    5    5    0  502  0.83472169551E+01  0.41779356227E+02  0.13973287085E+03  0.14615935083E+03  0.47000000000E+01 0.  1.
         11    1    6    6    0    0 -0.40250409317E+02 -0.16955526739E+02  0.35407121687E+02  0.56224990914E+02  0.00000000000E+00 0. -1.
        -12    1    6    6    0    0 -0.29792072680E+01  0.26880025829E+02 -0.24047056027E+02  0.36189395795E+02  0.00000000000E+00 0.  1.
</event>
<event>
12    1  0.1032880E+000  0.3720621E+03  0.7818608E-02  0.1053975E+00
         21   -1    0    0  503  502  0.00000000000E+00  0.00000000000E+00  0.11647179404E+03  0.11647179404E+03  0.00000000000E+00 0. -1.
         21   -1    0    0  501  503 -0.00000000000E+00 -0.00000000000E+00 -0.12019788673E+04  0.12019788673E+04  0.00000000000E+00 0.  1.
          6    2    1    2  501    0 -0.80346277897E+02 -0.31954977738E+03 -0.46789853686E+03  0.59779530745E+03  0.17280799813E+03 0.  0.
         24    2    3    3    0    0 -0.79189599826E+02 -0.24274456264E+03 -0.44111303957E+03  0.51630953090E+03  0.82455458326E+02 0.  0.
         -6    2    1    2    0  502  0.80346277897E+02  0.31954977738E+03 -0.61760853638E+03  0.72065535387E+03  0.17127828310E+03 0.  0.
        -24    2    5    5    0    0  0.12183149611E+03  0.24162825559E+03 -0.44443396728E+03  0.52622205356E+03  0.78491853298E+02 0.  0.
          5    1    3    3  501    0 -0.11566780714E+01 -0.76805214731E+02 -0.26785497291E+02  0.81485776545E+02  0.47000000000E+01 0. -1.
        -11    1    4    4    0    0 -0.20382936597E+02 -0.72995026460E+02 -0.21215688710E+03  0.22528711179E+03  0.00000000000E+00 0.  1.
         12    1    4    4    0    0 -0.58806663228E+02 -0.16974953618E+03 -0.22895615247E+03  0.29102241911E+03  0.00000000000E+00 0. -1.
         -5    1    5    5    0  502 -0.41485218214E+02  0.77921521783E+02 -0.17317456909E+03  0.19443330031E+03  0.47000000000E+01 0.  1.
         13    1    6    6    0    0  0.47660146372E+02  0.17343968225E+03 -0.26169372741E+03  0.31754750810E+03  0.00000000000E+00 0. -1.
        -14    1    6    6    0    0  0.74171349739E+02  0.68188573337E+02 -0.18274023987E+03  0.20867454546E+03  0.00000000000E+00 0.  1.
</event>
<event>
12    1  0.1032880E+000  0.2213892E+03  0.7818608E-02  0.1132860E+00
         21   -1    0    0  503  502  0.00000000000E+00  0.00000000000E+00  0.12349573709E+03  0.12349573709E+03  0.00000000000E+00 0. -1.
         21   -1    0    0  501  503 -0.00000000000E+00 -0.00000000000E+00 -0.43059855985E+03  0.43059855985E+03  0.00000000000E+00 0. -1.
          6    2    1    2  501    0 -0.11189271568E+03  0.82293756854E+02 -0.75915753552E+02  0.23399955593E+03  0.17233788990E+03 0.  0.
         24    2    3    3    0    0 -0.58086880147E+02  0.10555703936E+03 -0.93534297505E+02  0.17260939921E+03  0.80802015325E+02 0.  0.
         -6    2    1    2    0  502  0.11189271568E+03 -0.82293756854E+02 -0.23118706921E+03  0.32009474101E+03  0.17239762184E+03 0.  0.
        -24    2    5    5    0    0  0.11283401310E+03 -0.76065462209E+02 -0.25215082877E+03  0.29770619684E+03  0.80817511323E+02 0.  0.
          5    1    3    3  501    0 -0.53805835537E+02 -0.23263282510E+02  0.17618543953E+02  0.61390156720E+02  0.47000000000E+01 0. -1.
        -13    1    4    4    0    0 -0.69292648401E+02  0.58140219646E+02 -0.36351759115E+02  0.97484391846E+02  0.00000000000E+00 0.  1.
         14    1    4    4    0    0  0.11205768253E+02  0.47416819718E+02 -0.57182538391E+02  0.75125007362E+02  0.00000000000E+00 0. -1.
         -5    1    5    5    0  502 -0.94129741486E+00 -0.62282946454E+01  0.20963759563E+02  0.22388544169E+02  0.47000000000E+01 0.  1.
         11    1    6    6    0    0  0.34010843917E+02 -0.24286162422E+02 -0.16177053243E+03  0.16708159789E+03  0.00000000000E+00 0. -1.
        -12    1    6    6    0    0  0.78823169182E+02 -0.51779299786E+02 -0.90380296337E+02  0.13062459896E+03  0.00000000000E+00 0.  1.
</event>
<event>
12    1  0.1032880E+000  0.2874255E+03  0.7818608E-02  0.1091787E+00
         21   -1    0    0  501  502  0.00000000000E+00  0.00000000000E+00  0.61405552007E+02  0.61405552007E+02  0.00000000000E+00 0. -1.
         21   -1    0    0  502  503 -0.00000000000E+00 -0.00000000000E+00 -0.14674917053E+04  0.14674917053E+04  0.00000000000E+00 0. -1.
         -6    2    1    2    0  503 -0.14670444985E+03  0.17406427783E+03 -0.47907318974E+03  0.55834768132E+03  0.17441457419E+03 0.  0.
        -24    2    3    3    0    0 -0.16655313677E+03  0.10078102362E+03 -0.34973136775E+03  0.40829501511E+03  0.80597938490E+02 0.  0.
          6    2    1    2  501    0  0.14670444985E+03 -0.17406427783E+03 -0.92701296355E+03  0.97054957598E+03  0.17547899142E+03 0.  0.
         24    2    5    5    0    0  0.13871085928E+03 -0.17718850007E+03 -0.93012532517E+03  0.96028141891E+03  0.79817391261E+02 0.  0.
          5    1    5    5  501    0  0.79935905687E+01  0.31242222404E+01  0.31123616188E+01  0.10268157071E+02  0.47000000000E+01 0. -1.
        -13    1    6    6    0    0  0.83854117185E+02 -0.49492250102E+02 -0.31781240761E+03  0.33239392627E+03  0.00000000000E+00 0.  1.
         14    1    6    6    0    0  0.54856742093E+02 -0.12769624996E+03 -0.61231291755E+03  0.62788749264E+03  0.00000000000E+00 0. -1.
         -5    1    3    3    0  503  0.19848686927E+02  0.73283254210E+02 -0.12934182199E+03  0.15005266621E+03  0.47000000000E+01 0.  1.
         13    1    4    4    0    0 -0.34878095363E+02  0.12494406213E+02 -0.19238654760E+02  0.41745868775E+02  0.00000000000E+00 0. -1.
        -14    1    4    4    0    0 -0.13167504141E+03  0.88286617403E+02 -0.33049271299E+03  0.36654914634E+03  0.00000000000E+00 0.  1.
</event>
<event>
12    1  0.1032880E+000  0.2751750E+03  0.7818608E-02  0.1098446E+00
         21   -1    0    0  501  502  0.00000000000E+00  0.00000000000E+00  0.56187835641E+02  0.56187835641E+02  0.00000000000E+00 0.  1.
         21   -1    0    0  502  503 -0.00000000000E+00 -0.00000000000E+00 -0.15401787265E+04  0.15401787265E+04  0.00000000000E+00 0.  1.
         -6    2    1    2    0  503 -0.20786105408E+03 -0.51802063145E+02 -0.45820176930E+03  0.53448119747E+03  0.17271831837E+03 0.  0.
        -24    2    3    3    0    0 -0.21148112157E+03 -0.27409122337E+02 -0.31072903501E+03  0.38488702041E+03  0.78166236387E+02 0.  0.
          6    2    1    2  501    0  0.20786105408E+03  0.51802063145E+02 -0.10257891215E+04  0.10618853647E+04  0.17166110294E+03 0.  0.
         24    2    5    5    0    0  0.22520036999E+03  0.64006859329E+02 -0.98465334091E+03  0.10153681488E+04  0.81352265362E+02 0.  0.
          5    1    5    5  501    0 -0.17339315916E+02 -0.12204796184E+02 -0.41135780625E+02  0.46517215888E+02  0.47000000000E+01 0. -1.
        -13    1    6    6    0    0  0.89593136173E+02  0.67532960194E+02 -0.44299187851E+03  0.45697859379E+03  0.00000000000E+00 0.  1.
         14    1    6    6    0    0  0.13560723382E+03 -0.35261008649E+01 -0.54166146240E+03  0.55838955497E+03  0.00000000000E+00 0. -1.
         -5    1    3    3    0  503  0.36200674925E+01 -0.24392940808E+02 -0.14747273429E+03  0.14959417706E+03  0.47000000000E+01 0.  1.
         13    1    4    4    0    0 -0.19192085948E+03 -0.40381701600E+02 -0.23762225968E+03  0.30810491139E+03  0.00000000000E+00 0. -1.
        -14    1    4    4    0    0 -0.19560262093E+02  0.12972579263E+02 -0.73106775334E+02  0.76782109020E+02  0.00000000000E+00 0.  1.
</event>
<event>
12    1  0.1032880E+000  0.2217127E+03  0.7818608E-02  0.1134939E+00
         21   -1    0    0  501  502  0.00000000000E+00  0.00000000000E+00  0.88945445985E+02  0.88945445985E+02  0.00000000000E+00 0.  1.
         21   -1    0    0  502  503 -0.00000000000E+00 -0.00000000000E+00 -0.76362266427E+03  0.76362266427E+03  0.00000000000E+00 0.  1.
         -6    2    1    2    0  503  0.11530132718E+03 -0.73621249766E+02 -0.57021799505E+03  0.60747984019E+03  0.15864649347E+03 0.  0.
        -24    2    3    3    0    0  0.22610329141E+01 -0.24917609090E+02 -0.25542464204E+03  0.26944567351E+03  0.82056222796E+02 0.  0.
          6    2    1    2  501    0 -0.11530132718E+03  0.73621249766E+02 -0.10445922324E+03  0.24508827006E+03  0.17447649222E+03 0.  0.
         24    2    5    5    0    0 -0.14369492019E+03  0.30698576539E+02 -0.62328329028E+02  0.17841253049E+03  0.79721877462E+02 0.  0.
          5    1    5    5  501    0  0.28393593009E+02  0.42922673227E+02 -0.42130894207E+02  0.66675739573E+02  0.47000000000E+01 0. -1.
        -11    1    6    6    0    0 -0.87561326563E+02 -0.92615320064E+01 -0.65021456818E+02  0.10945570671E+03  0.00000000000E+00 0.  1.
         12    1    6    6    0    0 -0.56133593630E+02  0.39960108545E+02  0.26931277896E+01  0.68956823782E+02  0.00000000000E+00 0. -1.
         -5    1    3    3    0  503  0.11304029427E+03 -0.48703640676E+02 -0.31479335301E+03  0.33803416668E+03  0.47000000000E+01 0.  1.
         11    1    4    4    0    0  0.36679202773E+02  0.83389240724E+01 -0.12388446289E+03  0.12946915353E+03  0.00000000000E+00 0. -1.
        -12    1    4    4    0    0 -0.34418169859E+02 -0.33256533163E+02 -0.13154017915E+03  0.13997651998E+03  0.00000000000E+00 0.  1.
</event>
<event>
12    1  0.1032880E+000  0.1893000E+03  0.7818608E-02  0.1160394E+00
         21   -1    0    0  501  502  0.00000000000E+00  0.00000000000E+00  0.10616229454E+04  0.10616229454E+04  0.00000000000E+00 0. -1.
         21   -1    0    0  502  503 -0.00000000000E+00 -0.00000000000E+00 -0.45289912075E+02  0.45289912075E+02  0.00000000000E+00 0. -1.
         -6    2    1    2    0  503  0.70393912399E+02 -0.17948744521E+02  0.22259083649E+03  0.29220055527E+03  0.17480567405E+03 0.  0.
        -24    2    3    3    0    0 -0.56942645595E+01  0.48073932990E+02  0.94324241501E+02  0.12903556513E+03  0.73549893618E+02 0.  0.
          6    2    1    2  501    0 -0.70393912399E+02  0.17948744521E+02  0.79374219686E+03  0.81471230223E+03  0.16867720650E+03 0.  0.
         24    2    5    5    0    0 -0.87475531637E+02 -0.25767848002E+02  0.39172709922E+03  0.40993934005E+03  0.79272893434E+02 0.  0.
          5    1    5    5  501    0  0.17081619238E+02  0.43716592523E+02  0.40201509765E+03  0.40477296218E+03  0.47000000000E+01 0. -1.
        -11    1    6    6    0    0 -0.15825953088E+01 -0.31952559858E+02  0.14880138039E+03  0.15220158178E+03  0.00000000000E+00 0.  1.
         12    1    6    6    0    0 -0.85892936328E+02  0.61847118559E+01  0.24292571883E+03  0.25773775827E+03  0.00000000000E+00 0. -1.
         -5    1    3    3    0  503  0.76088176959E+02 -0.66022677511E+02  0.12826659498E+03  0.16316499014E+03  0.47000000000E+01 0.  1.
         11    1    4    4    0    0  0.92562402533E+01  0.27696578488E+02  0.99101446737E+02  0.10331444811E+03  0.00000000000E+00 0. -1.
        -12    1    4    4    0    0 -0.14950504813E+02  0.20377354502E+02 -0.47772052353E+01  0.25721117015E+02  0.00000000000E+00 0.  1.
</event>
<event>
12    1  0.1032880E+000  0.2471851E+03  0.7818608E-02  0.1115688E+00
         21   -1    0    0  501  502  0.00000000000E+00  0.00000000000E+00  0.67402537615E+02  0.67402537615E+02  0.00000000000E+00 0. -1.
         21   -1    0    0  502  503 -0.00000000000E+00 -0.00000000000E+00 -0.90052171434E+03  0.90052171434E+03  0.00000000000E+00 0.  1.
         -6    2    1    2    0  503 -0.68925509952E+02  0.16069889725E+03 -0.45730181447E+03  0.51810300941E+03  0.16950196854E+03 0.  0.
        -24    2    3    3    0    0 -0.80668942635E+02  0.10785263973E+03 -0.42936649019E+03  0.45700384830E+03  0.79732454252E+02 0.  0.
          6    2    1    2  501    0  0.68925509952E+02 -0.16069889725E+03 -0.37581736225E+03  0.44982124254E+03  0.17471576624E+03 0.  0.
         24    2    5    5    0    0  0.19491554717E+02 -0.15073066962E+03 -0.19217991764E+03  0.25932745641E+03  0.84958539502E+02 0.  0.
          5    1    5    5  501    0  0.49433955235E+02 -0.99682276313E+01 -0.18363744461E+03  0.19049378613E+03  0.47000000000E+01 0. -1.
        -11    1    6    6    0    0  0.20569955942E+02 -0.10639113852E+03 -0.18499686923E+03  0.21439691944E+03  0.00000000000E+00 0.  1.
         12    1    6    6    0    0 -0.10784012251E+01 -0.44339531107E+02 -0.71830484149E+01  0.44930536971E+02  0.00000000000E+00 0. -1.
         -5    1    3    3    0  503  0.11743432683E+02  0.52846257522E+02 -0.27935324279E+02  0.61099161106E+02  0.47000000000E+01 0.  1.
         11    1    4    4    0    0 -0.14681760568E+02  0.57051860346E+02 -0.89977789206E+02  0.10754753095E+03  0.00000000000E+00 0. -1.
        -12    1    4    4    0    0 -0.65987182067E+02  0.50800779386E+02 -0.33938870099E+03  0.34945631736E+03  0.00000000000E+00 0.  1.
</event>
<event>
12    1  0.1032880E+000  0.3069475E+03  0.7818608E-02  0.1081893E+00
         21   -1    0    0  501  502  0.00000000000E+00  0.00000000000E+00  0.85025218583E+03  0.85025218583E+03  0.00000000000E+00 0. -1.
         21   -1    0    0  502  503 -0.00000000000E+00 -0.00000000000E+00 -0.17543754596E+03  0.17543754596E+03  0.00000000000E+00 0.  1.
         -6    2    1    2    0  503  0.12795194529E+03  0.21877169384E+03  0.25397451625E+02  0.30738655097E+03  0.17207180722E+03 0.  0.
        -24    2    3    3    0    0  0.65841304456E+02  0.31484164629E+02  0.14577218285E+02  0.10971632623E+03  0.80615426269E+02 0.  0.
          6    2    1    2  501    0 -0.12795194529E+03 -0.21877169384E+03  0.64941718824E+03  0.71830318082E+03  0.17315894680E+03 0.  0.
         24    2    5    5    0    0 -0.80602832737E+02 -0.22926560737E+03  0.57439119966E+03  0.62884341531E+03  0.80369492795E+02 0.  0.
          5    1    5    5  501    0 -0.47349112548E+02  0.10493913532E+02  0.75025988588E+02  0.89459765503E+02  0.47000000000E+01 0. -1.
        -11    1    6    6    0    0  0.12444239015E+02 -0.59321636049E+02  0.10873170769E+03  0.12448493822E+03  0.00000000000E+00 0.  1.
         12    1    6    6    0    0 -0.93047071752E+02 -0.16994397132E+03  0.46565949197E+03  0.50435847709E+03  0.00000000000E+00 0. -1.
         -5    1    3    3    0  503  0.62110640829E+02  0.18728752921E+03  0.10820233339E+02  0.19767022474E+03  0.47000000000E+01 0.  1.
         11    1    4    4    0    0 -0.57534260446E+01  0.34145565543E+02  0.15800984535E+02  0.38061695571E+02  0.00000000000E+00 0. -1.
        -12    1    4    4    0    0  0.71594730501E+02 -0.26614009134E+01 -0.12237662497E+01  0.71654630654E+02  0.00000000000E+00 0.  1.
</event>
<event>
12    1  0.1032880E+000  0.2284505E+03  0.7818608E-02  0.1128103E+00
         21   -1    0    0  503  502  0.00000000000E+00  0.00000000000E+00  0.78805763911E+02  0.78805763911E+02  0.00000000000E+00 0.  1.
         21   -1    0    0  501  503 -0.00000000000E+00 -0.00000000000E+00 -0.68368394113E+03  0.68368394113E+03  0.00000000000E+00 0.  1.
          6    2    1    2  501    0 -0.88868111836E+02 -0.11615771102E+03 -0.22480652473E+03  0.31904402033E+03  0.17280323554E+03 0.  0.
         24    2    3    3    0    0 -0.10101595618E+03 -0.56098164433E+02 -0.21292861996E+03  0.25645093859E+03  0.84126447999E+02 0.  0.
         -6    2    1    2    0  502  0.88868111836E+02  0.11615771102E+03 -0.38007165249E+03  0.44344568471E+03  0.17549774681E+03 0.  0.
        -24    2    5    5    0    0  0.12075836005E+03  0.11994448394E+03 -0.35721683863E+03  0.40374983988E+03  0.80254611431E+02 0.  0.
          5    1    3    3  501    0  0.12147844347E+02 -0.60059546589E+02 -0.11877904775E+02  0.62593081731E+02  0.47000000000E+01 0. -1.
        -13    1    4    4    0    0  0.11923631952E+02  0.29978582377E+01 -0.66797747773E+01  0.13992124357E+02  0.00000000000E+00 0.  1.
         14    1    4    4    0    0 -0.11293958813E+03 -0.59096022670E+02 -0.20624884518E+03  0.24245881424E+03  0.00000000000E+00 0. -1.
         -5    1    5    5    0  502 -0.31890248215E+02 -0.37867729207E+01 -0.22854813860E+02  0.39695844832E+02  0.47000000000E+01 0.  1.
         11    1    6    6    0    0  0.94021824270E+02  0.59612548993E+02 -0.15356665054E+03  0.18967465722E+03  0.00000000000E+00 0. -1.
        -12    1    6    6    0    0  0.26736535781E+02  0.60331934949E+02 -0.20365018809E+03  0.21407518266E+03  0.00000000000E+00 0.  1.
</event>
<event>
12    1  0.1032880E+000  0.2419268E+03  0.7818608E-02  0.1118657E+00
         21   -1    0    0  501  502  0.00000000000E+00  0.00000000000E+00  0.18935203997E+03  0.18935203997E+03  0.00000000000E+00 0. -1.
         21   -1    0    0  502  503 -0.00000000000E+00 -0.00000000000E+00 -0.42367640060E+03  0.42367640060E+03  0.00000000000E+00 0. -1.
         -6    2    1    2    0  503 -0.14194519831E+03  0.87718539720E+02  0.42841571263E+02  0.24569079159E+03  0.17517300965E+03 0.  0.
        -24    2    3    3    0    0 -0.83211657277E+02 -0.20550663478E+02  0.34617056638E+02  0.12215301662E+03  0.79853047424E+02 0.  0.
          6    2    1    2  501    0  0.14194519831E+03 -0.87718539720E+02 -0.27716593190E+03  0.36733764898E+03  0.17399141652E+03 0.  0.
         24    2    5    5    0    0  0.12131784196E+03 -0.16349117584E+00 -0.20936285389E+03  0.25459581228E+03  0.79171822860E+02 0.  0.
          5    1    5    5  501    0  0.20627356352E+02 -0.87555048544E+02 -0.67803078008E+02  0.11274183670E+03  0.47000000000E+01 0. -1.
        -13    1    6    6    0    0  0.14811887716E+02  0.30166392257E+02 -0.58259322142E+02  0.67257355404E+02  0.00000000000E+00 0.  1.
         14    1    6    6    0    0  0.10650595424E+03 -0.30329883432E+02 -0.15110353175E+03  0.18733845688E+03  0.00000000000E+00 0. -1.
         -5    1    3    3    0  503 -0.58733541035E+02  0.10826920320E+03  0.82245146253E+01  0.12353777497E+03  0.47000000000E+01 0.  1.
         13    1    4    4    0    0 -0.78240990551E+02  0.81509996591E+01  0.45713070159E+02  0.90982284986E+02  0.00000000000E+00 0. -1.
        -14    1    4    4    0    0 -0.49706667253E+01 -0.28701663137E+02 -0.11096013521E+02  0.31170731634E+02  0.00000000000E+00 0.  1.
</event>
<event>
12    1  0.1032880E+000  0.3484492E+03  0.7818608E-02  0.1063526E+00
         21   -1    0    0  503  502  0.00000000000E+00  0.00000000000E+00  0.12973713279E+03  0.12973713279E+03  0.00000000000E+00 0.  1.
         21   -1    0    0  501  503 -0.00000000000E+00 -0.00000000000E+00 -0.99693132999E+03  0.99693132999E+03  0.00000000000E+00 0.  1.
          6    2    1    2  501    0  0.19736221764E+03 -0.22998685950E+03 -0.58237639607E+03  0.67865979183E+03  0.17196233846E+03 0.  0.
         24    2    3    3    0    0  0.21937379634E+03 -0.21478309755E+03 -0.51280518884E+03  0.60397440604E+03  0.86944119631E+02 0.  0.
         -6    2    1    2    0  502 -0.19736221764E+03  0.22998685950E+03 -0.28481780113E+03  0.44800867095E+03  0.16656767067E+03 0.  0.
        -24    2    5    5    0    0 -0.12177451352E+03  0.18009950116E+03 -0.27106706402E+03  0.35628396158E+03  0.78714964443E+02 0.  0.
          5    1    3    3  501    0 -0.22011578702E+02 -0.15203761951E+02 -0.69571207229E+02  0.74685385784E+02  0.47000000000E+01 0. -1.
        -13    1    4    4    0    0  0.83656063495E+02 -0.10866254794E+03 -0.15568312889E+03  0.20746836604E+03  0.00000000000E+00 0.  1.
         14    1    4    4    0    0  0.13571773285E+03 -0.10612054961E+03 -0.35712205995E+03  0.39650604001E+03  0.00000000000E+00 0. -1.
         -5    1    5    5    0  502 -0.75587704122E+02  0.49887358346E+02 -0.13750737107E+02  0.91724709366E+02  0.47000000000E+01 0.  1.
         13    1    6    6    0    0 -0.56227727288E+02  0.89440646865E+02 -0.71718842441E+02  0.12769016794E+03  0.00000000000E+00 0. -1.
        -14    1    6    6    0    0 -0.65546786228E+02  0.90658854294E+02 -0.19934822158E+03  0.22859379364E+03  0.00000000000E+00 0.  1.
</event>
<event>
12    1  0.1032880E+000  0.1850626E+03  0.7818608E-02  0.1163012E+00
         21   -1    0    0  503  502  0.00000000000E+00  0.00000000000E+00  0.13318232205E+03  0.13318232205E+03  0.00000000000E+00 0. -1.
         21   -1    0    0  501  503 -0.00000000000E+00 -0.00000000000E+00 -0.26669947564E+03  0.26669947564E+03  0.00000000000E+00 0. -1.
          6    2    1    2  501    0 -0.43930620528E+02  0.55062131241E+02 -0.10481001776E+03  0.21260588379E+03  0.17103913086E+03 0.  0.
         24    2    3    3    0    0 -0.68450299147E+02 -0.16070815292E+00 -0.10853074817E+03  0.15188759606E+03  0.81273914999E+02 0.  0.
         -6    2    1    2    0  502  0.43930620528E+02 -0.55062131241E+02 -0.28707135835E+02  0.18727591389E+03  0.17113278634E+03 0.  0.
        -24    2    5    5    0    0  0.23089310284E+02 -0.39575562256E+02  0.50365643886E+02  0.10391652016E+03  0.78502252833E+02 0.  0.
          5    1    3    3  501    0  0.24519678619E+02  0.55222839393E+02  0.37207304129E+01  0.60718287732E+02  0.47000000000E+01 0. -1.
        -11    1    4    4    0    0 -0.60391776166E+02  0.19621870504E+02 -0.29493468902E+02  0.70014635173E+02  0.00000000000E+00 0.  1.
         12    1    4    4    0    0 -0.80585229806E+01 -0.19782578657E+02 -0.79037279267E+02  0.81872960890E+02  0.00000000000E+00 0. -1.
         -5    1    5    5    0  502  0.20841310243E+02 -0.15486568984E+02 -0.79072779721E+02  0.83359393738E+02  0.47000000000E+01 0.  1.
         11    1    6    6    0    0 -0.15510430380E+02  0.13806808783E+02  0.26908008835E+02  0.33988856392E+02  0.00000000000E+00 0. -1.
        -12    1    6    6    0    0  0.38599740665E+02 -0.53382371040E+02  0.23457635051E+02  0.69927663763E+02  0.00000000000E+00 0.  1.
</event>
<event>
12    1  0.1032880E+000  0.2331937E+03  0.7818608E-02  0.1124432E+00
         21   -1    0    0  501  502  0.00000000000E+00  0.00000000000E+00  0.40558076375E+03  0.40558076375E+03  0.00000000000E+00 0.  1.
         21   -1    0    0  502  503 -0.00000000000E+00 -0.00000000000E+00 -0.13584511162E+03  0.13584511162E+03  0.00000000000E+00 0.  1.
         -6    2    1    2    0  503  0.15675317124E+03  0.18037612909E+02  0.10337590409E+03  0.25497368307E+03  0.17154617262E+03 0.  0.
        -24    2    3    3    0    0  0.12456050742E+03  0.64602193934E+01  0.13815431042E+03  0.20596316184E+03  0.88188185743E+02 0.  0.
          6    2    1    2  501    0 -0.15675317124E+03 -0.18037612909E+02  0.16635974803E+03  0.28645219229E+03  0.17170434045E+03 0.  0.
         24    2    5    5    0    0 -0.11063723192E+02  0.15761189597E+02  0.69924551145E+02  0.10843643029E+03  0.80611385627E+02 0.  0.
          5    1    5    5  501    0 -0.14568944805E+03 -0.33798802506E+02  0.96435196888E+02  0.17801576200E+03  0.47000000000E+01 0. -1.
        -11    1    6    6    0    0  0.31698789146E+02 -0.90838739541E+01  0.33568928050E+02  0.47055317763E+02  0.00000000000E+00 0.  1.
         12    1    6    6    0    0 -0.42762512339E+02  0.24845063551E+02  0.36355623096E+02  0.61381112527E+02  0.00000000000E+00 0. -1.
         -5    1    3    3    0  503  0.32192663815E+02  0.11577393516E+02 -0.34778406331E+02  0.49010521228E+02  0.47000000000E+01 0.  1.
         13    1    4    4    0    0  0.55637869714E+02 -0.38263178973E+02  0.83035300027E+02  0.10702571869E+03  0.00000000000E+00 0. -1.
        -14    1    4    4    0    0  0.68922637709E+02  0.44723398366E+02  0.55119010395E+02  0.98937443150E+02  0.00000000000E+00 0.  1.
</event>
<event>
12    1  0.1032880E+000  0.2339272E+03  0.7818608E-02  0.1124404E+00
         21   -1    0    0  501  502  0.00000000000E+00  0.00000000000E+00  0.11772377150E+03  0.11772377150E+03  0.00000000000E+00 0.  1.
         21   -1    0    0  502  503 -0.00000000000E+00 -0.00000000000E+00 -0.48759023256E+03  0.48759023256E+03  0.00000000000E+00 0.  1.
         -6    2    1    2    0  503 -0.71964081957E+01  0.15848243030E+03 -0.25697033931E+03  0.34556900927E+03  0.16797534306E+03 0.  0.
        -24    2    3    3    0    0 -0.46768160123E+02  0.16441993159E+03 -0.22800303008E+03  0.29594671109E+03  0.79861751647E+02 0.  0.
          6    2    1    2  501    0  0.71964081957E+01 -0.15848243030E+03 -0.11289612175E+03  0.25974499479E+03  0.17191119512E+03 0.  0.
         24    2    5    5    0    0 -0.28381836265E+02 -0.15589634622E+03 -0.47005817532E+02  0.18467088807E+03  0.82368626457E+02 0.  0.
          5    1    5    5  501    0  0.35578244461E+02 -0.25860840801E+01 -0.65890304221E+02  0.75074106722E+02  0.47000000000E+01 0. -1.
        -11    1    6    6    0    0  0.59066478744E+01 -0.70814104660E+02 -0.58735862700E+02  0.92192339568E+02  0.00000000000E+00 0.  1.
         12    1    6    6    0    0 -0.34288484140E+02 -0.85082241557E+02  0.11730045169E+02  0.92478548500E+02  0.00000000000E+00 0. -1.
         -5    1    3    3    0  503  0.39571751927E+02 -0.59375012896E+01 -0.28967309231E+02  0.49622298176E+02  0.47000000000E+01 0.  1.
         11    1    4    4    0    0  0.19129598859E+02  0.31919295569E+02 -0.25401752554E+02  0.45055876586E+02  0.00000000000E+00 0. -1.
        -12    1    4    4    0    0 -0.65897758981E+02  0.13250063602E+03 -0.20260127752E+03  0.25089083450E+03  0.00000000000E+00 0.  1.
</event>
<event>
12    1  0.1032880E+000  0.2032353E+03  0.7818608E-02  0.1147202E+00
         21   -1    0    0  501  502  0.00000000000E+00  0.00000000000E+00  0.99425499605E+03  0.99425499605E+03  0.00000000000E+00 0. -1.
         21   -1    0    0  502  503 -0.00000000000E+00 -0.00000000000E+00 -0.47398965055E+02  0.47398965055E+02  0.00000000000E+00 0. -1.
         -6    2    1    2    0  503  0.10485219883E+03  0.26770221643E+02  0.65820135380E+03  0.68862973574E+03  0.17108846377E+03 0.  0.
        -24    2    3    3    0    0  0.22362675476E+02  0.55789901260E+02  0.47451300930E+03  0.48513486806E+03  0.81121155513E+02 0.  0.
          6    2    1    2  501    0 -0.10485219883E+03 -0.26770221643E+02  0.28865467720E+03  0.35302422537E+03  0.17202892973E+03 0.  0.
         24    2    5    5    0    0 -0.52170422409E+02 -0.71222065240E+02  0.24306901575E+03  0.27025056715E+03  0.78476028655E+02 0.  0.
          5    1    5    5  501    0 -0.52681776422E+02  0.44451843597E+02  0.45585661450E+02  0.82773658225E+02  0.47000000000E+01 0. -1.
        -11    1    6    6    0    0 -0.72044138856E+01 -0.42315730244E+02  0.19050349369E+03  0.19527955785E+03  0.00000000000E+00 0.  1.
         12    1    6    6    0    0 -0.44966008523E+02 -0.28906334996E+02  0.52565522058E+02  0.74971009295E+02  0.00000000000E+00 0. -1.
         -5    1    3    3    0  503  0.82489523355E+02 -0.29019679617E+02  0.18368834449E+03  0.20349486768E+03  0.47000000000E+01 0.  1.
         13    1    4    4    0    0  0.31267532507E+02  0.51759099272E+02  0.47081754546E+03  0.47468497350E+03  0.00000000000E+00 0. -1.
        -14    1    4    4    0    0 -0.89048570316E+01  0.40308019883E+01  0.36954638420E+01  0.10449894565E+02  0.00000000000E+00 0.  1.
</event>
<event>
12    1  0.1032880E+000  0.2107340E+03  0.7818608E-02  0.1141007E+00
         21   -1    0    0  501  502  0.00000000000E+00  0.00000000000E+00  0.12553110031E+04  0.12553110031E+04  0.00000000000E+00 0.  1.
         21   -1    0    0  502  503 -0.00000000000E+00 -0.00000000000E+00 -0.39218987133E+02  0.39218987133E+02  0.00000000000E+00 0. -1.
         -6    2    1    2    0  503  0.48098733632E+02 -0.11182139544E+03  0.40485343391E+03  0.45636720214E+03  0.17189301204E+03 0.  0.
        -24    2    3    3    0    0  0.75516512360E+02 -0.73620510339E+02  0.15914850749E+03  0.20615920250E+03  0.77785899499E+02 0.  0.
          6    2    1    2  501    0 -0.48098733632E+02  0.11182139544E+03  0.81123858203E+03  0.83816278807E+03  0.17202124772E+03 0.  0.
         24    2    5    5    0    0  0.37300286614E+02  0.63698515162E+02  0.50135768912E+03  0.51311346557E+03  0.80480332335E+02 0.  0.
          5    1    5    5  501    0 -0.85399020246E+02  0.48122880277E+02  0.30988089291E+03  0.32504932250E+03  0.47000000000E+01 0. -1.
        -13    1    6    6    0    0  0.52543350127E+02  0.52379137641E+02  0.24335481777E+03  0.25441294195E+03  0.00000000000E+00 0.  1.
         14    1    6    6    0    0 -0.15243063514E+02  0.11319377521E+02  0.25800287135E+03  0.25870052362E+03  0.00000000000E+00 0. -1.
         -5    1    3    3    0  503 -0.27417778728E+02 -0.38200885100E+02  0.24570492643E+03  0.25020799964E+03  0.47000000000E+01 0.  1.
         11    1    4    4    0    0  0.69014580035E+01  0.11372741541E+02  0.21143000057E+00  0.13304663670E+02  0.00000000000E+00 0. -1.
        -12    1    4    4    0    0  0.68615054357E+02 -0.84993251880E+02  0.15893707749E+03  0.19285453883E+03  0.00000000000E+00 0.  1.
</event>
<event>
12    1  0.1032880E+000  0.2015314E+03  0.7818608E-02  0.1148774E+00
         21   -1    0    0  503  502  0.00000000000E+00  0.00000000000E+00  0.17913986732E+03  0.17913986732E+03  0.00000000000E+00 0.  1.
         21   -1    0    0  501  503 -0.00000000000E+00 -0.00000000000E+00 -0.35945657398E+03  0.35945657398E+03  0.00000000000E+00 0.  1.
          6    2    1    2  501    0 -0.30589297455E+02  0.97434032184E+02  0.74324822907E+02  0.21480013328E+03  0.17374067518E+03 0.  0.
         24    2    3    3    0    0  0.61283986631E+01  0.28233323527E+02  0.97305737430E+02  0.13302519997E+03  0.85980343461E+02 0.  0.
         -6    2    1    2    0  502  0.30589297455E+02 -0.97434032184E+02 -0.25464152957E+03  0.32379630801E+03  0.17196698739E+03 0.  0.
        -24    2    5    5    0    0  0.23340005240E+02 -0.64724007749E+02 -0.26711333549E+03  0.28773893873E+03  0.81915870527E+02 0.  0.
          5    1    3    3  501    0 -0.36717696118E+02  0.69200708657E+02 -0.22980914523E+02  0.81774933318E+02  0.47000000000E+01 0. -1.
        -11    1    4    4    0    0 -0.20302718294E+02  0.14509267587E+02 -0.58714585072E+01  0.25635780485E+02  0.00000000000E+00 0.  1.
         12    1    4    4    0    0  0.26431116958E+02  0.13724055940E+02  0.10317719594E+03  0.10738941948E+03  0.00000000000E+00 0. -1.
         -5    1    5    5    0  502  0.72492922157E+01 -0.32710024436E+02  0.12471805920E+02  0.36057369276E+02  0.47000000000E+01 0.  1.
         11    1    6    6    0    0  0.22524601948E+02 -0.42957070277E+02 -0.50454974091E+02  0.69988370393E+02  0.00000000000E+00 0. -1.
        -12    1    6    6    0    0  0.81540329164E+00 -0.21766937472E+02 -0.21665836140E+03  0.21775056834E+03  0.00000000000E+00 0.  1.
</event>
<event>
12    1  0.1032880E+000  0.2972366E+03  0.7818608E-02  0.1086715E+00
         21   -1    0    0  503  502  0.00000000000E+00  0.00000000000E+00  0.67590614033E+03  0.67590614033E+03  0.00000000000E+00 0. -1.
         21   -1    0    0  501  503 -0.00000000000E+00 -0.00000000000E+00 -0.15566938922E+03  0.15566938922E+03  0.00000000000E+00 0. -1.
          6    2    1    2  501    0  0.30625483032E+02 -0.24023059698E+03  0.42781878895E+03  0.52094004461E+03  0.17233964709E+03 0.  0.
         24    2    3    3    0    0  0.19806181031E+00 -0.18539889344E+03  0.19970597615E+03  0.28431821756E+03  0.81126956095E+02 0.  0.
         -6    2    1    2    0  502 -0.30625483032E+02  0.24023059698E+03  0.92417962160E+02  0.31063548494E+03  0.17118605328E+03 0.  0.
        -24    2    5    5    0    0  0.88679154751E+00  0.21465620565E+03  0.22673432000E+02  0.22980564869E+03  0.78857330835E+02 0.  0.
          5    1    3    3  501    0  0.30427421222E+02 -0.54831703542E+02  0.22811281280E+03  0.23662182705E+03  0.47000000000E+01 0. -1.
        -13    1    4    4    0    0 -0.54493212427E+00 -0.13242377821E+03  0.18817036210E+03  0.23009658659E+03  0.00000000000E+00 0.  1.
         14    1    4    4    0    0  0.74299393458E+00 -0.52975115226E+02  0.11535614057E+02  0.54221630969E+02  0.00000000000E+00 0. -1.
         -5    1    5    5    0  502 -0.31512274580E+02  0.25574391331E+02  0.69744530160E+02  0.80829836251E+02  0.47000000000E+01 0.  1.
         11    1    6    6    0    0 -0.15296048577E+02  0.13227798211E+02 -0.13773944053E+02  0.24467637449E+02  0.00000000000E+00 0. -1.
        -12    1    6    6    0    0  0.16182840125E+02  0.20142840744E+03  0.36447376052E+02  0.20533801124E+03  0.00000000000E+00 0.  1.
</event>
<event>
12    1  0.1032880E+000  0.2079642E+03  0.7818608E-02  0.1143260E+00
         21   -1    0    0  503  502  0.00000000000E+00  0.00000000000E+00  0.10065929895E+03  0.10065929895E+03  0.00000000000E+00 0.  1.
         21   -1    0    0  501  503 -0.00000000000E+00 -0.00000000000E+00 -0.47710624506E+03  0.47710624506E+03  0.00000000000E+00 0.  1.
          6    2    1    2  501    0 -0.11422767283E+03 -0.24775215708E+02 -0.96270959720E+02  0.22884193952E+03  0.17157728010E+03 0.  0.
         24    2    3    3    0    0 -0.68539898346E+02 -0.79700017359E+01  0.16111804962E+02  0.10627863445E+03  0.79210600854E+02 0.  0.
         -6    2    1    2    0  502  0.11422767283E+03  0.24775215708E+02 -0.28017598639E+03  0.34892360449E+03  0.17200966795E+03 0.  0.
        -24    2    5    5    0    0  0.43425231298E+02  0.60362619695E+01 -0.48324759264E+02  0.10573393441E+03  0.83199731707E+02 0.  0.
          5    1    3    3  501    0 -0.45687774486E+02 -0.16805213973E+02 -0.11238276468E+03  0.12256330508E+03  0.47000000000E+01 0. -1.
        -13    1    4    4    0    0 -0.23073266845E+02 -0.35444069715E+02 -0.14811140055E+02  0.44811020861E+02  0.00000000000E+00 0.  1.
         14    1    4    4    0    0 -0.45466631501E+02  0.27474067979E+02  0.30922945017E+02  0.61467613585E+02  0.00000000000E+00 0. -1.
         -5    1    5    5    0  502  0.70802441534E+02  0.18738953739E+02 -0.23185122712E+03  0.24318967008E+03  0.47000000000E+01 0.  1.
         11    1    6    6    0    0  0.50485718348E+02  0.18462475797E+02 -0.64622057905E+02  0.84057606066E+02  0.00000000000E+00 0. -1.
        -12    1    6    6    0    0 -0.70604870497E+01 -0.12426213828E+02  0.16297298642E+02  0.21676328344E+02  0.00000000000E+00 0.  1.
</event>
<event>
12    1  0.1032880E+000  0.1922890E+03  0.7818608E-02  0.1156771E+00
         21   -1    0    0  501  502  0.00000000000E+00  0.00000000000E+00  0.17999908784E+03  0.17999908784E+03  0.00000000000E+00 0. -1.
         21   -1    0    0  502  503 -0.00000000000E+00 -0.00000000000E+00 -0.53162060697E+03  0.53162060697E+03  0.00000000000E+00 0. -1.
         -6    2    1    2    0  503  0.80453753534E+02 -0.29891874214E+02  0.10391558234E+03  0.21716129852E+03  0.17027698236E+03 0.  0.
        -24    2    3    3    0    0 -0.21631218338E+02 -0.46824102041E+01  0.25806906982E+02  0.86089128618E+02  0.79091763453E+02 0.  0.
          6    2    1    2  501    0 -0.80453753534E+02  0.29891874214E+02 -0.45553710146E+03  0.49445839629E+03  0.17207185780E+03 0.  0.
         24    2    5    5    0    0 -0.11308082265E+03 -0.14838670400E+00 -0.26769645580E+03  0.30139586476E+03  0.79942356581E+02 0.  0.
          5    1    5    5  501    0  0.32627069120E+02  0.30040260918E+02 -0.18784064567E+03  0.19306253153E+03  0.47000000000E+01 0. -1.
        -13    1    6    6    0    0 -0.13971194590E+01 -0.43957055231E+01  0.49289633723E+01  0.67504703358E+01  0.00000000000E+00 0.  1.
         14    1    6    6    0    0 -0.11168370320E+03  0.42473188191E+01 -0.27262541917E+03  0.29464539442E+03  0.00000000000E+00 0. -1.
         -5    1    3    3    0  503  0.10208497187E+03 -0.25209464010E+02  0.78108675355E+02  0.13107216990E+03  0.47000000000E+01 0.  1.
         13    1    4    4    0    0 -0.26995024835E+01 -0.37257828740E+02  0.30361263620E+02  0.48137713330E+02  0.00000000000E+00 0. -1.
        -14    1    4    4    0    0 -0.18931715855E+02  0.32575418536E+02 -0.45543566377E+01  0.37951415288E+02  0.00000000000E+00 0.  1.
</event>
<event>
12    1  0.1032880E+000  0.2256948E+03  0.7818608E-02  0.1132978E+00
         21   -1    0    0  503  502  0.00000000000E+00  0.00000000000E+00  0.38864704400E+03  0.38864704400E+03  0.00000000000E+00 0.  1.
         21   -1    0    0  501  503 -0.00000000000E+00 -0.00000000000E+00 -0.12203942988E+03  0.12203942988E+03  0.00000000000E+00 0.  1.
          6    2    1    2  501    0 -0.84729151347E+02 -0.82570563237E+02  0.16018670831E+03  0.27676329169E+03  0.19220096542E+03 0.  0.
         24    2    3    3    0    0 -0.48457584614E+02  0.36549338677E+02  0.60003702180E+02  0.11687613679E+03  0.79847325633E+02 0.  0.
         -6    2    1    2    0  502  0.84729151347E+02  0.82570563237E+02  0.10642090581E+03  0.23392318218E+03  0.17145763024E+03 0.  0.
        -24    2    5    5    0    0 -0.41828346491E+01  0.10725046997E+00  0.75980665721E+02  0.10880628715E+03  0.77770424656E+02 0.  0.
          5    1    3    3  501    0 -0.36271566733E+02 -0.11911990191E+03  0.10018300613E+03  0.15988715490E+03  0.47000000000E+01 0. -1.
        -11    1    4    4    0    0 -0.44133631035E+02 -0.10201617781E+02  0.52482195533E+02  0.69326987831E+02  0.00000000000E+00 0.  1.
         12    1    4    4    0    0 -0.43239535788E+01  0.46750956458E+02  0.75215066464E+01  0.47549148957E+02  0.00000000000E+00 0. -1.
         -5    1    5    5    0  502  0.88911985996E+02  0.82463312767E+02  0.30440240088E+02  0.12511689503E+03  0.47000000000E+01 0.  1.
         13    1    6    6    0    0 -0.12617036249E+02 -0.16989896436E+02  0.85086660625E+02  0.87678880016E+02  0.00000000000E+00 0. -1.
        -14    1    6    6    0    0  0.84342015995E+01  0.17097146906E+02 -0.91059949034E+01  0.21127407132E+02  0.00000000000E+00 0.  1.
</event>
<event>
12    1  0.1032880E+000  0.2763846E+03  0.7818608E-02  0.1097961E+00
         21   -1    0    0  503  502  0.00000000000E+00  0.00000000000E+00  0.63187337560E+03  0.63187337560E+03  0.00000000000E+00 0. -1.
         21   -1    0    0  501  503 -0.00000000000E+00 -0.00000000000E+00 -0.22110312193E+03  0.22110312193E+03  0.00000000000E+00 0. -1.
          6    2    1    2  501    0 -0.20758362024E+03  0.57997384440E+02  0.49417458023E+03  0.56621283825E+03  0.17301389094E+03 0.  0.
         24    2    3    3    0    0 -0.17997010016E+03  0.93677628937E+02  0.32697420901E+03  0.39296838531E+03  0.79669839829E+02 0.  0.
         -6    2    1    2    0  502  0.20758362024E+03 -0.57997384440E+02 -0.83404326559E+02  0.28676365928E+03  0.16977178389E+03 0.  0.
        -24    2    5    5    0    0  0.40339628113E+02 -0.51223945550E+02 -0.87139369173E+01  0.10341378423E+03  0.79795362513E+02 0.  0.
          5    1    3    3  501    0 -0.27613520076E+02 -0.35680244497E+02  0.16720037122E+03  0.17324445294E+03  0.47000000000E+01 0. -1.
        -13    1    4    4    0    0 -0.49129254540E+02  0.57679413408E+02  0.16567460642E+03  0.18217758807E+03  0.00000000000E+00 0.  1.
         14    1    4    4    0    0 -0.13084084562E+03  0.35998215529E+02  0.16129960259E+03  0.21079079723E+03  0.00000000000E+00 0. -1.
         -5    1    5    5    0  502  0.16724399212E+03 -0.67734388895E+01 -0.74690389641E+02  0.18334987505E+03  0.47000000000E+01 0.  1.
         13    1    6    6    0    0  0.26164755100E+02 -0.65588275580E+02 -0.27559408116E+02  0.75801960916E+02  0.00000000000E+00 0. -1.
        -14    1    6    6    0    0  0.14174873013E+02  0.14364330030E+02  0.18845471199E+02  0.27611823316E+02  0.00000000000E+00 0.  1.
</event>
<event>
12    1  0.1032880E+000  0.1857854E+03  0.7818608E-02  0.1162994E+00
         21   -1    0    0  501  502  0.00000000000E+00  0.00000000000E+00  0.38545371830E+02  0.38545371830E+02  0.00000000000E+00 0. -1.
         21   -1    0    0  502  503 -0.00000000000E+00 -0.00000000000E+00 -0.18104913480E+04  0.18104913480E+04  0.00000000000E+00 0. -1.
         -6    2    1    2    0  503 -0.52317527665E+02  0.40458793681E+02 -0.22714876227E+03  0.29344976986E+03  0.17361500379E+03 0.  0.
        -24    2    3    3    0    0  0.21144985728E+02 -0.59542251098E+00 -0.48876516105E+02  0.96256277839E+02  0.80180373206E+02 0.  0.
          6    2    1    2  501    0  0.52317527665E+02 -0.40458793681E+02 -0.15447972139E+04  0.15555869500E+04  0.17052357365E+03 0.  0.
         24    2    5    5    0    0 -0.71971936746E+01 -0.47254787534E+02 -0.13058219223E+04  0.13091737450E+04  0.80499610614E+02 0.  0.
          5    1    5    5  501    0  0.59514721340E+02  0.67959938537E+01 -0.23897529165E+03  0.24641320502E+03  0.47000000000E+01 0. -1.
        -11    1    6    6    0    0  0.34566792581E+02 -0.98885120984E+01 -0.39654257895E+03  0.39816913836E+03  0.00000000000E+00 0.  1.
         12    1    6    6    0    0 -0.41763986255E+02 -0.37366275436E+02 -0.90927934332E+03  0.91100460662E+03  0.00000000000E+00 0. -1.
         -5    1    3    3    0  503 -0.73462513394E+02  0.41054216192E+02 -0.17827224617E+03  0.19719349202E+03  0.47000000000E+01 0.  1.
         11    1    4    4    0    0  0.38852115911E+02 -0.20565950717E+01 -0.62668920912E+02  0.73763881014E+02  0.00000000000E+00 0. -1.
        -12    1    4    4    0    0 -0.17707130183E+02  0.14611725607E+01  0.13792404807E+02  0.22492396825E+02  0.00000000000E+00 0.  1.
</event>
<event>
12    1  0.1032880E+000  0.2152171E+03  0.7818608E-02  0.1137577E+00
         21   -1    0    0  503  502  0.00000000000E+00  0.00000000000E+00  0.11375715494E+03  0.11375715494E+03  0.00000000000E+00 0.  1.
         21   -1    0    0  501  503 -0.00000000000E+00 -0.00000000000E+00 -0.65017242703E+03  0.65017242703E+03  0.00000000000E+00 0.  1.
          6    2    1    2  501    0  0.49357435499E+01  0.12766884978E+03 -0.34173316002E+02  0.21751819997E+03  0.17269237106E+03 0.  0.
         24    2    3    3    0    0 -0.44884568755E+02  0.72584951318E+02  0.27326987862E+02  0.12097454786E+03  0.81270396172E+02 0.  0.
         -6    2    1    2    0  502 -0.49357435499E+01 -0.12766884978E+03 -0.50224195608E+03  0.54641138200E+03  0.17318983562E+03 0.  0.
        -24    2    5    5    0    0  0.63360615841E+02 -0.91860347813E+02 -0.33469227365E+03  0.36190764870E+03  0.80655669396E+02 0.  0.
          5    1    3    3  501    0  0.49820312305E+02  0.55083898461E+02 -0.61500303864E+02  0.96543652112E+02  0.47000000000E+01 0. -1.
        -13    1    4    4    0    0  0.83685671128E+01 -0.75408390653E+01 -0.12519145773E+02  0.16841204832E+02  0.00000000000E+00 0.  1.
         14    1    4    4    0    0 -0.53253135868E+02  0.80125790384E+02  0.39846133635E+02  0.10413334303E+03  0.00000000000E+00 0. -1.
         -5    1    5    5    0  502 -0.68296359391E+02 -0.35808501966E+02 -0.16754968243E+03  0.18450373330E+03  0.47000000000E+01 0.  1.
         13    1    6    6    0    0  0.44525381851E+02 -0.69522815036E+02 -0.31738690474E+03  0.32794874408E+03  0.00000000000E+00 0. -1.
        -14    1    6    6    0    0  0.18835233990E+02 -0.22337532778E+02 -0.17305368905E+02  0.33958904620E+02  0.00000000000E+00 0.  1.
</event>
<event>
12    1  0.1032880E+000  0.2554748E+03  0.7818608E-02  0.1109941E+00
         21   -1    0    0  503  502  0.00000000000E+00  0.00000000000E+00  0.17320600348E+04  0.17320600348E+04  0.00000000000E+00 0. -1.
         21   -1    0    0  501  503 -0.00000000000E+00 -0.00000000000E+00 -0.40153943529E+02  0.40153943529E+02  0.00000000000E+00 0. -1.
          6    2    1    2  501    0 -0.18434826285E+03 -0.42641958333E+02  0.10673838215E+04  0.10974581540E+04  0.17118282305E+03 0.  0.
         24    2    3    3    0    0 -0.30761173154E+02  0.26562607632E+02  0.37515512677E+03  0.38501101787E+03  0.76421808678E+02 0.  0.
         -6    2    1    2    0  502  0.18434826285E+03  0.42641958333E+02  0.62452226980E+03  0.67475582429E+03  0.17165295893E+03 0.  0.
        -24    2    5    5    0    0  0.46559266682E+02  0.37005820031E+02  0.14532689832E+03  0.17608973604E+03  0.79689972604E+02 0.  0.
          5    1    3    3  501    0 -0.15358708969E+03 -0.69204565965E+02  0.69222869469E+03  0.71244713616E+03  0.47000000000E+01 0. -1.
        -11    1    4    4    0    0 -0.34129114139E+02  0.18663149490E+02  0.37437253666E+03  0.37638797243E+03  0.00000000000E+00 0.  1.
         12    1    4    4    0    0  0.33679409856E+01  0.78994581418E+01  0.78259010643E+00  0.86230454418E+01  0.00000000000E+00 0. -1.
         -5    1    5    5    0  502  0.13778899616E+03  0.56361383014E+01  0.47919537149E+03  0.49866608825E+03  0.47000000000E+01 0.  1.
         11    1    6    6    0    0  0.26642510059E+02  0.57401594762E+02  0.12784154586E+03  0.14264721263E+03  0.00000000000E+00 0. -1.
        -12    1    6    6    0    0  0.19916756623E+02 -0.20395774730E+02  0.17485352451E+02  0.33442523403E+02  0.00000000000E+00 0.  1.
</event>
<event>
12    1  0.1032880E+000  0.2676368E+03  0.7818608E-02  0.1102791E+00
         21   -1    0    0  503  502  0.00000000000E+00  0.00000000000E+00  0.24640422918E+03  0.24640422918E+03  0.00000000000E+00 0.  1.
         21   -1    0    0  501  503 -0.00000000000E+00 -0.00000000000E+00 -0.30107133082E+03  0.30107133082E+03  0.00000000000E+00 0.  1.
          6    2    1    2  501    0 -0.15197901649E+03  0.13599926441E+03 -0.80788636598E+02  0.27856706806E+03  0.17169562089E+03 0.  0.
         24    2    3    3    0    0 -0.15942881597E+03  0.77112762573E+02 -0.23820190168E+02  0.19616188922E+03  0.80920700756E+02 0.  0.
         -6    2    1    2    0  502  0.15197901649E+03 -0.13599926441E+03  0.26121534956E+02  0.26890849194E+03  0.17330903346E+03 0.  0.
        -24    2    5    5    0    0  0.30815115194E+02 -0.10878303210E+03  0.40971984023E+02  0.14375242891E+03  0.78757462785E+02 0.  0.
          5    1    3    3  501    0  0.74497994834E+01  0.58886501834E+02 -0.56968446430E+02  0.82405178837E+02  0.47000000000E+01 0. -1.
        -11    1    4    4    0    0 -0.53191206185E+02  0.28090391940E+02  0.30179563681E+02  0.67299187207E+02  0.00000000000E+00 0.  1.
         12    1    4    4    0    0 -0.10623760979E+03  0.49022370633E+02 -0.53999753849E+02  0.12886270202E+03  0.00000000000E+00 0. -1.
         -5    1    5    5    0  502  0.12116390129E+03 -0.27216232308E+02 -0.14850449067E+02  0.12515606304E+03  0.47000000000E+01 0.  1.
         13    1    6    6    0    0  0.37022336014E+02 -0.98844170678E+01  0.67029986401E+01  0.38900967282E+02  0.00000000000E+00 0. -1.
        -14    1    6    6    0    0 -0.62072208200E+01 -0.98898615031E+02  0.34268985383E+02  0.10485146162E+03  0.00000000000E+00 0.  1.
</event>
<event>
12    1  0.1032880E+000  0.2145866E+03  0.7818608E-02  0.1138251E+00
         21   -1    0    0  503  502  0.00000000000E+00  0.00000000000E+00  0.59621332220E+03  0.59621332220E+03  0.00000000000E+00 0. -1.
         21   -1    0    0  501  503 -0.00000000000E+00 -0.00000000000E+00 -0.74018846054E+03  0.74018846054E+03  0.00000000000E+00 0. -1.
          6    2    1    2  501    0 -0.35411101509E+02  0.12242715709E+03 -0.70462758537E+03  0.73657820194E+03  0.17264141623E+03 0.  0.
         24    2    3    3    0    0  0.39089259421E+02  0.70760873062E+02 -0.49733231125E+03  0.51027502176E+03  0.80660390919E+02 0.  0.
         -6    2    1    2    0  502  0.35411101509E+02 -0.12242715709E+03  0.56065244704E+03  0.59982358080E+03  0.17092339458E+03 0.  0.
        -24    2    5    5    0    0 -0.11811977208E+02 -0.45199876418E+01  0.30170601247E+03  0.31136653765E+03  0.75912118354E+02 0.  0.
          5    1    3    3  501    0 -0.74500360930E+02  0.51666284025E+02 -0.20729527413E+03  0.22630318018E+03  0.47000000000E+01 0. -1.
        -13    1    4    4    0    0 -0.36766571318E+01  0.69372835590E+02 -0.35130326571E+03  0.35810625884E+03  0.00000000000E+00 0.  1.
         14    1    4    4    0    0  0.42765916553E+02  0.13880374719E+01 -0.14602904554E+03  0.15216876292E+03  0.00000000000E+00 0. -1.
         -5    1    5    5    0  502  0.47223078717E+02 -0.11790716944E+03  0.25894643457E+03  0.28845704316E+03  0.47000000000E+01 0.  1.
         11    1    6    6    0    0  0.27426020350E+02 -0.14218259019E+02  0.19163644705E+03  0.19411046680E+03  0.00000000000E+00 0. -1.
        -12    1    6    6    0    0 -0.39237997558E+02  0.96982713771E+01  0.11006956542E+03  0.11725607085E+03  0.00000000000E+00 0.  1.
</event>
<event>
12    1  0.1032880E+000  0.2336551E+03  0.7818608E-02  0.1124279E+00
         21   -1    0    0  501  502  0.00000000000E+00  0.00000000000E+00  0.29854106049E+03  0.29854106049E+03  0.00000000000E+00 0.  1.
         21   -1    0    0  502  503 -0.00000000000E+00 -0.00000000000E+00 -0.30641144872E+03  0.30641144872E+03  0.00000000000E+00 0.  1.
         -6    2    1    2    0  503 -0.45775382982E+02 -0.15110397345E+03  0.18877498047E+03  0.30038428946E+03  0.17224091158E+03 0.  0.
        -24    2    3    3    0    0  0.19552307504E+02 -0.14430943534E+03  0.14943715834E+03  0.22368078796E+03  0.80586132515E+02 0.  0.
          6    2    1    2  501    0  0.45775382982E+02  0.15110397345E+03 -0.19664536869E+03  0.30456821976E+03  0.17077647079E+03 0.  0.
         24    2    5    5    0    0  0.29721804551E+02  0.14129033717E+03 -0.21984080420E+03  0.27433342084E+03  0.77990393996E+02 0.  0.
          5    1    5    5  501    0  0.16053578430E+02  0.98136362829E+01  0.23195435503E+02  0.30234798919E+02  0.47000000000E+01 0. -1.
        -11    1    6    6    0    0  0.53437203201E+02  0.72005592944E+02 -0.13733163902E+03  0.16401316770E+03  0.00000000000E+00 0.  1.
         12    1    6    6    0    0 -0.23715398650E+02  0.69284744226E+02 -0.82509165175E+02  0.11032025314E+03  0.00000000000E+00 0. -1.
         -5    1    3    3    0  503 -0.65327690485E+02 -0.67945381134E+01  0.39337822129E+02  0.76703501499E+02  0.47000000000E+01 0.  1.
         11    1    4    4    0    0  0.48071252873E+02 -0.58013757961E+02  0.62159350935E+02  0.97674082408E+02  0.00000000000E+00 0. -1.
        -12    1    4    4    0    0 -0.28518945369E+02 -0.86295677378E+02  0.87277807402E+02  0.12600670555E+03  0.00000000000E+00 0.  1.
</event>
<event>
12    1  0.1032880E+000  0.2042097E+03  0.7818608E-02  0.1146301E+00
         21   -1    0    0  503  502  0.00000000000E+00  0.00000000000E+00  0.73238865445E+03  0.73238865445E+03  0.00000000000E+00 0.  1.
         21   -1    0    0  501  503 -0.00000000000E+00 -0.00000000000E+00 -0.70540287081E+02  0.70540287081E+02  0.00000000000E+00 0.  1.
          6    2    1    2  501    0  0.10778177826E+03 -0.64087766169E+01  0.50799439774E+03  0.54750333337E+03  0.17333091983E+03 0.  0.
         24    2    3    3    0    0 -0.61931876573E+01  0.16986509659E+02  0.14695740662E+03  0.16815200382E+03  0.79697678403E+02 0.  0.
         -6    2    1    2    0  502 -0.10778177826E+03  0.64087766169E+01  0.15385396963E+03  0.25542560816E+03  0.17295436737E+03 0.  0.
        -24    2    5    5    0    0 -0.10156831827E+03 -0.63811715011E+02  0.93908914216E+02  0.16277020250E+03  0.57334077173E+02 0.  0.
          5    1    3    3  501    0  0.11397496592E+03 -0.23395286276E+02  0.36103699112E+03  0.37935132955E+03  0.47000000000E+01 0. -1.
        -13    1    4    4    0    0  0.32616096434E+02 -0.92843698738E+01  0.49372030742E+02  0.59896633379E+02  0.00000000000E+00 0.  1.
         14    1    4    4    0    0 -0.38809284091E+02  0.26270879533E+02  0.97585375878E+02  0.10825537044E+03  0.00000000000E+00 0. -1.
         -5    1    5    5    0  502 -0.62134599955E+01  0.70220491628E+02  0.59945055411E+02  0.92655405659E+02  0.47000000000E+01 0.  1.
         11    1    6    6    0    0 -0.54341937427E+00 -0.12189095198E+02 -0.40756348774E+01  0.12863908660E+02  0.00000000000E+00 0. -1.
        -12    1    6    6    0    0 -0.10102489889E+03 -0.51622619814E+02  0.97984549093E+02  0.14990629384E+03  0.00000000000E+00 0.  1.
</event>
<event>
12    1  0.1032880E+000  0.2429229E+03  0.7818608E-02  0.1118024E+00
         21   -1    0    0  501  502  0.00000000000E+00  0.00000000000E+00  0.41375612040E+03  0.41375612040E+03  0.00000000000E+00 0. -1.
         21   -1    0    0  502  503 -0.00000000000E+00 -0.00000000000E+00 -0.14542915784E+03  0.14542915784E+03  0.00000000000E+00 0. -1.
         -6    2    1    2    0  503  0.22891827637E+01  0.17210239222E+03  0.17710030463E+03  0.30062614082E+03  0.17142661659E+03 0.  0.
        -24    2    3    3    0    0  0.58602863828E+02  0.33169836742E+02  0.70426238895E+02  0.11657470250E+03  0.63994315522E+02 0.  0.
          6    2    1    2  501    0 -0.22891827637E+01 -0.17210239222E+03  0.91226657939E+02  0.25855913742E+03  0.17001779512E+03 0.  0.
         24    2    5    5    0    0 -0.78541015585E+01 -0.70502737645E+02  0.10925955523E+03  0.15511478757E+03  0.84205842937E+02 0.  0.
          5    1    5    5  501    0  0.55649187949E+01 -0.10159965458E+03 -0.18032897296E+02  0.10344434985E+03  0.47000000000E+01 0. -1.
        -13    1    6    6    0    0 -0.11438336783E+02 -0.22976690145E+02 -0.93272834728E+01  0.27308644334E+02  0.00000000000E+00 0.  1.
         14    1    6    6    0    0  0.35842352247E+01 -0.47526047499E+02  0.11858683871E+03  0.12780614323E+03  0.00000000000E+00 0. -1.
         -5    1    3    3    0  503 -0.56313681064E+02  0.13893255548E+03  0.10667406573E+03  0.18405143832E+03  0.47000000000E+01 0.  1.
         13    1    4    4    0    0  0.28509050162E+02  0.25866673209E+02 -0.12287260339E+01  0.38514419270E+02  0.00000000000E+00 0. -1.
        -14    1    4    4    0    0  0.30093813665E+02  0.73031635335E+01  0.71654964929E+02  0.78060283227E+02  0.00000000000E+00 0.  1.
</event>
<event>
12    1  0.1032880E+000  0.1717921E+03  0.7818608E-02  0.1176037E+00
         21   -1    0    0  501  502  0.00000000000E+00  0.00000000000E+00  0.12867264869E+04  0.12867264869E+04  0.00000000000E+00 0.  1.
         21   -1    0    0  502  503 -0.00000000000E+00 -0.00000000000E+00 -0.78915727521E+02  0.78915727521E+02  0.00000000000E+00 0.  1.
         -6    2    1    2    0  503  0.40972573417E+01  0.21341689938E+01  0.11792119916E+04  0.11916599503E+04  0.17172994477E+03 0.  0.
        -24    2    3    3    0    0  0.47632875466E+02 -0.87001231092E+01  0.10600531584E+04  0.10642486107E+04  0.81042111596E+02 0.  0.
          6    2    1    2  501    0 -0.40972573417E+01 -0.21341689938E+01  0.28598767785E+02  0.17398226408E+03  0.17155348000E+03 0.  0.
         24    2    5    5    0    0 -0.42346339135E+02  0.39888433995E+02 -0.17570462465E+02  0.10061620080E+03  0.80191016372E+02 0.  0.
          5    1    5    5  501    0  0.38249081793E+02 -0.42022602988E+02  0.46169230250E+02  0.73366063284E+02  0.47000000000E+01 0. -1.
        -11    1    6    6    0    0  0.67490256649E+01  0.48621266565E+02 -0.11157699947E+02  0.50339558778E+02  0.00000000000E+00 0.  1.
         12    1    6    6    0    0 -0.49095364800E+02 -0.87328325708E+01 -0.64127625182E+01  0.50276642018E+02  0.00000000000E+00 0. -1.
         -5    1    3    3    0  503 -0.43535618124E+02  0.10834292103E+02  0.11915883314E+03  0.12741133955E+03  0.47000000000E+01 0.  1.
         11    1    4    4    0    0 -0.87381457599E+01 -0.65634435703E+01  0.67468289869E+03  0.67477140408E+03  0.00000000000E+00 0. -1.
        -12    1    4    4    0    0  0.56371021226E+02 -0.21366795389E+01  0.38537025972E+03  0.38947720667E+03  0.00000000000E+00 0.  1.
</event>
<event>
12    1  0.1032880E+000  0.1725103E+03  0.7818608E-02  0.1175310E+00
         21   -1    0    0  503  502  0.00000000000E+00  0.00000000000E+00  0.28181162084E+03  0.28181162084E+03  0.00000000000E+00 0.  1.
         21   -1    0    0  501  503 -0.00000000000E+00 -0.00000000000E+00 -0.11063701220E+03  0.11063701220E+03  0.00000000000E+00 0.  1.
          6    2    1    2  501    0 -0.81420452935E+01  0.31958056153E+00  0.12804650038E+03  0.21483877441E+03  0.17231772310E+03 0.  0.
         24    2    3    3    0    0  0.29554658851E+02  0.43526213726E+02  0.27236581687E+02  0.98767312111E+02  0.79026207163E+02 0.  0.
         -6    2    1    2    0  502  0.81420452935E+01 -0.31958056153E+00  0.43128108259E+02  0.17760985863E+03  0.17210122931E+03 0.  0.
        -24    2    5    5    0    0  0.47836514813E+02 -0.93563005167E+01  0.79994277395E+02  0.12248710793E+03  0.78918531951E+02 0.  0.
          5    1    3    3  501    0 -0.37696704144E+02 -0.43206633165E+02  0.10080991869E+03  0.11607146230E+03  0.47000000000E+01 0. -1.
        -13    1    4    4    0    0  0.27666672715E+02  0.24843407308E+02  0.54309741967E+02  0.65819356866E+02  0.00000000000E+00 0.  1.
         14    1    4    4    0    0  0.18879861360E+01  0.18682806419E+02 -0.27073160279E+02  0.32947955245E+02  0.00000000000E+00 0. -1.
         -5    1    5    5    0  502 -0.39694469519E+02  0.90367199552E+01 -0.36866169136E+02  0.55122750700E+02  0.47000000000E+01 0.  1.
         13    1    6    6    0    0 -0.14021310749E+02  0.12747266876E+02 -0.37187423176E-01  0.18949705824E+02  0.00000000000E+00 0. -1.
        -14    1    6    6    0    0  0.61857825562E+02 -0.22103567393E+02  0.80031464818E+02  0.10353740211E+03  0.00000000000E+00 0.  1.
</event>
<event>
12    1  0.1032880E+000  0.1914631E+03  0.7818608E-02  0.1157277E+00
         21   -1    0    0  503  502  0.00000000000E+00  0.00000000000E+00  0.28517966910E+03  0.28517966910E+03  0.00000000000E+00 0. -1.
         21   -1    0    0  501  503 -0.00000000000E+00 -0.00000000000E+00 -0.13133666668E+03  0.13133666668E+03  0.00000000000E+00 0. -1.
          6    2    1    2  501    0  0.58863546201E+02  0.60299343882E+02  0.44639530985E+02  0.19659806366E+03  0.17192202583E+03 0.  0.
         24    2    3    3    0    0  0.36402473075E+00  0.37060708077E+02 -0.34874415070E+02  0.95075722160E+02  0.80309025150E+02 0.  0.
         -6    2    1    2    0  502 -0.58863546201E+02 -0.60299343882E+02  0.10920347143E+03  0.21991827213E+03  0.17128257441E+03 0.  0.
        -24    2    5    5    0    0 -0.31904174464E+01  0.18055182568E+02  0.90580580622E+01  0.81029385242E+02  0.78406278294E+02 0.  0.
          5    1    3    3  501    0  0.58499521471E+02  0.23238635805E+02  0.79513946055E+02  0.10152234150E+03  0.47000000000E+01 0. -1.
        -13    1    4    4    0    0  0.34502939880E+02  0.42075999860E+00 -0.28180731168E+02  0.44550909177E+02  0.00000000000E+00 0.  1.
         14    1    4    4    0    0 -0.34138915149E+02  0.36639948079E+02 -0.66936839018E+01  0.50524812983E+02  0.00000000000E+00 0. -1.
         -5    1    5    5    0  502 -0.55673128755E+02 -0.78354526450E+02  0.10014541337E+03  0.13888888688E+03  0.47000000000E+01 0.  1.
         11    1    6    6    0    0  0.27385343734E+00 -0.14024701292E+02 -0.28348561770E+02  0.31629230096E+02  0.00000000000E+00 0. -1.
        -12    1    6    6    0    0 -0.34642708837E+01  0.32079883860E+02  0.37406619832E+02  0.49400155146E+02  0.00000000000E+00 0.  1.
</event>
<event>
12    1  0.1032880E+000  0.1906551E+03  0.7818608E-02  0.1158680E+00
         21   -1    0    0  503  502  0.00000000000E+00  0.00000000000E+00  0.19554572981E+03  0.19554572981E+03  0.00000000000E+00 0.  1.
         21   -1    0    0  501  503 -0.00000000000E+00 -0.00000000000E+00 -0.21116879261E+03  0.21116879261E+03  0.00000000000E+00 0.  1.
          6    2    1    2  501    0  0.67463782435E+02  0.35417641560E+02  0.67269891920E+02  0.19881884070E+03  0.17087399387E+03 0.  0.
         24    2    3    3    0    0  0.90722634788E+02 -0.14556243742E+02  0.75996519247E+02  0.14281341730E+03  0.78598476635E+02 0.  0.
         -6    2    1    2    0  502 -0.67463782435E+02 -0.35417641560E+02 -0.82892954722E+02  0.20789568173E+03  0.17476727744E+03 0.  0.
        -24    2    5    5    0    0 -0.30706080227E+02 -0.53517662948E+02 -0.11692088756E+03  0.15442859223E+03  0.79816618182E+02 0.  0.
          5    1    3    3  501    0 -0.23258852353E+02  0.49973885302E+02 -0.87266273273E+01  0.56005423393E+02  0.47000000000E+01 0. -1.
        -11    1    4    4    0    0  0.75739875464E+02 -0.29332479415E+02  0.87038678145E+02  0.11904895874E+03  0.00000000000E+00 0.  1.
         12    1    4    4    0    0  0.14982759324E+02  0.14776235674E+02 -0.11042158898E+02  0.23764458563E+02  0.00000000000E+00 0. -1.
         -5    1    5    5    0  502 -0.36757702209E+02  0.18100021387E+02  0.34027932843E+02  0.53467089499E+02  0.47000000000E+01 0.  1.
         11    1    6    6    0    0  0.33086830929E+01 -0.52371188338E+02 -0.28569510917E+02  0.59748687901E+02  0.00000000000E+00 0. -1.
        -12    1    6    6    0    0 -0.34014763320E+02 -0.11464746093E+01 -0.88351376648E+02  0.94679904326E+02  0.00000000000E+00 0.  1.
</event>
<event>
12    1  0.1032880E+000  0.1920596E+03  0.7818608E-02  0.1156643E+00
         21   -1    0    0  503  502  0.00000000000E+00  0.00000000000E+00  0.25979101663E+03  0.25979101663E+03  0.00000000000E+00 0. -1.
         21   -1    0    0  501  503 -0.00000000000E+00 -0.00000000000E+00 -0.18622757746E+03  0.18622757746E+03  0.00000000000E+00 0. -1.
          6    2    1    2  501    0 -0.65717475814E+02 -0.54399699818E+02 -0.72012226846E+02  0.20511616156E+03  0.17207197607E+03 0.  0.
         24    2    3    3    0    0 -0.72495100629E+02 -0.97014266199E+02 -0.40506228769E+02  0.15148170080E+03  0.81477872126E+02 0.  0.
         -6    2    1    2    0  502  0.65717475814E+02  0.54399699818E+02  0.14557566601E+03  0.24090243254E+03  0.17194066855E+03 0.  0.
        -24    2    5    5    0    0  0.81322041242E+02 -0.10260498046E+02  0.12953916444E+03  0.17231888471E+03  0.78707373809E+02 0.  0.
          5    1    3    3  501    0  0.67776248151E+01  0.42614566381E+02 -0.31505998077E+02  0.53634460758E+02  0.47000000000E+01 0. -1.
        -11    1    4    4    0    0  0.29525416632E+00 -0.31478676700E+02 -0.43254915835E+02  0.53497495322E+02  0.00000000000E+00 0.  1.
         12    1    4    4    0    0 -0.72790354796E+02 -0.65535589498E+02  0.27486870659E+01  0.97984205476E+02  0.00000000000E+00 0. -1.
         -5    1    5    5    0  502 -0.15604565427E+02  0.64660197863E+02  0.16036501569E+02  0.68583547827E+02  0.47000000000E+01 0.  1.
         13    1    6    6    0    0  0.35426815452E+02  0.34267112118E+02  0.49252105799E+02  0.69678290390E+02  0.00000000000E+00 0. -1.
        -14    1    6    6    0    0  0.45895225789E+02 -0.44527610164E+02  0.80287058641E+02  0.10264059432E+03  0.00000000000E+00 0.  1.
</event>
<event>
12    1  0.1032880E+000  0.1792431E+03  0.7818608E-02  0.1168764E+00
         21   -1    0    0  503  502  0.00000000000E+00  0.00000000000E+00  0.19998340175E+03  0.19998340175E+03  0.00000000000E+00 0.  1.
         21   -1    0    0  501  503 -0.00000000000E+00 -0.00000000000E+00 -0.16021004043E+03  0.16021004043E+03  0.00000000000E+00 0.  1.
          6    2    1    2  501    0  0.21605467750E+02  0.42548791081E+02  0.11075142082E+02  0.17958495243E+03  0.17277413148E+03 0.  0.
         24    2    3    3    0    0 -0.45846109451E+02  0.49043110781E+02  0.31820117611E+02  0.10856146712E+03  0.79157942067E+02 0.  0.
         -6    2    1    2    0  502 -0.21605467750E+02 -0.42548791081E+02  0.28698219244E+02  0.18060848975E+03  0.17180990345E+03 0.  0.
        -24    2    5    5    0    0 -0.60752352755E+02 -0.39909792355E+02  0.65642630898E+02  0.12651207145E+03  0.80079393988E+02 0.  0.
          5    1    3    3  501    0  0.67451577201E+02 -0.64943196995E+01 -0.20744975530E+02  0.71023485305E+02  0.47000000000E+01 0. -1.
        -11    1    4    4    0    0 -0.49729745442E+02  0.57153332461E+02  0.48258436884E+02  0.89824427210E+02  0.00000000000E+00 0.  1.
         12    1    4    4    0    0  0.38836359911E+01 -0.81102216800E+01 -0.16438319272E+02  0.18737039913E+02  0.00000000000E+00 0. -1.
         -5    1    5    5    0  502  0.39146885005E+02 -0.26389987259E+01 -0.36944411654E+02  0.54096418295E+02  0.47000000000E+01 0.  1.
         11    1    6    6    0    0  0.95137660483E+01  0.80943000632E+01  0.33143443429E+02  0.35419165437E+02  0.00000000000E+00 0. -1.
        -12    1    6    6    0    0 -0.70266118803E+02 -0.48004092418E+02  0.32499187469E+02  0.91092906017E+02  0.00000000000E+00 0.  1.
</event>
<event>
12    1  0.1032880E+000  0.1754220E+03  0.7818608E-02  0.1172339E+00
         21   -1    0    0  503  502  0.00000000000E+00  0.00000000000E+00  0.26128048777E+03  0.26128048777E+03  0.00000000000E+00 0. -1.
         21   -1    0    0  501  503 -0.00000000000E+00 -0.00000000000E+00 -0.11770688251E+03  0.11770688251E+03  0.00000000000E+00 0. -1.
          6    2    1    2  501    0 -0.35268119253E+02  0.78106199337E+01  0.69984881589E+02  0.18875549662E+03  0.17153981413E+03 0.  0.
         24    2    3    3    0    0  0.47044475930E+02  0.71644283420E+01  0.33675114153E+02  0.98665152512E+02  0.79600799355E+02 0.  0.
         -6    2    1    2    0  502  0.35268119253E+02 -0.78106199337E+01  0.73588723667E+02  0.19023187366E+03  0.17166251626E+03 0.  0.
        -24    2    5    5    0    0 -0.29730259727E+02 -0.36160689063E+02  0.54693382296E+01  0.91789726379E+02  0.78765198096E+02 0.  0.
          5    1    3    3  501    0 -0.82312595183E+02  0.64619159175E+00  0.36309767435E+02  0.90090344103E+02  0.47000000000E+01 0. -1.
        -13    1    4    4    0    0  0.37913756043E+02  0.68820762592E+01 -0.20553693348E+02  0.43672304510E+02  0.00000000000E+00 0.  1.
         14    1    4    4    0    0  0.91307198870E+01  0.28235208275E+00  0.54228807502E+02  0.54992848002E+02  0.00000000000E+00 0. -1.
         -5    1    5    5    0  502  0.64998378980E+02  0.28350069130E+02  0.68119385437E+02  0.98442147285E+02  0.47000000000E+01 0.  1.
         11    1    6    6    0    0  0.26946021575E+02 -0.14797371716E+02 -0.17537358274E+01  0.30791652729E+02  0.00000000000E+00 0. -1.
        -12    1    6    6    0    0 -0.56676281301E+02 -0.21363317347E+02  0.72230740570E+01  0.60998073650E+02  0.00000000000E+00 0.  1.
</event>
<event>
12    1  0.1032880E+000  0.1815077E+03  0.7818608E-02  0.1166375E+00
         21   -1    0    0  501  502  0.00000000000E+00  0.00000000000E+00  0.29124714647E+02  0.29124714647E+02  0.00000000000E+00 0. -1.
         21   -1    0    0  502  503 -0.00000000000E+00 -0.00000000000E+00 -0.11309381938E+04  0.11309381938E+04  0.00000000000E+00 0. -1.
         -6    2    1    2    0  503 -0.41896004117E+02  0.39463723894E+02 -0.54013425581E+03  0.56978449361E+03  0.17203689778E+03 0.  0.
        -24    2    3    3    0    0 -0.76548861683E+02 -0.48799091658E+01 -0.44404878506E+03  0.45833187579E+03  0.83697330374E+02 0.  0.
          6    2    1    2  501    0  0.41896004117E+02 -0.39463723894E+02 -0.56167922336E+03  0.59027841486E+03  0.17214062978E+03 0.  0.
         24    2    5    5    0    0  0.84263378776E+02 -0.33711877156E+02 -0.27575901998E+03  0.30114085091E+03  0.80037287107E+02 0.  0.
          5    1    5    5  501    0 -0.42367374659E+02 -0.57518467378E+01 -0.28592020339E+03  0.28913756394E+03  0.47000000000E+01 0. -1.
        -13    1    6    6    0    0  0.25488798869E+02 -0.50558407009E+02 -0.16748286111E+03  0.17679462705E+03  0.00000000000E+00 0.  1.
         14    1    6    6    0    0  0.58774579907E+02  0.16846529853E+02 -0.10827615886E+03  0.12434622387E+03  0.00000000000E+00 0. -1.
         -5    1    3    3    0  503  0.34652857566E+02  0.44343633059E+02 -0.96085470742E+02  0.11145261782E+03  0.47000000000E+01 0.  1.
         11    1    4    4    0    0 -0.83823754084E+00 -0.13884686277E+02 -0.24162747188E+03  0.24202752389E+03  0.00000000000E+00 0. -1.
        -12    1    4    4    0    0 -0.75710624142E+02  0.90047771107E+01 -0.20242131318E+03  0.21630435190E+03  0.00000000000E+00 0.  1.
</event>
<event>
12    1  0.1032880E+000  0.1925981E+03  0.7818608E-02  0.1156154E+00
         21   -1    0    0  503  502  0.00000000000E+00  0.00000000000E+00  0.18219137773E+04  0.18219137773E+04  0.00000000000E+00 0. -1.
         21   -1    0    0  501  503 -0.00000000000E+00 -0.00000000000E+00 -0.20359754002E+02  0.20359754002E+02  0.00000000000E+00 0. -1.
          6    2    1    2  501    0 -0.85485442553E+02 -0.12613091621E+02  0.88355003407E+03  0.90428346665E+03  0.17204962763E+03 0.  0.
         24    2    3    3    0    0 -0.20963000764E-01 -0.55779558690E+02  0.37651487203E+03  0.38826576667E+03  0.76651791223E+02 0.  0.
         -6    2    1    2    0  502  0.85485442553E+02  0.12613091621E+02  0.91800398927E+03  0.93799006470E+03  0.17212549548E+03 0.  0.
        -24    2    5    5    0    0  0.58468234166E+02  0.18520309812E+02  0.89718557917E+03  0.90305697187E+03  0.82512997086E+02 0.  0.
          5    1    3    3  501    0 -0.85464479552E+02  0.43166467068E+02  0.50703516204E+03  0.51601769998E+03  0.47000000000E+01 0. -1.
        -13    1    4    4    0    0  0.33963389681E+02 -0.15052812843E+02  0.99297846665E+02  0.10601962727E+03  0.00000000000E+00 0.  1.
         14    1    4    4    0    0 -0.33984352681E+02 -0.40726745846E+02  0.27721702537E+03  0.28224613940E+03  0.00000000000E+00 0. -1.
         -5    1    5    5    0  502  0.27017208387E+02 -0.59072181904E+01  0.20818410101E+02  0.34933092833E+02  0.47000000000E+01 0.  1.
         13    1    6    6    0    0  0.45219820105E+02  0.41905787309E+02  0.36319986417E+03  0.36839526120E+03  0.00000000000E+00 0. -1.
        -14    1    6    6    0    0  0.13248414061E+02 -0.23385477497E+02  0.53398571500E+03  0.53466171067E+03  0.00000000000E+00 0.  1.
</event>
<event>
12    1  0.1032880E+000  0.7812042E+03  0.7818608E-02  0.9587885E-01
         21   -1    0    0  501  502  0.00000000000E+00  0.00000000000E+00  0.10459756515E+04  0.10459756515E+04  0.00000000000E+00 0. -1.
         21   -1    0    0  502  503 -0.00000000000E+00 -0.00000000000E+00 -0.12824630860E+04  0.12824630860E+04  0.00000000000E+00 0.  1.
         -6    2    1    2    0  503  0.49196380986E+03 -0.58139174339E+03  0.74156279533E+03  0.10771236670E+04  0.17388290600E+03 0.  0.
        -24    2    3    3    0    0  0.38202529735E+03 -0.53303242019E+03  0.65696768468E+03  0.93014229596E+03  0.59086912510E+02 0.  0.
          6    2    1    2  501    0 -0.49196380986E+03  0.58139174339E+03 -0.97805022985E+03  0.12513150706E+04  0.17077003308E+03 0.  0.
         24    2    5    5    0    0 -0.49122481316E+03  0.52490182021E+03 -0.89967560365E+03  0.11545869486E+04  0.82650421934E+02 0.  0.
          5    1    5    5  501    0 -0.73899669905E+00  0.56489923183E+02 -0.78374626202E+02  0.96728121917E+02  0.47000000000E+01 0. -1.
        -11    1    6    6    0    0 -0.85055191301E+02  0.63847497591E+02 -0.17161567661E+03  0.20189806580E+03  0.00000000000E+00 0.  1.
         12    1    6    6    0    0 -0.40616962186E+03  0.46105432262E+03 -0.72805992704E+03  0.95268888284E+03  0.00000000000E+00 0. -1.
         -5    1    3    3    0  503  0.10993851251E+03 -0.48359323200E+02  0.84595110652E+02  0.14698137099E+03  0.47000000000E+01 0.  1.
         11    1    4    4    0    0  0.12395915703E+03 -0.13828951983E+03  0.16164685471E+03  0.24621041721E+03  0.00000000000E+00 0. -1.
        -12    1    4    4    0    0  0.25806614032E+03 -0.39474290036E+03  0.49532082997E+03  0.68393187875E+03  0.00000000000E+00 0.  1.
</event>
<event>
12    1  0.1032880E+000  0.1863313E+03  0.7818608E-02  0.1161886E+00
         21   -1    0    0  501  502  0.00000000000E+00  0.00000000000E+00  0.12155343313E+04  0.12155343313E+04  0.00000000000E+00 0. -1.
         21   -1    0    0  502  503 -0.00000000000E+00 -0.00000000000E+00 -0.31021066277E+02  0.31021066277E+02  0.00000000000E+00 0. -1.
         -6    2    1    2    0  503  0.67935553678E+02 -0.24814348815E+02  0.41461241985E+03  0.45442746242E+03  0.17137639435E+03 0.  0.
        -24    2    3    3    0    0  0.62372631923E+02 -0.14105848815E+02  0.11141471982E+03  0.15095332287E+03  0.79273865228E+02 0.  0.
          6    2    1    2  501    0 -0.67935553678E+02  0.24814348815E+02  0.76990084515E+03  0.79212793514E+03  0.17172176015E+03 0.  0.
         24    2    5    5    0    0 -0.96317439632E+02  0.26579660144E+02  0.37547634169E+03  0.39665173269E+03  0.79790891510E+02 0.  0.
          5    1    5    5  501    0  0.28381885953E+02 -0.17653113285E+01  0.39442450346E+03  0.39547620245E+03  0.47000000000E+01 0. -1.
        -11    1    6    6    0    0 -0.86580330243E+02 -0.10104095512E+02  0.29617258150E+03  0.30873361392E+03  0.00000000000E+00 0.  1.
         12    1    6    6    0    0 -0.97371093890E+01  0.36683755656E+02  0.79303760189E+02  0.87918118772E+02  0.00000000000E+00 0. -1.
         -5    1    3    3    0  503  0.55629217556E+01 -0.10708500000E+02  0.30319770003E+03  0.30347413954E+03  0.47000000000E+01 0.  1.
         13    1    4    4    0    0 -0.18398255978E+02  0.34488009622E+01  0.15226886170E+02  0.24129817934E+02  0.00000000000E+00 0. -1.
        -14    1    4    4    0    0  0.80770887901E+02 -0.17554649777E+02  0.96187833654E+02  0.12682350494E+03  0.00000000000E+00 0.  1.
</event>
<event>
12    1  0.1032880E+000  0.2879779E+03  0.7818608E-02  0.1091433E+00
         21   -1    0    0  503  502  0.00000000000E+00  0.00000000000E+00  0.10563204804E+04  0.10563204804E+04  0.00000000000E+00 0.  1.
         21   -1    0    0  501  503 -0.00000000000E+00 -0.00000000000E+00 -0.19685319369E+03  0.19685319369E+03  0.00000000000E+00 0.  1.
          6    2    1    2  501    0  0.11019473741E+03 -0.20342622746E+03 -0.56140065607E+02  0.29339898844E+03  0.17148221273E+03 0.  0.
         24    2    3    3    0    0  0.14317691451E+02 -0.27776748279E+02 -0.31587655866E+02  0.91730799823E+02  0.80250953886E+02 0.  0.
         -6    2    1    2    0  502 -0.11019473741E+03  0.20342622746E+03  0.91560735231E+03  0.95977468564E+03  0.17118853183E+03 0.  0.
        -24    2    5    5    0    0 -0.94999395153E+02  0.21187991472E+03  0.90729690387E+03  0.93993742757E+03  0.79854321323E+02 0.  0.
          5    1    3    3  501    0  0.95877045958E+02 -0.17564947918E+03 -0.24552409741E+02  0.20166818862E+03  0.47000000000E+01 0. -1.
        -13    1    4    4    0    0  0.24494459355E+01 -0.17416520313E+02  0.26354961484E+02  0.31684680210E+02  0.00000000000E+00 0.  1.
         14    1    4    4    0    0  0.11868245516E+02 -0.10360227967E+02 -0.57942617350E+02  0.60046119613E+02  0.00000000000E+00 0. -1.
         -5    1    5    5    0  502 -0.15195342256E+02 -0.84536872651E+01  0.83104484404E+01  0.19837258075E+02  0.47000000000E+01 0.  1.
         11    1    6    6    0    0 -0.13593410802E+02  0.20796436339E+02  0.32994741341E+02  0.41302851449E+02  0.00000000000E+00 0. -1.
        -12    1    6    6    0    0 -0.81405984351E+02  0.19108347839E+03  0.87430216253E+03  0.89863457612E+03  0.00000000000E+00 0.  1.
</event>
<event>
12    1  0.1032880E+000  0.2455050E+03  0.7818608E-02  0.1116616E+00
         21   -1    0    0  501  502  0.00000000000E+00  0.00000000000E+00  0.59362440805E+03  0.59362440805E+03  0.00000000000E+00 0. -1.
         21   -1    0    0  502  503 -0.00000000000E+00 -0.00000000000E+00 -0.10370403421E+03  0.10370403421E+03  0.00000000000E+00 0. -1.
         -6    2    1    2    0  503 -0.15098648234E+03 -0.89056992421E+02  0.30825018795E+03  0.39406964571E+03  0.17188554783E+03 0.  0.
        -24    2    3    3    0    0 -0.40854090893E+02  0.18950463999E+02  0.99686096081E+02  0.13461671220E+03  0.78461230072E+02 0.  0.
          6    2    1    2  501    0  0.15098648234E+03  0.89056992421E+02  0.18167018589E+03  0.30325879654E+03  0.16802909120E+03 0.  0.
         24    2    5    5    0    0  0.13717427037E+03  0.87013010532E+02  0.75670507319E+02  0.19624021442E+03  0.79975944054E+02 0.  0.
          5    1    5    5  501    0  0.13812211972E+02  0.20439818895E+01  0.10599967857E+03  0.10701858212E+03  0.47000000000E+01 0. -1.
        -13    1    6    6    0    0  0.18169837385E+02 -0.27161403364E+01 -0.13283762323E+02  0.22671099452E+02  0.00000000000E+00 0.  1.
         14    1    6    6    0    0  0.11900443298E+03  0.89729150868E+02  0.88954269642E+02  0.17356911497E+03  0.00000000000E+00 0. -1.
         -5    1    3    3    0  503 -0.11013239145E+03 -0.10800745642E+03  0.20856409187E+03  0.25945293351E+03  0.47000000000E+01 0.  1.
         11    1    4    4    0    0 -0.57712335181E+01 -0.10754814457E+02 -0.99409773119E+01  0.15741543770E+02  0.00000000000E+00 0. -1.
        -12    1    4    4    0    0 -0.35082857375E+02  0.29705278456E+02  0.10962707339E+03  0.11887516843E+03  0.00000000000E+00 0.  1.
</event>
<event>
12    1  0.1032880E+000  0.2079433E+03  0.7818608E-02  0.1143687E+00
         21   -1    0    0  503  502  0.00000000000E+00  0.00000000000E+00  0.15529771881E+03  0.15529771881E+03  0.00000000000E+00 0. -1.
         21   -1    0    0  501  503 -0.00000000000E+00 -0.00000000000E+00 -0.63797533266E+03  0.63797533266E+03  0.00000000000E+00 0. -1.
          6    2    1    2  501    0 -0.97236799695E+02  0.49083420116E+02 -0.54101453988E+03  0.57960086835E+03  0.17713344371E+03 0.  0.
         24    2    3    3    0    0 -0.65922073217E+02 -0.30138186792E+02 -0.21959779621E+03  0.24705389692E+03  0.86939092708E+02 0.  0.
         -6    2    1    2    0  502  0.97236799695E+02 -0.49083420116E+02  0.58336926030E+02  0.21367218312E+03  0.17432276832E+03 0.  0.
        -24    2    5    5    0    0 -0.11808801716E+02 -0.19040189619E+02  0.54890557344E+02  0.10041360136E+03  0.81042837026E+02 0.  0.
          5    1    3    3  501    0 -0.31314726479E+02  0.79221606909E+02 -0.32141674367E+03  0.33254697143E+03  0.47000000000E+01 0. -1.
        -11    1    4    4    0    0 -0.14629391855E+02 -0.17841265855E+02 -0.20048894312E+01  0.23159219654E+02  0.00000000000E+00 0.  1.
         12    1    4    4    0    0 -0.51292681362E+02 -0.12296920937E+02 -0.21759290678E+03  0.22389467726E+03  0.00000000000E+00 0. -1.
         -5    1    5    5    0  502  0.10904560141E+03 -0.30043230497E+02  0.34463686853E+01  0.11325858176E+03  0.47000000000E+01 0.  1.
         11    1    6    6    0    0 -0.77488935537E+01  0.15963209749E+01  0.72532108678E+02  0.72962321655E+02  0.00000000000E+00 0. -1.
        -12    1    6    6    0    0 -0.40599081621E+01 -0.20636510594E+02 -0.17641551334E+02  0.27451279702E+02  0.00000000000E+00 0.  1.
</event>
<event>
12    1  0.1032880E+000  0.2608743E+03  0.7818608E-02  0.1106834E+00
         21   -1    0    0  501  502  0.00000000000E+00  0.00000000000E+00  0.33857775671E+03  0.33857775671E+03  0.00000000000E+00 0. -1.
         21   -1    0    0  502  503 -0.00000000000E+00 -0.00000000000E+00 -0.22050586900E+03  0.22050586900E+03  0.00000000000E+00 0. -1.
         -6    2    1    2    0  503 -0.11666966174E+03 -0.15504922896E+03 -0.26267541053E+02  0.26219339292E+03  0.17436547310E+03 0.  0.
        -24    2    3    3    0    0 -0.84166310897E+02 -0.52698637811E+02 -0.70197947316E+02  0.14607241326E+03  0.80921466805E+02 0.  0.
          6    2    1    2  501    0  0.11666966174E+03  0.15504922896E+03  0.14433942877E+03  0.29689023279E+03  0.17221459362E+03 0.  0.
         24    2    5    5    0    0  0.13175118689E+03  0.13831102099E+03  0.16586021981E+03  0.26538063975E+03  0.80180781134E+02 0.  0.
          5    1    5    5  501    0 -0.15081525145E+02  0.16738207965E+02 -0.21520791040E+02  0.31509593041E+02  0.47000000000E+01 0. -1.
        -13    1    6    6    0    0  0.30575292156E+02  0.89936809168E+02  0.73917820651E+02  0.12036329317E+03  0.00000000000E+00 0.  1.
         14    1    6    6    0    0  0.10117589473E+03  0.48374211825E+02  0.91942399159E+02  0.14501734658E+03  0.00000000000E+00 0. -1.
         -5    1    3    3    0  503 -0.32503350845E+02 -0.10235059115E+03  0.43930406263E+02  0.11612097967E+03  0.47000000000E+01 0.  1.
         13    1    4    4    0    0  0.99671679504E+01  0.59758392855E+01 -0.22510726902E+02  0.25333533464E+02  0.00000000000E+00 0. -1.
        -14    1    4    4    0    0 -0.94133478848E+02 -0.58674477096E+02 -0.47687220414E+02  0.12073887979E+03  0.00000000000E+00 0.  1.
</event>
<event>
12    1  0.1032880E+000  0.1846465E+03  0.7818608E-02  0.1163512E+00
         21   -1    0    0  501  502  0.00000000000E+00  0.00000000000E+00  0.44713434398E+03  0.44713434398E+03  0.00000000000E+00 0. -1.
         21   -1    0    0  502  503 -0.00000000000E+00 -0.00000000000E+00 -0.76819349322E+02  0.76819349322E+02  0.00000000000E+00 0.  1.
         -6    2    1    2    0  503 -0.59684827770E+02 -0.27260228477E+02  0.21217323096E+03  0.28126823147E+03  0.17259472580E+03 0.  0.
        -24    2    3    3    0    0 -0.12610205578E+02  0.88111327442E+01  0.20605640525E+03  0.22146297491E+03  0.79686597158E+02 0.  0.
          6    2    1    2  501    0  0.59684827770E+02  0.27260228477E+02  0.15814176370E+03  0.24268546183E+03  0.17199423605E+03 0.  0.
         24    2    5    5    0    0  0.97932541244E+02 -0.81252460946E+01  0.13313204991E+03  0.18469757361E+03  0.82050281687E+02 0.  0.
          5    1    5    5  501    0 -0.38247713474E+02  0.35385474572E+02  0.25009713785E+02  0.57987888220E+02  0.47000000000E+01 0. -1.
        -11    1    6    6    0    0  0.67536657656E+02  0.28460200123E+02  0.49349075255E+02  0.88354481193E+02  0.00000000000E+00 0.  1.
         12    1    6    6    0    0  0.30395883588E+02 -0.36585446218E+02  0.83782974656E+02  0.96343092416E+02  0.00000000000E+00 0. -1.
         -5    1    3    3    0  503 -0.47074622192E+02 -0.36071361221E+02  0.61168257056E+01  0.59805256555E+02  0.47000000000E+01 0.  1.
         13    1    4    4    0    0  0.18172144952E+02 -0.11383778983E+02  0.13323750445E+02  0.25245585793E+02  0.00000000000E+00 0. -1.
        -14    1    4    4    0    0 -0.30782350530E+02  0.20194911727E+02  0.19273265481E+03  0.19621738912E+03  0.00000000000E+00 0.  1.
</event>
<event>
12    1  0.1032880E+000  0.1746793E+03  0.7818608E-02  0.1173084E+00
         21   -1    0    0  503  502  0.00000000000E+00  0.00000000000E+00  0.60297594788E+02  0.60297594788E+02  0.00000000000E+00 0.  1.
         21   -1    0    0  501  503 -0.00000000000E+00 -0.00000000000E+00 -0.51971796557E+03  0.51971796557E+03  0.00000000000E+00 0.  1.
          6    2    1    2  501    0 -0.30019125167E+02 -0.89428309517E+01 -0.18200349428E+03  0.25218484939E+03  0.17172886836E+03 0.  0.
         24    2    3    3    0    0  0.21703549039E+02 -0.28011246932E+02 -0.35017311492E+02  0.95131140595E+02  0.81043493330E+02 0.  0.
         -6    2    1    2    0  502  0.30019125167E+02  0.89428309517E+01 -0.27741687650E+03  0.32783071097E+03  0.17184798394E+03 0.  0.
        -24    2    5    5    0    0 -0.42551684787E+02 -0.91800810938E+01 -0.98287558237E+02  0.13365459230E+03  0.79424090631E+02 0.  0.
          5    1    3    3  501    0 -0.51722674206E+02  0.19068415980E+02 -0.14698618279E+03  0.15705370879E+03  0.47000000000E+01 0. -1.
        -11    1    4    4    0    0  0.25117084965E+02 -0.52244948540E+02 -0.77382318781E+01  0.58483184230E+02  0.00000000000E+00 0.  1.
         12    1    4    4    0    0 -0.34135359259E+01  0.24233701608E+02 -0.27279079614E+02  0.36647956365E+02  0.00000000000E+00 0. -1.
         -5    1    5    5    0  502  0.72570809953E+02  0.18122912045E+02 -0.17912931827E+03  0.19417611867E+03  0.47000000000E+01 0.  1.
         13    1    6    6    0    0 -0.33825813790E+02  0.57801370208E+01 -0.47378305571E+00  0.34319384216E+02  0.00000000000E+00 0. -1.
        -14    1    6    6    0    0 -0.87258709963E+01 -0.14960218115E+02 -0.97813775182E+02  0.99335208088E+02  0.00000000000E+00 0.  1.
</event>
<event>
12    1  0.1032880E+000  0.2142338E+03  0.7818608E-02  0.1139442E+00
         21   -1    0    0  501  502  0.00000000000E+00  0.00000000000E+00  0.66653915182E+03  0.66653915182E+03  0.00000000000E+00 0.  1.
         21   -1    0    0  502  503 -0.00000000000E+00 -0.00000000000E+00 -0.85962933405E+02  0.85962933405E+02  0.00000000000E+00 0. -1.
         -6    2    1    2    0  503 -0.70418510575E+02 -0.10406958382E+03  0.47057167442E+03  0.51704333215E+03  0.17351328954E+03 0.  0.
        -24    2    3    3    0    0 -0.47127130271E+02  0.10816795773E+02  0.16094288483E+03  0.18593391526E+03  0.79566570792E+02 0.  0.
          6    2    1    2  501    0  0.70418510575E+02  0.10406958382E+03  0.11000454399E+03  0.23545875307E+03  0.16598367326E+03 0.  0.
         24    2    5    5    0    0  0.53812870733E+02  0.72841893088E+02  0.14629870885E+03  0.18456403482E+03  0.66774278690E+02 0.  0.
          5    1    5    5  501    0  0.16605639842E+02  0.31227690733E+02 -0.36294164855E+02  0.50894718248E+02  0.47000000000E+01 0. -1.
        -13    1    6    6    0    0  0.45783430911E+02  0.81141662589E+01  0.71882321253E+02  0.85609756154E+02  0.00000000000E+00 0.  1.
         14    1    6    6    0    0  0.80294398227E+01  0.64727726829E+02  0.74416387594E+02  0.98954278669E+02  0.00000000000E+00 0. -1.
         -5    1    3    3    0  503 -0.23291380304E+02 -0.11488637959E+03  0.30962878959E+03  0.33110941689E+03  0.47000000000E+01 0.  1.
         13    1    4    4    0    0  0.94360453688E+01  0.13308237952E+02  0.10899434759E+01  0.16350416703E+02  0.00000000000E+00 0. -1.
        -14    1    4    4    0    0 -0.56563175640E+02 -0.24914421794E+01  0.15985294136E+03  0.16958349856E+03  0.00000000000E+00 0.  1.
</event>
<event>
12    1  0.1032880E+000  0.4256542E+03  0.7818608E-02  0.1035246E+00
         21   -1    0    0  501  502  0.00000000000E+00  0.00000000000E+00  0.20330568030E+03  0.20330568030E+03  0.00000000000E+00 0. -1.
         21   -1    0    0  502  503 -0.00000000000E+00 -0.00000000000E+00 -0.15175197656E+04  0.15175197656E+04  0.00000000000E+00 0.  1.
         -6    2    1    2    0  503 -0.52463409163E+02  0.38579225145E+03 -0.10431162068E+03  0.43824930260E+03  0.17202751652E+03 0.  0.
        -24    2    3    3    0    0  0.33454715182E+01  0.10331054951E+03  0.33354106043E+01  0.13080741144E+03  0.80094894368E+02 0.  0.
          6    2    1    2  501    0  0.52463409163E+02 -0.38579225145E+03 -0.12099024646E+04  0.12825761433E+04  0.17189973506E+03 0.  0.
         24    2    5    5    0    0  0.10351844346E+03 -0.26157959113E+03 -0.83720818427E+03  0.88639623706E+03  0.75105223724E+02 0.  0.
          5    1    5    5  501    0 -0.51055034300E+02 -0.12421266032E+03 -0.37269428037E+03  0.39617990626E+03  0.47000000000E+01 0. -1.
        -11    1    6    6    0    0  0.86328085953E+02 -0.12009835608E+03 -0.45797558358E+03  0.48126685811E+03  0.00000000000E+00 0.  1.
         12    1    6    6    0    0  0.17190357509E+02 -0.14148123506E+03 -0.37923260069E+03  0.40512937895E+03  0.00000000000E+00 0. -1.
         -5    1    3    3    0  503 -0.55808880681E+02  0.28248170194E+03 -0.10764703129E+03  0.30744189116E+03  0.47000000000E+01 0.  1.
         11    1    4    4    0    0 -0.26418218785E+02  0.84989741930E+02  0.21294323761E+02  0.91512986737E+02  0.00000000000E+00 0. -1.
        -12    1    4    4    0    0  0.29763690303E+02  0.18320807576E+02 -0.17958913157E+02  0.39294424700E+02  0.00000000000E+00 0.  1.
</event>
<event>
12    1  0.1720033E+000  0.2061977E+03  0.7818608E-02  0.1144933E+00
         21   -1    0    0  501  502  0.00000000000E+00  0.00000000000E+00  0.12231218047E+03  0.12231218047E+03  0.00000000000E+00 0.  1.
         21   -1    0    0  502  503 -0.00000000000E+00 -0.00000000000E+00 -0.11871121200E+04  0.11871121200E+04  0.00000000000E+00 0.  1.
         -6    2    1    2    0  503 -0.63888559472E+01 -0.11063295576E+03  0.18446097244E+02  0.20702112862E+03  0.17388795477E+03 0.  0.
        -24    2    3    3    0    0  0.14357488332E+02 -0.99157401949E+02  0.73088415479E+02  0.14727188530E+03  0.79427727456E+02 0.  0.
          6    2    1    2  501    0  0.63888559472E+01  0.11063295576E+03 -0.10832460368E+04  0.11024031718E+04  0.17201833832E+03 0.  0.
         24    2    5    5    0    0  0.59414017574E+02  0.67536603421E+02 -0.87222997615E+03  0.88054999699E+03  0.80572623236E+02 0.  0.
          5    1    5    5  501    0 -0.53025161627E+02  0.43096352340E+02 -0.21101606060E+03  0.22185317483E+03  0.47000000000E+01 0. -1.
        -11    1    6    6    0    0  0.71571080051E+01 -0.18376651264E+02 -0.11615882608E+03  0.11782104389E+03  0.00000000000E+00 0.  1.
         12    1    6    6    0    0  0.52256909569E+02  0.85913254685E+02 -0.75607115007E+03  0.76272895310E+03  0.00000000000E+00 0. -1.
         -5    1    3    3    0  503 -0.20746344279E+02 -0.11475553812E+02 -0.54642318235E+02  0.59749243329E+02  0.47000000000E+01 0.  1.
         13    1    4    4    0    0 -0.17507443731E+02 -0.80228993035E+02  0.23595396806E+02  0.85439713599E+02  0.00000000000E+00 0. -1.
        -14    1    4    4    0    0  0.31864932063E+02 -0.18928408914E+02  0.49493018673E+02  0.61832171697E+02  0.00000000000E+00 0.  1.
</event>
<event>
12    1  0.1032880E+000  0.2133874E+03  0.7818608E-02  0.1138924E+00
         21   -1    0    0  501  502  0.00000000000E+00  0.00000000000E+00  0.60224233784E+03  0.60224233784E+03  0.00000000000E+00 0. -1.
         21   -1    0    0  502  503 -0.00000000000E+00 -0.00000000000E+00 -0.77684869749E+02  0.77684869749E+02  0.00000000000E+00 0. -1.
         -6    2    1    2    0  503  0.99905375069E+02  0.78871046978E+02  0.31823187467E+03  0.38315232851E+03  0.17126720283E+03 0.  0.
        -24    2    3    3    0    0  0.87209228634E+02 -0.93217583131E+01  0.23462919580E+03  0.26087943309E+03  0.72903184785E+02 0.  0.
          6    2    1    2  501    0 -0.99905375069E+02 -0.78871046978E+02  0.20632559342E+03  0.29677487908E+03  0.17118221968E+03 0.  0.
         24    2    5    5    0    0  0.10920239560E+02 -0.44777141485E+01  0.85117785514E+02  0.11641383139E+03  0.78535604483E+02 0.  0.
          5    1    5    5  501    0 -0.11082561463E+03 -0.74393332829E+02  0.12120780791E+03  0.18036104769E+03  0.47000000000E+01 0. -1.
        -13    1    6    6    0    0 -0.19816166978E+02  0.21466327884E+02  0.94236471277E+01  0.30696723469E+02  0.00000000000E+00 0.  1.
         14    1    6    6    0    0  0.30736406539E+02 -0.25944042033E+02  0.75694138386E+02  0.85717107919E+02  0.00000000000E+00 0. -1.
         -5    1    3    3    0  503  0.12696146434E+02  0.88192805291E+02  0.83602678873E+02  0.12227289542E+03  0.47000000000E+01 0.  1.
         11    1    4    4    0    0  0.66656967431E+02 -0.48485951679E+01  0.77450946413E+02  0.10230009424E+03  0.00000000000E+00 0. -1.
        -12    1    4    4    0    0  0.20552261203E+02 -0.44731631452E+01  0.15717824938E+03  0.15857933884E+03  0.00000000000E+00 0.  1.
</event>
<event>
12    1  0.1032880E+000  0.1951958E+03  0.7818608E-02  0.1154181E+00
         21   -1    0    0  501  502  0.00000000000E+00  0.00000000000E+00  0.86926688654E+02  0.86926688654E+02  0.00000000000E+00 0. -1.
         21   -1    0    0  502  503 -0.00000000000E+00 -0.00000000000E+00 -0.46560917997E+03  0.46560917997E+03  0.00000000000E+00 0. -1.
         -6    2    1    2    0  503 -0.40836958686E+02 -0.80936244724E+02 -0.11782504789E+03  0.22673224628E+03  0.17119122842E+03 0.  0.
        -24    2    3    3    0    0 -0.83192449736E+02 -0.31292491272E+02 -0.69967552772E+02  0.14567103658E+03  0.91784469031E+02 0.  0.
          6    2    1    2  501    0  0.40836958686E+02  0.80936244724E+02 -0.26085744343E+03  0.32580362235E+03  0.17286717917E+03 0.  0.
         24    2    5    5    0    0  0.12687960857E+02  0.12148907720E+03 -0.18786052194E+03  0.23755658926E+03  0.78873171411E+02 0.  0.
          5    1    5    5  501    0  0.28148997829E+02 -0.40552832478E+02 -0.72996921496E+02  0.88247033087E+02  0.47000000000E+01 0. -1.
        -11    1    6    6    0    0 -0.31308345985E+02  0.31519659648E+02 -0.46470848108E+02  0.64290288509E+02  0.00000000000E+00 0.  1.
         12    1    6    6    0    0  0.43996306842E+02  0.89969417554E+02 -0.14138967383E+03  0.17326630075E+03  0.00000000000E+00 0. -1.
         -5    1    3    3    0  503  0.42355491050E+02 -0.49643753452E+02 -0.47857495114E+02  0.81061209696E+02  0.47000000000E+01 0.  1.
         11    1    4    4    0    0 -0.69697490036E+02 -0.23312434906E+02 -0.92549415640E+02  0.11818038786E+03  0.00000000000E+00 0. -1.
        -12    1    4    4    0    0 -0.13494959700E+02 -0.79800563655E+01  0.22581862867E+02  0.27490648728E+02  0.00000000000E+00 0.  1.
</event>
<event>
12    1  0.1032880E+000  0.1794329E+03  0.7818608E-02  0.1169898E+00
         21   -1    0    0  501  502  0.00000000000E+00  0.00000000000E+00  0.39147755143E+03  0.39147755143E+03  0.00000000000E+00 0. -1.
         21   -1    0    0  502  503 -0.00000000000E+00 -0.00000000000E+00 -0.80776206577E+02  0.80776206577E+02  0.00000000000E+00 0. -1.
         -6    2    1    2    0  503 -0.39575257872E+02 -0.29879203815E+02  0.12192135172E+03  0.21180407204E+03  0.16594330680E+03 0.  0.
        -24    2    3    3    0    0 -0.66322118615E+02 -0.14576708208E+02  0.14100917307E+03  0.17525279497E+03  0.78859694504E+02 0.  0.
          6    2    1    2  501    0  0.39575257872E+02  0.29879203815E+02  0.18877999314E+03  0.26044968597E+03  0.17244473102E+03 0.  0.
         24    2    5    5    0    0  0.13338528139E+02 -0.24163685589E+02  0.31240104803E+02  0.91778685798E+02  0.81765414355E+02 0.  0.
          5    1    5    5  501    0  0.26236729733E+02  0.54042889404E+02  0.15753988833E+03  0.16867100017E+03  0.47000000000E+01 0. -1.
        -11    1    6    6    0    0  0.95373353644E+01 -0.10878559877E+02  0.59011710640E+02  0.60759244758E+02  0.00000000000E+00 0.  1.
         12    1    6    6    0    0  0.38011927750E+01 -0.13285125712E+02 -0.27771605837E+02  0.31019441041E+02  0.00000000000E+00 0. -1.
         -5    1    3    3    0  503  0.26746860743E+02 -0.15302495607E+02 -0.19087821349E+02  0.36551277067E+02  0.47000000000E+01 0.  1.
         13    1    4    4    0    0 -0.38844595679E+02 -0.46388252068E+02  0.97552837468E+02  0.11479254611E+03  0.00000000000E+00 0. -1.
        -14    1    4    4    0    0 -0.27477522936E+02  0.31811543860E+02  0.43456335597E+02  0.60460248866E+02  0.00000000000E+00 0.  1.
</event>
<event>
12    1  0.1032880E+000  0.2001207E+03  0.7818608E-02  0.1149867E+00
         21   -1    0    0  501  502  0.00000000000E+00  0.00000000000E+00  0.50948875405E+02  0.50948875405E+02  0.00000000000E+00 0.  1.
         21   -1    0    0  502  503 -0.00000000000E+00 -0.00000000000E+00 -0.81228775250E+03  0.81228775250E+03  0.00000000000E+00 0.  1.
         -6    2    1    2    0  503 -0.10179806565E+03  0.10336832102E+02 -0.46530385678E+03  0.50651355135E+03  0.17198430828E+03 0.  0.
        -24    2    3    3    0    0 -0.55912610702E+02 -0.33204340654E+02 -0.13205671910E+03  0.16728346207E+03  0.79473463168E+02 0.  0.
          6    2    1    2  501    0  0.10179806565E+03 -0.10336832102E+02 -0.29603502031E+03  0.35672307655E+03  0.17071884438E+03 0.  0.
         24    2    5    5    0    0  0.42917971811E+02 -0.68989208610E+02 -0.15459042279E+03  0.19260229515E+03  0.81215651625E+02 0.  0.
          5    1    5    5  501    0  0.58880093842E+02  0.58652376508E+02 -0.14144459752E+03  0.16412078141E+03  0.47000000000E+01 0. -1.
        -13    1    6    6    0    0 -0.59455163859E+01 -0.80691183321E+01 -0.91933973234E+02  0.92478728745E+02  0.00000000000E+00 0.  1.
         14    1    6    6    0    0  0.48863488197E+02 -0.60920090278E+02 -0.62656449556E+02  0.10012356640E+03  0.00000000000E+00 0. -1.
         -5    1    3    3    0  503 -0.45885454952E+02  0.43541172757E+02 -0.33324713768E+03  0.33923008928E+03  0.47000000000E+01 0.  1.
         13    1    4    4    0    0 -0.24400792265E+02  0.65974269320E+01 -0.10834214091E+03  0.11125171550E+03  0.00000000000E+00 0. -1.
        -14    1    4    4    0    0 -0.31511818438E+02 -0.39801767586E+02 -0.23714578187E+02  0.56031746562E+02  0.00000000000E+00 0.  1.
</event>
<event>
12    1  0.1032880E+000  0.1976359E+03  0.7818608E-02  0.1152411E+00
         21   -1    0    0  501  502  0.00000000000E+00  0.00000000000E+00  0.56182871803E+03  0.56182871803E+03  0.00000000000E+00 0. -1.
         21   -1    0    0  502  503 -0.00000000000E+00 -0.00000000000E+00 -0.76823123785E+02  0.76823123785E+02  0.00000000000E+00 0. -1.
         -6    2    1    2    0  503 -0.52632276790E+02 -0.79120935176E+02  0.13876655560E+03  0.24148728261E+03  0.17329071460E+03 0.  0.
        -24    2    3    3    0    0 -0.37900091645E+02 -0.88334165751E+02  0.23111072432E+02  0.12443942196E+03  0.75575831336E+02 0.  0.
          6    2    1    2  501    0  0.52632276790E+02  0.79120935176E+02  0.34623903864E+03  0.39716455920E+03  0.16978791554E+03 0.  0.
         24    2    5    5    0    0 -0.44838161752E+01  0.74128604060E+02  0.31079411084E+03  0.32959530323E+03  0.80777039017E+02 0.  0.
          5    1    5    5  501    0  0.57116092965E+02  0.49923311168E+01  0.35444927803E+02  0.67569255972E+02  0.47000000000E+01 0. -1.
        -11    1    6    6    0    0  0.15512742820E+02  0.70589355994E+02  0.13958555030E+03  0.15718660319E+03  0.00000000000E+00 0.  1.
         12    1    6    6    0    0 -0.19996558996E+02  0.35392480660E+01  0.17120856054E+03  0.17240870004E+03  0.00000000000E+00 0. -1.
         -5    1    3    3    0  503 -0.14732185145E+02  0.92132305744E+01  0.11565548317E+03  0.11704786066E+03  0.47000000000E+01 0.  1.
         11    1    4    4    0    0 -0.20253053465E+02 -0.53328580054E+02  0.50847610974E+02  0.76417296255E+02  0.00000000000E+00 0. -1.
        -12    1    4    4    0    0 -0.17647038180E+02 -0.35005585697E+02 -0.27736538542E+02  0.48022125700E+02  0.00000000000E+00 0.  1.
</event>
<event>
12    1  0.1032880E+000  0.3013554E+03  0.7818608E-02  0.1084603E+00
         21   -1    0    0  501  502  0.00000000000E+00  0.00000000000E+00  0.37713382109E+03  0.37713382109E+03  0.00000000000E+00 0.  1.
         21   -1    0    0  502  503 -0.00000000000E+00 -0.00000000000E+00 -0.24797818836E+03  0.24797818836E+03  0.00000000000E+00 0.  1.
         -6    2    1    2    0  503 -0.66195059018E+02 -0.23825872916E+03  0.11860260527E+03  0.32357187793E+03  0.17170665203E+03 0.  0.
        -24    2    3    3    0    0 -0.31035336315E+02 -0.20751758230E+03  0.14987973605E+03  0.26716644273E+03  0.69908753233E+02 0.  0.
          6    2    1    2  501    0  0.66195059018E+02  0.23825872916E+03  0.10553027456E+02  0.30154013151E+03  0.17223842970E+03 0.  0.
         24    2    5    5    0    0  0.62334428548E+02  0.19047267207E+03 -0.52735650798E+02  0.22200423701E+03  0.79620428251E+02 0.  0.
          5    1    5    5  501    0  0.38606304699E+01  0.47786057086E+02  0.63288678254E+02  0.79535894504E+02  0.47000000000E+01 0. -1.
        -11    1    6    6    0    0  0.16781073554E+02  0.26728509814E+01 -0.19596278457E+02  0.25937669351E+02  0.00000000000E+00 0.  1.
         12    1    6    6    0    0  0.45553354994E+02  0.18779982109E+03 -0.33139372341E+02  0.19606656766E+03  0.00000000000E+00 0. -1.
         -5    1    3    3    0  503 -0.35159722703E+02 -0.30741146860E+02 -0.31277130774E+02  0.56405435202E+02  0.47000000000E+01 0.  1.
         11    1    4    4    0    0  0.13965964779E+02 -0.25717996255E+02  0.35233410018E+01  0.29476727012E+02  0.00000000000E+00 0. -1.
        -12    1    4    4    0    0 -0.45001301093E+02 -0.18179958605E+03  0.14635639505E+03  0.23768971572E+03  0.00000000000E+00 0.  1.
</event>
<event>
12    1  0.1032880E+000  0.2286334E+03  0.7818608E-02  0.1128425E+00
         21   -1    0    0  503  502  0.00000000000E+00  0.00000000000E+00  0.34336029931E+03  0.34336029931E+03  0.00000000000E+00 0.  1.
         21   -1    0    0  501  503 -0.00000000000E+00 -0.00000000000E+00 -0.14998673611E+03  0.14998673611E+03  0.00000000000E+00 0.  1.
          6    2    1    2  501    0 -0.64227556311E+02  0.13025755776E+03  0.77992209886E+02  0.23724918952E+03  0.17062292571E+03 0.  0.
         24    2    3    3    0    0 -0.42000476976E+02  0.23529673728E+02  0.61530339152E+02  0.12689536097E+03  0.99993821746E+02 0.  0.
         -6    2    1    2    0  502  0.64227556311E+02 -0.13025755776E+03  0.11538135331E+03  0.25609784590E+03  0.17658153822E+03 0.  0.
        -24    2    5    5    0    0 -0.65105395523E+01 -0.14271135991E+02  0.70823055115E+02  0.11304449858E+03  0.86701217267E+02 0.  0.
          5    1    3    3  501    0 -0.22227079335E+02  0.10672788404E+03  0.16461870734E+02  0.11035382855E+03  0.47000000000E+01 0. -1.
        -13    1    4    4    0    0 -0.18883558561E+02  0.62370388309E+02  0.29715343559E+02  0.71621615205E+02  0.00000000000E+00 0.  1.
         14    1    4    4    0    0 -0.23116918415E+02 -0.38840714581E+02  0.31814995593E+02  0.55273745764E+02  0.00000000000E+00 0. -1.
         -5    1    5    5    0  502  0.70738095864E+02 -0.11598642177E+03  0.44558298200E+02  0.14305334732E+03  0.47000000000E+01 0.  1.
         11    1    6    6    0    0  0.21172874536E+02  0.23345886953E+02  0.55616301738E+02  0.63925691805E+02  0.00000000000E+00 0. -1.
        -12    1    6    6    0    0 -0.27683414088E+02 -0.37617022944E+02  0.15206753377E+02  0.49118806775E+02  0.00000000000E+00 0.  1.
</event>
<event>
12    1  0.1032880E+000  0.3193540E+03  0.7818608E-02  0.1076080E+00
         21   -1    0    0  503  502  0.00000000000E+00  0.00000000000E+00  0.35859564205E+03  0.35859564205E+03  0.00000000000E+00 0. -1.
         21   -1    0    0  501  503 -0.00000000000E+00 -0.00000000000E+00 -0.34035538335E+03  0.34035538335E+03  0.00000000000E+00 0. -1.
          6    2    1    2  501    0 -0.23559362772E+03  0.12940397856E+03  0.15212010849E+03  0.35373368641E+03  0.17244490833E+03 0.  0.
         24    2    3    3    0    0 -0.16869118847E+03  0.15436151242E+03  0.88098881097E+02  0.25771482144E+03  0.79820566013E+02 0.  0.
         -6    2    1    2    0  502  0.23559362772E+03 -0.12940397856E+03 -0.13387984979E+03  0.34521733899E+03  0.17029812059E+03 0.  0.
        -24    2    5    5    0    0  0.24543132527E+03 -0.85181055598E+02 -0.12352616931E+03  0.29850828304E+03  0.79725359085E+02 0.  0.
          5    1    3    3  501    0 -0.66902439247E+02 -0.24957533858E+02  0.64021227389E+02  0.96018864968E+02  0.47000000000E+01 0. -1.
        -11    1    4    4    0    0 -0.13946447253E+02 -0.94148912690E+01  0.48978766829E+01  0.17525203696E+02  0.00000000000E+00 0.  1.
         12    1    4    4    0    0 -0.15474474122E+03  0.16377640369E+03  0.83201004415E+02  0.24018961775E+03  0.00000000000E+00 0. -1.
         -5    1    5    5    0  502 -0.98376975583E+01 -0.44222922962E+02 -0.10353680476E+02  0.46709055953E+02  0.47000000000E+01 0.  1.
         13    1    6    6    0    0  0.13134416080E+03 -0.78725659418E+02 -0.96780199887E+02  0.18115028324E+03  0.00000000000E+00 0. -1.
        -14    1    6    6    0    0  0.11408716447E+03 -0.64553961799E+01 -0.26745969425E+02  0.11735799980E+03  0.00000000000E+00 0.  1.
</event>
<event>
12    1  0.1032880E+000  0.1930697E+03  0.7818608E-02  0.1155732E+00
         21   -1    0    0  501  502  0.00000000000E+00  0.00000000000E+00  0.10759864295E+04  0.10759864295E+04  0.00000000000E+00 0. -1.
         21   -1    0    0  502  503 -0.00000000000E+00 -0.00000000000E+00 -0.41331959893E+02  0.41331959893E+02  0.00000000000E+00 0. -1.
         -6    2    1    2    0  503  0.82932457812E+02 -0.28225753547E+02  0.29240211188E+03  0.35036698079E+03  0.17199866417E+03 0.  0.
        -24    2    3    3    0    0  0.11162342371E+03  0.18379864113E+02  0.17427271449E+03  0.22009073718E+03  0.72604031918E+02 0.  0.
          6    2    1    2  501    0 -0.82932457812E+02  0.28225753547E+02  0.74225235770E+03  0.76695140858E+03  0.17205061721E+03 0.  0.
         24    2    5    5    0    0 -0.36364414191E+02 -0.31555105878E+02  0.58372667365E+03  0.59118219527E+03  0.80258726342E+02 0.  0.
          5    1    5    5  501    0 -0.46568043621E+02  0.59780859426E+02  0.15852568406E+03  0.17576921330E+03  0.47000000000E+01 0. -1.
        -11    1    6    6    0    0 -0.26753604737E+02 -0.35450420756E+02  0.13075527083E+03  0.13809210169E+03  0.00000000000E+00 0.  1.
         12    1    6    6    0    0 -0.96108094536E+01  0.38953148779E+01  0.45297140282E+03  0.45309009359E+03  0.00000000000E+00 0. -1.
         -5    1    3    3    0  503 -0.28690965901E+02 -0.46605617660E+02  0.11812939739E+03  0.13027624361E+03  0.47000000000E+01 0.  1.
         13    1    4    4    0    0 -0.80259483493E+00  0.21924234176E+01  0.56216198946E+02  0.56264659449E+02  0.00000000000E+00 0. -1.
        -14    1    4    4    0    0  0.11242601855E+03  0.16187440695E+02  0.11805651555E+03  0.16382607774E+03  0.00000000000E+00 0.  1.
</event>
<event>
12    1  0.1032880E+000  0.1785334E+03  0.7818608E-02  0.1169439E+00
         21   -1    0    0  501  502  0.00000000000E+00  0.00000000000E+00  0.24220805035E+03  0.24220805035E+03  0.00000000000E+00 0. -1.
         21   -1    0    0  502  503 -0.00000000000E+00 -0.00000000000E+00 -0.13110571733E+03  0.13110571733E+03  0.00000000000E+00 0. -1.
         -6    2    1    2    0  503 -0.15130654394E+02  0.42200812796E+02  0.49727706788E+02  0.18532950172E+03  0.17281300322E+03 0.  0.
        -24    2    3    3    0    0 -0.68216578897E+02  0.94539736901E+01  0.59488297777E+02  0.12202207729E+03  0.81287456098E+02 0.  0.
          6    2    1    2  501    0  0.15130654394E+02 -0.42200812796E+02  0.61374626227E+02  0.18798426595E+03  0.17193427290E+03 0.  0.
         24    2    5    5    0    0  0.36801118424E+02 -0.41720371293E+02 -0.23515726654E+02  0.10024429873E+03  0.80006364312E+02 0.  0.
          5    1    5    5  501    0 -0.21670464030E+02 -0.48044150315E+00  0.84890352881E+02  0.87739967219E+02  0.47000000000E+01 0. -1.
        -11    1    6    6    0    0  0.37156221524E+02 -0.17161167008E+02  0.23503403913E+02  0.47196402898E+02  0.00000000000E+00 0.  1.
         12    1    6    6    0    0 -0.35510309970E+00 -0.24559204285E+02 -0.47019130567E+02  0.53047895836E+02  0.00000000000E+00 0. -1.
         -5    1    3    3    0  503  0.53085924503E+02  0.32746839106E+02 -0.97605909890E+01  0.63307424432E+02  0.47000000000E+01 0.  1.
         13    1    4    4    0    0  0.86335758875E+01  0.14367513142E+02 -0.89469976661E+01  0.19000337727E+02  0.00000000000E+00 0. -1.
        -14    1    4    4    0    0 -0.76850154784E+02 -0.49135394517E+01  0.68435295443E+02  0.10302173956E+03  0.00000000000E+00 0.  1.
</event>
<event>
12    1  0.1032880E+000  0.1792971E+03  0.7818608E-02  0.1168876E+00
         21   -1    0    0  503  502  0.00000000000E+00  0.00000000000E+00  0.37723540842E+03  0.37723540842E+03  0.00000000000E+00 0. -1.
         21   -1    0    0  501  503 -0.00000000000E+00 -0.00000000000E+00 -0.10528282231E+03  0.10528282231E+03  0.00000000000E+00 0. -1.
          6    2    1    2  501    0  0.37079244662E+02 -0.20752560463E+02  0.24278079588E+03  0.30086345206E+03  0.17254206092E+03 0.  0.
         24    2    3    3    0    0 -0.44046379637E+02 -0.17870400381E+02  0.10162373170E+03  0.13796139396E+03  0.80290277188E+02 0.  0.
         -6    2    1    2    0  502 -0.37079244662E+02  0.20752560463E+02  0.29171790233E+02  0.18165477868E+03  0.17418933986E+03 0.  0.
        -24    2    5    5    0    0  0.21065817601E+02 -0.18992864079E+02 -0.29813252016E+02  0.89666343282E+02  0.79666338968E+02 0.  0.
          5    1    3    3  501    0  0.81125624299E+02 -0.28821600815E+01  0.14115706417E+03  0.16290205809E+03  0.47000000000E+01 0. -1.
        -11    1    4    4    0    0  0.14235616666E+02 -0.21208846231E+02  0.62951823572E+02  0.67936735507E+02  0.00000000000E+00 0.  1.
         12    1    4    4    0    0 -0.58281996303E+02  0.33384458500E+01  0.38671908129E+02  0.70024658458E+02  0.00000000000E+00 0. -1.
         -5    1    5    5    0  502 -0.58145062263E+02  0.39745424542E+02  0.58985042249E+02  0.91988435396E+02  0.47000000000E+01 0.  1.
         11    1    6    6    0    0 -0.72871110422E+01  0.11125229467E+01 -0.49280011668E+02  0.49828297629E+02  0.00000000000E+00 0. -1.
        -12    1    6    6    0    0  0.28352928643E+02 -0.20105387025E+02  0.19466759652E+02  0.39838045652E+02  0.00000000000E+00 0.  1.
</event>
<event>
12    1  0.1032880E+000  0.1898521E+03  0.7818608E-02  0.1159284E+00
         21   -1    0    0  501  502  0.00000000000E+00  0.00000000000E+00  0.10469003709E+03  0.10469003709E+03  0.00000000000E+00 0.  1.
         21   -1    0    0  502  503 -0.00000000000E+00 -0.00000000000E+00 -0.35449494867E+03  0.35449494867E+03  0.00000000000E+00 0.  1.
         -6    2    1    2    0  503  0.55743756799E+02  0.48007358981E+02 -0.17413186690E+03  0.25761549577E+03  0.17501932365E+03 0.  0.
        -24    2    3    3    0    0  0.99113733824E+02  0.64511435847E+02 -0.13590870003E+03  0.19731259413E+03  0.80472526183E+02 0.  0.
          6    2    1    2  501    0 -0.55743756799E+02 -0.48007358981E+02 -0.75673044684E+02  0.20156948999E+03  0.17173169965E+03 0.  0.
         24    2    5    5    0    0 -0.49791075676E+02 -0.11806565239E+02  0.20517008305E+02  0.98513446143E+02  0.81641933107E+02 0.  0.
          5    1    5    5  501    0 -0.59526811234E+01 -0.36200793741E+02 -0.96190052989E+02  0.10305604385E+03  0.47000000000E+01 0. -1.
        -11    1    6    6    0    0 -0.30663873150E+02 -0.46552868921E+02  0.51658216329E+01  0.55983287100E+02  0.00000000000E+00 0.  1.
         12    1    6    6    0    0 -0.19127202526E+02  0.34746303682E+02  0.15351186672E+02  0.42530159044E+02  0.00000000000E+00 0. -1.
         -5    1    3    3    0  503 -0.43369977024E+02 -0.16504076866E+02 -0.38223166876E+02  0.60302901641E+02  0.47000000000E+01 0.  1.
         13    1    4    4    0    0  0.15628390326E+02 -0.95769204128E+01 -0.58950676810E+02  0.61734482140E+02  0.00000000000E+00 0. -1.
        -14    1    4    4    0    0  0.83485343497E+02  0.74088356260E+02 -0.76958023216E+02  0.13557811198E+03  0.00000000000E+00 0.  1.
</event>
<event>
12    1  0.1032880E+000  0.1949085E+03  0.7818608E-02  0.1154122E+00
         21   -1    0    0  501  502  0.00000000000E+00  0.00000000000E+00  0.64610439269E+02  0.64610439269E+02  0.00000000000E+00 0. -1.
         21   -1    0    0  502  503 -0.00000000000E+00 -0.00000000000E+00 -0.95814593810E+03  0.95814593810E+03  0.00000000000E+00 0. -1.
         -6    2    1    2    0  503  0.85287007092E+02 -0.20758949523E+02 -0.76475548463E+03  0.78920231184E+03  0.17402451027E+03 0.  0.
        -24    2    3    3    0    0  0.88624486437E+02  0.28371461291E+02 -0.68209622860E+03  0.69287174223E+03  0.78464939221E+02 0.  0.
          6    2    1    2  501    0 -0.85287007092E+02  0.20758949523E+02 -0.12878001420E+03  0.23355406553E+03  0.17394942341E+03 0.  0.
         24    2    5    5    0    0 -0.61127142025E+02 -0.31390678461E+02 -0.13924520084E+03  0.17494610608E+03  0.80591636599E+02 0.  0.
          5    1    5    5  501    0 -0.24159865067E+02  0.52149627984E+02  0.10465186642E+02  0.58607959446E+02  0.47000000000E+01 0. -1.
        -11    1    6    6    0    0 -0.17662639628E+02  0.24280951969E+01  0.66300099543E+01  0.19021606581E+02  0.00000000000E+00 0.  1.
         12    1    6    6    0    0 -0.43464502397E+02 -0.33818773658E+02 -0.14587521079E+03  0.15592449950E+03  0.00000000000E+00 0. -1.
         -5    1    3    3    0  503 -0.33374793445E+01 -0.49130410814E+02 -0.82659256029E+02  0.96330569615E+02  0.47000000000E+01 0.  1.
         13    1    4    4    0    0  0.19224729380E+02 -0.21618750130E+01 -0.40867986408E+03  0.40913750161E+03  0.00000000000E+00 0. -1.
        -14    1    4    4    0    0  0.69399757057E+02  0.30533336304E+02 -0.27341636453E+03  0.28373424062E+03  0.00000000000E+00 0.  1.
</event>
<event>
12    1  0.1032880E+000  0.2571200E+03  0.7818608E-02  0.1108969E+00
         21   -1    0    0  503  502  0.00000000000E+00  0.00000000000E+00  0.17722555628E+03  0.17722555628E+03  0.00000000000E+00 0.  1.
         21   -1    0    0  501  503 -0.00000000000E+00 -0.00000000000E+00 -0.42178812682E+03  0.42178812682E+03  0.00000000000E+00 0.  1.
          6    2    1    2  501    0  0.11329491809E+03 -0.15394595383E+03 -0.22504799624E+03  0.34169770121E+03  0.17197564721E+03 0.  0.
         24    2    3    3    0    0  0.33258157919E+02 -0.38111929642E+02 -0.15040395225E+03  0.18226988857E+03  0.89679089973E+02 0.  0.
         -6    2    1    2    0  502 -0.11329491809E+03  0.15394595383E+03 -0.19514574296E+02  0.25731598189E+03  0.17115957689E+03 0.  0.
        -24    2    5    5    0    0 -0.67319564285E+02  0.15701250504E+03  0.27902255689E+02  0.19103187626E+03  0.80807124672E+02 0.  0.
          5    1    3    3  501    0  0.80036760172E+02 -0.11583402419E+03 -0.74644043992E+02  0.15942781264E+03  0.47000000000E+01 0. -1.
        -13    1    4    4    0    0  0.44730975596E+02  0.13339833893E+02 -0.94687385371E+02  0.10556757217E+03  0.00000000000E+00 0.  1.
         14    1    4    4    0    0 -0.11472817676E+02 -0.51451763535E+02 -0.55716566881E+02  0.76702316401E+02  0.00000000000E+00 0. -1.
         -5    1    5    5    0  502 -0.45975353807E+02 -0.30665512120E+01 -0.47416829986E+02  0.66284105636E+02  0.47000000000E+01 0.  1.
         11    1    6    6    0    0 -0.76953462133E+02  0.11471260329E+03 -0.23315232385E+01  0.13815300463E+03  0.00000000000E+00 0. -1.
        -12    1    6    6    0    0  0.96338978484E+01  0.42299901752E+02  0.30233778928E+02  0.52878871624E+02  0.00000000000E+00 0.  1.
</event>
<event>
12    1  0.1032880E+000  0.1891191E+03  0.7818608E-02  0.1159420E+00
         21   -1    0    0  501  502  0.00000000000E+00  0.00000000000E+00  0.98998560943E+02  0.98998560943E+02  0.00000000000E+00 0. -1.
         21   -1    0    0  502  503 -0.00000000000E+00 -0.00000000000E+00 -0.56272637274E+03  0.56272637274E+03  0.00000000000E+00 0. -1.
         -6    2    1    2    0  503  0.55522632747E+01  0.73454279868E+02 -0.33515591504E+02  0.19206598287E+03  0.17418291548E+03 0.  0.
        -24    2    3    3    0    0  0.43600850498E+02 -0.27932672543E+01 -0.53818689753E+02  0.10434090533E+03  0.77985490010E+02 0.  0.
          6    2    1    2  501    0 -0.55522632747E+01 -0.73454279868E+02 -0.43021222030E+03  0.46965895081E+03  0.17340881386E+03 0.  0.
         24    2    5    5    0    0 -0.38111765378E+02 -0.90205544236E+02 -0.40757902400E+03  0.42635678447E+03  0.77909562875E+02 0.  0.
          5    1    5    5  501    0  0.32559502103E+02  0.16751264367E+02 -0.22633196293E+02  0.43302166338E+02  0.47000000000E+01 0. -1.
        -13    1    6    6    0    0 -0.32804360800E+02 -0.92910790670E+02 -0.25074575752E+03  0.26941042301E+03  0.00000000000E+00 0.  1.
         14    1    6    6    0    0 -0.53074045782E+01  0.27052464346E+01 -0.15683326648E+03  0.15694636146E+03  0.00000000000E+00 0. -1.
         -5    1    3    3    0  503 -0.38048587223E+02  0.76247547123E+02  0.20303098249E+02  0.87725077546E+02  0.47000000000E+01 0.  1.
         11    1    4    4    0    0 -0.15908065447E+02 -0.13240166608E+02 -0.35696501432E+02  0.41262680143E+02  0.00000000000E+00 0. -1.
        -12    1    4    4    0    0  0.59508915945E+02  0.10446899353E+02 -0.18122188320E+02  0.63078225186E+02  0.00000000000E+00 0.  1.
</event>
<event>
12    1  0.1032880E+000  0.2354072E+03  0.7818608E-02  0.1122976E+00
         21   -1    0    0  503  502  0.00000000000E+00  0.00000000000E+00  0.60203970081E+03  0.60203970081E+03  0.00000000000E+00 0.  1.
         21   -1    0    0  501  503 -0.00000000000E+00 -0.00000000000E+00 -0.10166191673E+03  0.10166191673E+03  0.00000000000E+00 0. -1.
          6    2    1    2  501    0 -0.15055604050E+03  0.53649919833E+02  0.35972072897E+03  0.42990179926E+03  0.17283263271E+03 0.  0.
         24    2    3    3    0    0 -0.14719306903E+03  0.51221373945E+02  0.37450478315E+03  0.41384360291E+03  0.81995526377E+02 0.  0.
         -6    2    1    2    0  502  0.15055604050E+03 -0.53649919833E+02  0.14065705511E+03  0.27379981828E+03  0.17215254314E+03 0.  0.
        -24    2    5    5    0    0  0.17440790610E+03 -0.70924949374E+02  0.12194760190E+03  0.23859368561E+03  0.81285072737E+02 0.  0.
          5    1    3    3  501    0 -0.33629714633E+01  0.24285458872E+01 -0.14784054179E+02  0.16058196354E+02  0.47000000000E+01 0. -1.
        -11    1    4    4    0    0 -0.36748369991E+01  0.85614232933E+01  0.10605394337E+03  0.10646239383E+03  0.00000000000E+00 0.  1.
         12    1    4    4    0    0 -0.14351823203E+03  0.42659950652E+02  0.26845083978E+03  0.30738120908E+03  0.00000000000E+00 0. -1.
         -5    1    5    5    0  502 -0.23851865598E+02  0.17275029541E+02  0.18709453211E+02  0.35206132671E+02  0.47000000000E+01 0.  1.
         13    1    6    6    0    0  0.58248639695E+02 -0.54785201084E+02  0.18188642559E+02  0.82007005813E+02  0.00000000000E+00 0. -1.
        -14    1    6    6    0    0  0.11615926640E+03 -0.16139748289E+02  0.10375895934E+03  0.15658667979E+03  0.00000000000E+00 0.  1.
</event>
<event>
12    1  0.1032880E+000  0.2153490E+03  0.7818608E-02  0.1137446E+00
         21   -1    0    0  503  502  0.00000000000E+00  0.00000000000E+00  0.57033021515E+02  0.57033021515E+02  0.00000000000E+00 0. -1.
         21   -1    0    0  501  503 -0.00000000000E+00 -0.00000000000E+00 -0.11892501643E+04  0.11892501643E+04  0.00000000000E+00 0. -1.
          6    2    1    2  501    0 -0.53451533981E+02  0.11891543104E+03 -0.21545590925E+03  0.30462507254E+03  0.17139789895E+03 0.  0.
         24    2    3    3    0    0 -0.54365403215E+02  0.24416341445E+02 -0.42694181762E+02  0.10764888724E+03  0.78827247643E+02 0.  0.
         -6    2    1    2    0  502  0.53451533981E+02 -0.11891543104E+03 -0.91676123348E+03  0.94165811323E+03  0.17108739510E+03 0.  0.
        -24    2    5    5    0    0  0.71227187847E+02 -0.55894136426E+02 -0.33245999973E+03  0.35368049527E+03  0.79767001588E+02 0.  0.
          5    1    3    3  501    0  0.91386923429E+00  0.94499089591E+02 -0.17276172749E+03  0.19697618530E+03  0.47000000000E+01 0. -1.
        -11    1    4    4    0    0  0.14272265414E+02 -0.13613604466E+02 -0.13607592522E+02  0.23962352990E+02  0.00000000000E+00 0.  1.
         12    1    4    4    0    0 -0.68637668630E+02  0.38029945910E+02 -0.29086589241E+02  0.83686534248E+02  0.00000000000E+00 0. -1.
         -5    1    5    5    0  502 -0.17775653866E+02 -0.63021294610E+02 -0.58430123376E+03  0.58797761796E+03  0.47000000000E+01 0.  1.
         13    1    6    6    0    0  0.30302070128E+02  0.18512956850E+02 -0.88194736416E+02  0.95075004901E+02  0.00000000000E+00 0. -1.
        -14    1    6    6    0    0  0.40925117719E+02 -0.74407093276E+02 -0.24426526331E+03  0.25860549037E+03  0.00000000000E+00 0.  1.
</event>
<event>
12    1  0.1032880E+000  0.3430264E+03  0.7818608E-02  0.1066319E+00
         21   -1    0    0  501  502  0.00000000000E+00  0.00000000000E+00  0.22364054783E+03  0.22364054783E+03  0.00000000000E+00 0. -1.
         21   -1    0    0  502  503 -0.00000000000E+00 -0.00000000000E+00 -0.52823558162E+03  0.52823558162E+03  0.00000000000E+00 0. -1.
         -6    2    1    2    0  503  0.29237589334E+02  0.29430147373E+03 -0.21099511214E+03  0.39630893510E+03  0.15834658389E+03 0.  0.
        -24    2    3    3    0    0  0.34701299464E+02  0.30946490489E+03 -0.21066771842E+03  0.37951670596E+03  0.51762292975E+02 0.  0.
          6    2    1    2  501    0 -0.29237589334E+02 -0.29430147373E+03 -0.93599921654E+02  0.35556719434E+03  0.17377827911E+03 0.  0.
         24    2    5    5    0    0  0.38080675845E+02 -0.90405778560E+02 -0.14062436366E+02  0.12653989269E+03  0.78684494383E+02 0.  0.
          5    1    5    5  501    0 -0.67318265178E+02 -0.20389569517E+03 -0.79537485289E+02  0.22902730165E+03  0.47000000000E+01 0. -1.
        -13    1    6    6    0    0  0.38306614905E+02 -0.64695130446E+02 -0.43970415948E+02  0.87099105205E+02  0.00000000000E+00 0.  1.
         14    1    6    6    0    0 -0.22593906044E+00 -0.25710648114E+02  0.29907979583E+02  0.39440787487E+02  0.00000000000E+00 0. -1.
         -5    1    3    3    0  503 -0.54637101305E+01 -0.15163431163E+02 -0.32739371818E+00  0.16792229145E+02  0.47000000000E+01 0.  1.
         13    1    4    4    0    0 -0.94382518926E+01  0.18444738335E+02 -0.83302172957E+01  0.22331177561E+02  0.00000000000E+00 0. -1.
        -14    1    4    4    0    0  0.44139551357E+02  0.29102016655E+03 -0.20233750112E+03  0.35718552840E+03  0.00000000000E+00 0.  1.
</event>
<event>
12    1  0.1032880E+000  0.1948776E+03  0.7818608E-02  0.1154842E+00
         21   -1    0    0  503  502  0.00000000000E+00  0.00000000000E+00  0.83206390583E+02  0.83206390583E+02  0.00000000000E+00 0.  1.
         21   -1    0    0  501  503 -0.00000000000E+00 -0.00000000000E+00 -0.49426991413E+03  0.49426991413E+03  0.00000000000E+00 0.  1.
          6    2    1    2  501    0  0.29469110310E+02  0.85163308536E+02 -0.29454540398E+03  0.35317737542E+03  0.17278902140E+03 0.  0.
         24    2    3    3    0    0  0.80409864338E+02  0.40361511507E+02 -0.22866276828E+03  0.25849488958E+03  0.80238073548E+02 0.  0.
         -6    2    1    2    0  502 -0.29469110310E+02 -0.85163308536E+02 -0.11651811957E+03  0.22429892930E+03  0.16915176592E+03 0.  0.
        -24    2    5    5    0    0 -0.77216801175E+02 -0.85492989289E+02 -0.10380228443E+03  0.17466292285E+03  0.80378708410E+02 0.  0.
          5    1    3    3  501    0 -0.50940754028E+02  0.44801797030E+02 -0.65882635701E+02  0.94682485840E+02  0.47000000000E+01 0. -1.
        -11    1    4    4    0    0 -0.45153396685E+01 -0.10655011430E+02 -0.28687433130E+01  0.11922552122E+02  0.00000000000E+00 0.  1.
         12    1    4    4    0    0  0.84925204006E+02  0.51016522937E+02 -0.22579402496E+03  0.24657233745E+03  0.00000000000E+00 0. -1.
         -5    1    5    5    0  502  0.47747690865E+02  0.32968075303E+00 -0.12715835139E+02  0.49636006443E+02  0.47000000000E+01 0.  1.
         11    1    6    6    0    0 -0.20820111939E+02 -0.62837429422E+02 -0.16385924775E+02  0.68194707479E+02  0.00000000000E+00 0. -1.
        -12    1    6    6    0    0 -0.56396689236E+02 -0.22655559868E+02 -0.87416359656E+02  0.10646821538E+03  0.00000000000E+00 0.  1.
</event>
<event>
12    1  0.1032880E+000  0.3405061E+03  0.7818608E-02  0.1066708E+00
         21   -1    0    0  501  502  0.00000000000E+00  0.00000000000E+00  0.13089473282E+04  0.13089473282E+04  0.00000000000E+00 0. -1.
         21   -1    0    0  502  503 -0.00000000000E+00 -0.00000000000E+00 -0.92443242770E+02  0.92443242770E+02  0.00000000000E+00 0. -1.
         -6    2    1    2    0  503 -0.61680405901E+02 -0.28625806615E+03  0.75820096758E+03  0.83115167454E+03  0.17377067058E+03 0.  0.
        -24    2    3    3    0    0  0.19596712549E+02 -0.18356200068E+03  0.54752348046E+03  0.58303971308E+03  0.77937835027E+02 0.  0.
          6    2    1    2  501    0  0.61680405901E+02  0.28625806615E+03  0.45830311786E+03  0.57023889643E+03  0.17141323827E+03 0.  0.
         24    2    5    5    0    0  0.65253379624E+02  0.24676492478E+03  0.45798592068E+03  0.53030563997E+03  0.79511235633E+02 0.  0.
          5    1    5    5  501    0 -0.35729737223E+01  0.39493141376E+02  0.31719717120E+00  0.39933256453E+02  0.47000000000E+01 0. -1.
        -11    1    6    6    0    0 -0.13195338831E+02  0.95326778219E+02  0.18190935676E+03  0.20579680680E+03  0.00000000000E+00 0.  1.
         12    1    6    6    0    0  0.78448718455E+02  0.15143814656E+03  0.27607656392E+03  0.32450883317E+03  0.00000000000E+00 0. -1.
         -5    1    3    3    0  503 -0.81277118450E+02 -0.10269606547E+03  0.21067748711E+03  0.24811196147E+03  0.47000000000E+01 0.  1.
         11    1    4    4    0    0  0.10330021979E+01 -0.95585523572E+01  0.12964268694E+03  0.12999868958E+03  0.00000000000E+00 0. -1.
        -12    1    4    4    0    0  0.18563710351E+02 -0.17400344833E+03  0.41788079352E+03  0.45304102349E+03  0.00000000000E+00 0.  1.
</event>
<event>
12    1  0.1032880E+000  0.1733435E+03  0.7818608E-02  0.1174934E+00
         21   -1    0    0  503  502  0.00000000000E+00  0.00000000000E+00  0.52380564111E+02  0.52380564111E+02  0.00000000000E+00 0. -1.
         21   -1    0    0  501  503 -0.00000000000E+00 -0.00000000000E+00 -0.67702818969E+03  0.67702818969E+03  0.00000000000E+00 0. -1.
          6    2    1    2  501    0 -0.18933194633E+01 -0.13497802687E+02 -0.45789166260E+03  0.48887702211E+03  0.17073427522E+03 0.  0.
         24    2    3    3    0    0 -0.47653824769E+02 -0.23029686336E+02 -0.15194340841E+03  0.17934300961E+03  0.79220340000E+02 0.  0.
         -6    2    1    2    0  502  0.18933194633E+01  0.13497802687E+02 -0.16675596297E+03  0.24053173168E+03  0.17280679218E+03 0.  0.
        -24    2    5    5    0    0  0.24345199030E+02  0.58025491455E+02 -0.44920760241E+02  0.10880205170E+03  0.76553023320E+02 0.  0.
          5    1    3    3  501    0  0.45760505306E+02  0.95318836491E+01 -0.30594825420E+03  0.30953401251E+03  0.47000000000E+01 0. -1.
        -11    1    4    4    0    0 -0.47119065718E+02 -0.14893130444E+02 -0.16025399060E+03  0.16770018841E+03  0.00000000000E+00 0.  1.
         12    1    4    4    0    0 -0.53475905156E+00 -0.81365558923E+01  0.83105821968E+01  0.11642821199E+02  0.00000000000E+00 0. -1.
         -5    1    5    5    0  502 -0.22451879567E+02 -0.44527688768E+02 -0.12183520273E+03  0.13172967998E+03  0.47000000000E+01 0.  1.
         13    1    6    6    0    0 -0.26354757150E+02  0.72583799944E+01 -0.11641900653E+02  0.29711801618E+02  0.00000000000E+00 0. -1.
        -14    1    6    6    0    0  0.50699956181E+02  0.50767111461E+02 -0.33278859589E+02  0.79090250084E+02  0.00000000000E+00 0.  1.
</event>
<event>
12    1  0.1032880E+000  0.1834933E+03  0.7818608E-02  0.1166376E+00
         21   -1    0    0  503  502  0.00000000000E+00  0.00000000000E+00  0.58557203693E+02  0.58557203693E+02  0.00000000000E+00 0. -1.
         21   -1    0    0  501  503 -0.00000000000E+00 -0.00000000000E+00 -0.55089728820E+03  0.55089728820E+03  0.00000000000E+00 0. -1.
          6    2    1    2  501    0  0.28668695304E+02 -0.51263451052E+00 -0.24301826744E+03  0.30451217819E+03  0.18123915547E+03 0.  0.
         24    2    3    3    0    0 -0.37257653571E+02 -0.49650018816E+02 -0.13538052423E+03  0.16898085423E+03  0.79833486940E+02 0.  0.
         -6    2    1    2    0  502 -0.28668695304E+02  0.51263451052E+00 -0.24932181707E+03  0.30494231370E+03  0.17322323555E+03 0.  0.
        -24    2    5    5    0    0  0.18713386378E+02 -0.36023092806E+01 -0.24218795564E+03  0.25662072012E+03  0.82680231470E+02 0.  0.
          5    1    3    3  501    0  0.65926348876E+02  0.49137384305E+02 -0.10763774320E+03  0.13553132396E+03  0.47000000000E+01 0. -1.
        -11    1    4    4    0    0  0.24643665059E+02 -0.60512272272E+01 -0.32025551923E+02  0.40860293127E+02  0.00000000000E+00 0.  1.
         12    1    4    4    0    0 -0.61901318631E+02 -0.43598791589E+02 -0.10335497231E+03  0.12812056110E+03  0.00000000000E+00 0. -1.
         -5    1    5    5    0  502 -0.47382081682E+02  0.41149437911E+01 -0.71338614242E+01  0.48321593576E+02  0.47000000000E+01 0.  1.
         13    1    6    6    0    0 -0.31511336594E+02 -0.65839238261E+01 -0.12520008266E+03  0.12927247613E+03  0.00000000000E+00 0. -1.
        -14    1    6    6    0    0  0.50224722971E+02  0.29816145455E+01 -0.11698787298E+03  0.12734824399E+03  0.00000000000E+00 0.  1.
</event>
<event>
12    1  0.1032880E+000  0.1758541E+03  0.7818608E-02  0.1172066E+00
         21   -1    0    0  501  502  0.00000000000E+00  0.00000000000E+00  0.36583533104E+03  0.36583533104E+03  0.00000000000E+00 0.  1.
         21   -1    0    0  502  503 -0.00000000000E+00 -0.00000000000E+00 -0.84260001133E+02  0.84260001133E+02  0.00000000000E+00 0.  1.
         -6    2    1    2    0  503  0.33723959092E+02 -0.78917496911E+01  0.13307203199E+03  0.21992606426E+03  0.17163834919E+03 0.  0.
        -24    2    3    3    0    0  0.16026499200E+02 -0.31200502654E+02  0.15520126936E+03  0.18293564391E+03  0.90264587517E+02 0.  0.
          6    2    1    2  501    0 -0.33723959092E+02  0.78917496911E+01  0.14850329792E+03  0.23016926791E+03  0.17240962058E+03 0.  0.
         24    2    5    5    0    0  0.26858741138E+02 -0.20860803562E+01  0.14590159445E+03  0.16853583931E+03  0.79945670069E+02 0.  0.
          5    1    5    5  501    0 -0.60582700230E+02  0.99778300473E+01  0.26017034654E+01  0.61633428597E+02  0.47000000000E+01 0. -1.
        -13    1    6    6    0    0 -0.11841255916E+02  0.31049395220E+02  0.52219602673E+02  0.61896423067E+02  0.00000000000E+00 0.  1.
         14    1    6    6    0    0  0.38699997054E+02 -0.33135475577E+02  0.93681991779E+02  0.10663941625E+03  0.00000000000E+00 0. -1.
         -5    1    3    3    0  503  0.17697459892E+02  0.23308752962E+02 -0.22129237370E+02  0.36990420353E+02  0.47000000000E+01 0.  1.
         11    1    4    4    0    0  0.23263514644E+02  0.28375415414E+02  0.54277408193E+02  0.65516351803E+02  0.00000000000E+00 0. -1.
        -12    1    4    4    0    0 -0.72370154434E+01 -0.59575918068E+02  0.10092386117E+03  0.11741929211E+03  0.00000000000E+00 0.  1.
</event>
<event>
12    1  0.1032880E+000  0.2047340E+03  0.7818608E-02  0.1145971E+00
         21   -1    0    0  501  502  0.00000000000E+00  0.00000000000E+00  0.41067365085E+03  0.41067365085E+03  0.00000000000E+00 0. -1.
         21   -1    0    0  502  503 -0.00000000000E+00 -0.00000000000E+00 -0.10377997414E+03  0.10377997414E+03  0.00000000000E+00 0. -1.
         -6    2    1    2    0  503 -0.18576894256E+02 -0.10855150721E+03  0.19046446458E+03  0.27962961482E+03  0.17259049365E+03 0.  0.
        -24    2    3    3    0    0 -0.44752720332E+02 -0.42739207186E+02  0.18234418983E+03  0.20818410014E+03  0.79131347647E+02 0.  0.
          6    2    1    2  501    0  0.18576894256E+02  0.10855150721E+03  0.11642921212E+03  0.23482401017E+03  0.17163339884E+03 0.  0.
         24    2    5    5    0    0  0.31606545837E+02  0.74910233332E+02  0.14807518515E+03  0.18660508507E+03  0.79275976950E+02 0.  0.
          5    1    5    5  501    0 -0.13029651580E+02  0.33641273881E+02 -0.31645973027E+02  0.48218925097E+02  0.47000000000E+01 0. -1.
        -13    1    6    6    0    0 -0.21099873735E+02  0.36200557315E+02  0.29670904816E+02  0.51342454306E+02  0.00000000000E+00 0.  1.
         14    1    6    6    0    0  0.52706419572E+02  0.38709676017E+02  0.11840428033E+03  0.13526263077E+03  0.00000000000E+00 0. -1.
         -5    1    3    3    0  503  0.26175826075E+02 -0.65812300028E+02  0.81202747564E+01  0.71445514679E+02  0.47000000000E+01 0.  1.
         13    1    4    4    0    0 -0.20937852754E+02 -0.46890822904E+02  0.17579004159E+03  0.18313733009E+03  0.00000000000E+00 0. -1.
        -14    1    4    4    0    0 -0.23814867578E+02  0.41516157179E+01  0.65541482341E+01  0.25046770049E+02  0.00000000000E+00 0.  1.
</event>
<event>
12    1  0.1032880E+000  0.1951561E+03  0.7818608E-02  0.1154075E+00
         21   -1    0    0  503  502  0.00000000000E+00  0.00000000000E+00  0.65161234346E+02  0.65161234346E+02  0.00000000000E+00 0. -1.
         21   -1    0    0  501  503 -0.00000000000E+00 -0.00000000000E+00 -0.58964268349E+03  0.58964268349E+03  0.00000000000E+00 0. -1.
          6    2    1    2  501    0  0.43678975639E+02 -0.79777253074E+02 -0.22544880824E+03  0.29818295533E+03  0.17266628707E+03 0.  0.
         24    2    3    3    0    0  0.54853597908E+02 -0.99810466885E+02 -0.10216009649E+03  0.17269033290E+03  0.80088821058E+02 0.  0.
         -6    2    1    2    0  502 -0.43678975639E+02  0.79777253074E+02 -0.29903264090E+03  0.35662096251E+03  0.17171408665E+03 0.  0.
        -24    2    5    5    0    0 -0.59199679794E+02  0.44867381065E+02 -0.29888653904E+03  0.31812807009E+03  0.79715881641E+02 0.  0.
          5    1    3    3  501    0 -0.11174622269E+02  0.20033213812E+02 -0.12328871175E+03  0.12549262243E+03  0.47000000000E+01 0. -1.
        -13    1    4    4    0    0  0.59203637615E+02 -0.25409529365E+02 -0.41952332003E+02  0.76881161866E+02  0.00000000000E+00 0.  1.
         14    1    4    4    0    0 -0.43500397074E+01 -0.74400937520E+02 -0.60207764486E+02  0.95809171032E+02  0.00000000000E+00 0. -1.
         -5    1    5    5    0  502  0.15520704155E+02  0.34909872009E+02 -0.14610185883E+00  0.38492892420E+02  0.47000000000E+01 0.  1.
         11    1    6    6    0    0 -0.22770464224E+02 -0.89233949249E+01 -0.19474861406E+02  0.31263257104E+02  0.00000000000E+00 0. -1.
        -12    1    6    6    0    0 -0.36429215570E+02  0.53790775990E+02 -0.27941167764E+03  0.28686481299E+03  0.00000000000E+00 0.  1.
</event>
<event>
12    1  0.1032880E+000  0.2109984E+03  0.7818608E-02  0.1140832E+00
         21   -1    0    0  503  502  0.00000000000E+00  0.00000000000E+00  0.11879393459E+03  0.11879393459E+03  0.00000000000E+00 0.  1.
         21   -1    0    0  501  503 -0.00000000000E+00 -0.00000000000E+00 -0.57124742283E+03  0.57124742283E+03  0.00000000000E+00 0.  1.
          6    2    1    2  501    0 -0.80611123648E+02  0.91480939552E+02 -0.42892053462E+03  0.47800957547E+03  0.17220166568E+03 0.  0.
         24    2    3    3    0    0 -0.58784832593E+02  0.12678664411E+03 -0.27576151231E+03  0.31925613181E+03  0.79684103573E+02 0.  0.
         -6    2    1    2    0  502  0.80611123648E+02 -0.91480939552E+02 -0.23532953623E+02  0.21203178195E+03  0.17186262273E+03 0.  0.
        -24    2    5    5    0    0  0.61348345850E+02  0.11367080642E+02  0.11106945758E+02  0.10171051249E+03  0.79553969388E+02 0.  0.
          5    1    3    3  501    0 -0.21826291055E+02 -0.35305704563E+02 -0.15315902231E+03  0.15875344365E+03  0.47000000000E+01 0. -1.
        -11    1    4    4    0    0 -0.46810279039E+01 -0.87703657568E+01 -0.38741972782E+01  0.10669617720E+02  0.00000000000E+00 0.  1.
         12    1    4    4    0    0 -0.54103804689E+02  0.13555700987E+03 -0.27188731503E+03  0.30858651409E+03  0.00000000000E+00 0. -1.
         -5    1    5    5    0  502  0.19262777798E+02 -0.10284802019E+03 -0.34639899381E+02  0.11032126946E+03  0.47000000000E+01 0.  1.
         13    1    6    6    0    0  0.57672465597E+02 -0.24606638728E+02  0.17248575192E+02  0.65031633100E+02  0.00000000000E+00 0. -1.
        -14    1    6    6    0    0  0.36758802537E+01  0.35973719370E+02 -0.61416294334E+01  0.36678879387E+02  0.00000000000E+00 0.  1.
</event>
<event>
12    1  0.1032880E+000  0.1910957E+03  0.7818608E-02  0.1157511E+00
         21   -1    0    0  501  502  0.00000000000E+00  0.00000000000E+00  0.28449214413E+03  0.28449214413E+03  0.00000000000E+00 0. -1.
         21   -1    0    0  502  503 -0.00000000000E+00 -0.00000000000E+00 -0.19227658218E+03  0.19227658218E+03  0.00000000000E+00 0. -1.
         -6    2    1    2    0  503  0.16312719579E+02 -0.80275769061E+02  0.18364652691E+03  0.26492634779E+03  0.17248077860E+03 0.  0.
        -24    2    3    3    0    0  0.63665551050E+02 -0.95583419677E+02  0.14154107661E+03  0.19956906999E+03  0.81267735427E+02 0.  0.
          6    2    1    2  501    0 -0.16312719579E+02  0.80275769061E+02 -0.91430964966E+02  0.21184237852E+03  0.17264781511E+03 0.  0.
         24    2    5    5    0    0 -0.51933542756E+02  0.47782804710E+02  0.12199192794E+01  0.10729137600E+03  0.80806323217E+02 0.  0.
          5    1    5    5  501    0  0.35620823176E+02  0.32492964351E+02 -0.92650884245E+02  0.10455100252E+03  0.47000000000E+01 0. -1.
        -11    1    6    6    0    0 -0.77753043602E+00  0.20436006251E+02 -0.33820219449E+02  0.39522678916E+02  0.00000000000E+00 0.  1.
         12    1    6    6    0    0 -0.51156012320E+02  0.27346798459E+02  0.35040138729E+02  0.67768697084E+02  0.00000000000E+00 0. -1.
         -5    1    3    3    0  503 -0.47352831471E+02  0.15307650616E+02  0.42105450303E+02  0.65357277796E+02  0.47000000000E+01 0.  1.
         13    1    4    4    0    0  0.51759148412E+02 -0.53805907505E+02  0.31075698122E+02  0.80868931863E+02  0.00000000000E+00 0. -1.
        -14    1    4    4    0    0  0.11906402638E+02 -0.41777512172E+02  0.11046537849E+03  0.11870013813E+03  0.00000000000E+00 0.  1.
</event>
<event>
12    1  0.1032880E+000  0.2086725E+03  0.7818608E-02  0.1142918E+00
         21   -1    0    0  501  502  0.00000000000E+00  0.00000000000E+00  0.20598359880E+03  0.20598359880E+03  0.00000000000E+00 0.  1.
         21   -1    0    0  502  503 -0.00000000000E+00 -0.00000000000E+00 -0.20993030528E+03  0.20993030528E+03  0.00000000000E+00 0.  1.
         -6    2    1    2    0  503 -0.88718956760E+01  0.11589285620E+03  0.44495486482E+00  0.20867293960E+03  0.17330416350E+03 0.  0.
        -24    2    3    3    0    0  0.24684957428E+02  0.52854403720E+02 -0.59713709215E+02  0.11517928342E+03  0.79357451733E+02 0.  0.
          6    2    1    2  501    0  0.88718956760E+01 -0.11589285620E+03 -0.43916613441E+01  0.20724096449E+03  0.17152161969E+03 0.  0.
         24    2    5    5    0    0 -0.19571909169E+02 -0.14353739003E+03  0.12199497273E+02  0.16399022081E+03  0.75880977998E+02 0.  0.
          5    1    5    5  501    0  0.28443804845E+02  0.27644533827E+02 -0.16591158617E+02  0.43250743680E+02  0.47000000000E+01 0. -1.
        -13    1    6    6    0    0  0.28912669173E+02 -0.51765567651E+02  0.10300139567E+02  0.60180638980E+02  0.00000000000E+00 0.  1.
         14    1    6    6    0    0 -0.48484578342E+02 -0.91771822377E+02  0.18993577059E+01  0.10380958183E+03  0.00000000000E+00 0. -1.
         -5    1    3    3    0  503 -0.33556853104E+02  0.63038452481E+02  0.60158664080E+02  0.93493656177E+02  0.47000000000E+01 0.  1.
         13    1    4    4    0    0 -0.26997657991E+01  0.51965358859E+02 -0.29146116569E+01  0.52117005074E+02  0.00000000000E+00 0. -1.
        -14    1    4    4    0    0  0.27384723227E+02  0.88904486078E+00 -0.56799097559E+02  0.63062278348E+02  0.00000000000E+00 0.  1.
</event>
<event>
12    1  0.1032880E+000  0.2811509E+03  0.7818608E-02  0.1095106E+00
         21   -1    0    0  503  502  0.00000000000E+00  0.00000000000E+00  0.13367223769E+04  0.13367223769E+04  0.00000000000E+00 0. -1.
         21   -1    0    0  501  503 -0.00000000000E+00 -0.00000000000E+00 -0.61373223798E+02  0.61373223798E+02  0.00000000000E+00 0. -1.
          6    2    1    2  501    0 -0.94651022490E+02  0.20158073839E+03  0.50249802891E+03  0.57580388907E+03  0.17161654776E+03 0.  0.
         24    2    3    3    0    0 -0.38807330173E+02  0.74424304691E+02  0.35385310388E+03  0.37232248860E+03  0.79793673834E+02 0.  0.
         -6    2    1    2    0  502  0.94651022490E+02 -0.20158073839E+03  0.77285112420E+03  0.82229171163E+03  0.17108824825E+03 0.  0.
        -24    2    5    5    0    0  0.81402374683E+02 -0.66902544773E+02  0.50689479254E+03  0.52384807732E+03  0.79825937605E+02 0.  0.
          5    1    3    3  501    0 -0.55843692317E+02  0.12715643370E+03  0.14864492503E+03  0.20348140048E+03  0.47000000000E+01 0. -1.
        -11    1    4    4    0    0  0.19436535123E+02  0.29484523900E+02  0.62115102163E+02  0.71452095588E+02  0.00000000000E+00 0.  1.
         12    1    4    4    0    0 -0.58243865296E+02  0.44939780792E+02  0.29173800172E+03  0.30087039301E+03  0.00000000000E+00 0. -1.
         -5    1    5    5    0  502  0.13248647807E+02 -0.13467819362E+03  0.26595633166E+03  0.29844363430E+03  0.47000000000E+01 0.  1.
         11    1    6    6    0    0  0.57736279680E+02 -0.44272888109E+02  0.16425976537E+03  0.17965198894E+03  0.00000000000E+00 0. -1.
        -12    1    6    6    0    0  0.23666095003E+02 -0.22629656663E+02  0.34263502717E+03  0.34419608838E+03  0.00000000000E+00 0.  1.
</event>
<event>
12    1  0.1032880E+000  0.2210735E+03  0.7818608E-02  0.1133340E+00
         21   -1    0    0  501  502  0.00000000000E+00  0.00000000000E+00  0.10485892702E+03  0.10485892702E+03  0.00000000000E+00 0. -1.
         21   -1    0    0  502  503 -0.00000000000E+00 -0.00000000000E+00 -0.46383019529E+03  0.46383019529E+03  0.00000000000E+00 0. -1.
         -6    2    1    2    0  503  0.13585237595E+03 -0.21764425304E+02 -0.16962526376E+03  0.27865073359E+03  0.17304318236E+03 0.  0.
        -24    2    3    3    0    0 -0.42795603457E+01 -0.22455504146E+02 -0.60131860652E+02  0.10075095145E+03  0.77539340010E+02 0.  0.
          6    2    1    2  501    0 -0.13585237595E+03  0.21764425304E+02 -0.18934600451E+03  0.29003838872E+03  0.17129156209E+03 0.  0.
         24    2    5    5    0    0 -0.65753969019E+02  0.35651427378E+02 -0.18875405097E+03  0.21842082180E+03  0.80529217823E+02 0.  0.
          5    1    5    5  501    0 -0.70098406936E+02 -0.13887002074E+02 -0.59195353911E+00  0.71617566913E+02  0.47000000000E+01 0. -1.
        -13    1    6    6    0    0 -0.34022521364E+02 -0.10098499214E+02 -0.20039088292E+02  0.40756308787E+02  0.00000000000E+00 0.  1.
         14    1    6    6    0    0 -0.31731447655E+02  0.45749926592E+02 -0.16871496268E+03  0.17766451302E+03  0.00000000000E+00 0. -1.
         -5    1    3    3    0  503  0.14013193630E+03  0.69107884219E+00 -0.10949340311E+03  0.17789978214E+03  0.47000000000E+01 0.  1.
         13    1    4    4    0    0 -0.36041313431E+02 -0.10598125970E+02 -0.54786364954E+02  0.66429228000E+02  0.00000000000E+00 0. -1.
        -14    1    4    4    0    0  0.31761753085E+02 -0.11857378176E+02 -0.53454956989E+01  0.34321723449E+02  0.00000000000E+00 0.  1.
</event>
<event>
12    1  0.1032880E+000  0.1983264E+03  0.7818608E-02  0.1151311E+00
         21   -1    0    0  501  502  0.00000000000E+00  0.00000000000E+00  0.14432878275E+04  0.14432878275E+04  0.00000000000E+00 0. -1.
         21   -1    0    0  502  503 -0.00000000000E+00 -0.00000000000E+00 -0.27447059791E+02  0.27447059791E+02  0.00000000000E+00 0.  1.
         -6    2    1    2    0  503 -0.52350447529E+02 -0.82207557177E+02  0.63075119731E+03  0.66098245366E+03  0.17190718228E+03 0.  0.
        -24    2    3    3    0    0 -0.83831281717E+02 -0.99977577916E+02  0.42378726631E+03  0.45083256597E+03  0.81431907598E+02 0.  0.
          6    2    1    2  501    0  0.52350447529E+02  0.82207557177E+02  0.78508957042E+03  0.80975243366E+03  0.17272729494E+03 0.  0.
         24    2    5    5    0    0  0.42290208364E+01  0.11331778685E+03  0.60304098432E+03  0.61884068493E+03  0.80290467257E+02 0.  0.
          5    1    5    5  501    0  0.48121426693E+02 -0.31110229672E+02  0.18204858610E+03  0.19091174872E+03  0.47000000000E+01 0. -1.
        -13    1    6    6    0    0  0.65931826247E+01 -0.84419509996E+00  0.19528954198E+03  0.19540263030E+03  0.00000000000E+00 0.  1.
         14    1    6    6    0    0 -0.23641617883E+01  0.11416198195E+03  0.40775144233E+03  0.42343805463E+03  0.00000000000E+00 0. -1.
         -5    1    3    3    0  503  0.31480834187E+02  0.17770020740E+02  0.20696393101E+03  0.21014988769E+03  0.47000000000E+01 0.  1.
         11    1    4    4    0    0 -0.53946432782E+02 -0.57415838947E+01  0.13033394973E+03  0.14117408348E+03  0.00000000000E+00 0. -1.
        -12    1    4    4    0    0 -0.29884848934E+02 -0.94235994022E+02  0.29345331658E+03  0.30965848248E+03  0.00000000000E+00 0.  1.
</event>
<event>
12    1  0.1032880E+000  0.1870976E+03  0.7818608E-02  0.1161106E+00
         21   -1    0    0  501  502  0.00000000000E+00  0.00000000000E+00  0.10275936540E+03  0.10275936540E+03  0.00000000000E+00 0. -1.
         21   -1    0    0  502  503 -0.00000000000E+00 -0.00000000000E+00 -0.34840915248E+03  0.34840915248E+03  0.00000000000E+00 0. -1.
         -6    2    1    2    0  503 -0.58169244484E+02 -0.46447362730E+02 -0.15648075079E+03  0.24390870914E+03  0.17165143319E+03 0.  0.
        -24    2    3    3    0    0 -0.10419815452E+03 -0.17005255247E+02 -0.10697261134E+03  0.17002607164E+03  0.79493970523E+02 0.  0.
          6    2    1    2  501    0  0.58169244484E+02  0.46447362730E+02 -0.89169036281E+02  0.20725980874E+03  0.17165224374E+03 0.  0.
         24    2    5    5    0    0  0.93249473444E+02  0.12398637195E+02 -0.43899804800E+02  0.14046660929E+03  0.94628140430E+02 0.  0.
          5    1    5    5  501    0 -0.35080228960E+02  0.34048725535E+02 -0.45269231481E+02  0.66793199454E+02  0.47000000000E+01 0. -1.
        -13    1    6    6    0    0  0.12313597233E+02 -0.33650067164E+02 -0.29139945256E+02  0.46185366800E+02  0.00000000000E+00 0.  1.
         14    1    6    6    0    0  0.80935876211E+02  0.46048704359E+02 -0.14759859545E+02  0.94281242487E+02  0.00000000000E+00 0. -1.
         -5    1    3    3    0  503  0.46028910033E+02 -0.29442107483E+02 -0.49508139455E+02  0.73882637501E+02  0.47000000000E+01 0.  1.
         11    1    4    4    0    0 -0.68815324515E+02  0.26477854895E+02 -0.44645678013E+02  0.86196648735E+02  0.00000000000E+00 0. -1.
        -12    1    4    4    0    0 -0.35382830002E+02 -0.43483110142E+02 -0.62326933323E+02  0.83829422902E+02  0.00000000000E+00 0.  1.
</event>
<event>
12    1  0.1032880E+000  0.2427354E+03  0.7818608E-02  0.1118664E+00
         21   -1    0    0  503  502  0.00000000000E+00  0.00000000000E+00  0.30455610244E+03  0.30455610244E+03  0.00000000000E+00 0. -1.
         21   -1    0    0  501  503 -0.00000000000E+00 -0.00000000000E+00 -0.20577036450E+03  0.20577036450E+03  0.00000000000E+00 0. -1.
          6    2    1    2  501    0 -0.19077277240E+02  0.16485280663E+03 -0.20392074093E+02  0.24359040792E+03  0.17714417796E+03 0.  0.
         24    2    3    3    0    0 -0.57413150972E+02  0.28783814828E+02 -0.11592872647E+02  0.10187264019E+03  0.78223156560E+02 0.  0.
         -6    2    1    2    0  502  0.19077277240E+02 -0.16485280663E+03  0.11917781203E+03  0.26673605902E+03  0.17147706535E+03 0.  0.
        -24    2    5    5    0    0 -0.26326667502E+02 -0.14848773356E+03  0.42477499838E+02  0.17599267521E+03  0.80170962928E+02 0.  0.
          5    1    3    3  501    0  0.38335873731E+02  0.13606899180E+03 -0.87992014456E+01  0.14171776773E+03  0.47000000000E+01 0. -1.
        -13    1    4    4    0    0 -0.38869072711E+02  0.12606905484E+02 -0.44738216619E+02  0.60590815357E+02  0.00000000000E+00 0.  1.
         14    1    4    4    0    0 -0.18544078261E+02  0.16176909343E+02  0.33145343972E+02  0.41281824832E+02  0.00000000000E+00 0. -1.
         -5    1    5    5    0  502  0.45403944742E+02 -0.16365073073E+02  0.76700312188E+02  0.90743383806E+02  0.47000000000E+01 0.  1.
         13    1    6    6    0    0  0.20985780555E+01 -0.75851558579E+02 -0.17171112470E+02  0.77799164984E+02  0.00000000000E+00 0. -1.
        -14    1    6    6    0    0 -0.28425245557E+02 -0.72636174980E+02  0.59648612308E+02  0.98193510229E+02  0.00000000000E+00 0.  1.
</event>
<event>
12    1  0.1032880E+000  0.1996855E+03  0.7818608E-02  0.1150700E+00
         21   -1    0    0  503  502  0.00000000000E+00  0.00000000000E+00  0.13102088483E+03  0.13102088483E+03  0.00000000000E+00 0. -1.
         21   -1    0    0  501  503 -0.00000000000E+00 -0.00000000000E+00 -0.47331898003E+03  0.47331898003E+03  0.00000000000E+00 0.  1.
          6    2    1    2  501    0  0.11813661687E+02 -0.10133023329E+03  0.11130677478E+02  0.19999550146E+03  0.17165934243E+03 0.  0.
         24    2    3    3    0    0  0.24243985192E+02 -0.13627009104E+03  0.22054131879E+02  0.16105043170E+03  0.79331886953E+02 0.  0.
         -6    2    1    2    0  502 -0.11813661687E+02  0.10133023329E+03 -0.35342877268E+03  0.40434436340E+03  0.16785436565E+03 0.  0.
        -24    2    5    5    0    0 -0.38882211878E+02  0.12665720774E+03 -0.27635501155E+03  0.31869031096E+03  0.87393061594E+02 0.  0.
          5    1    3    3  501    0 -0.12430323505E+02  0.34939857758E+02 -0.10923454401E+02  0.38945069761E+02  0.47000000000E+01 0. -1.
        -11    1    4    4    0    0 -0.10235184303E+02 -0.91900276604E+02 -0.15090244473E+02  0.93691703560E+02  0.00000000000E+00 0.  1.
         12    1    4    4    0    0  0.34479169495E+02 -0.44369814440E+02  0.37144376352E+02  0.67358728143E+02  0.00000000000E+00 0. -1.
         -5    1    5    5    0  502  0.27068550191E+02 -0.25326974452E+02 -0.77073761131E+02  0.85654052439E+02  0.47000000000E+01 0.  1.
         13    1    6    6    0    0 -0.70416740908E+01  0.62795390866E+02 -0.47735793367E+02  0.79193132633E+02  0.00000000000E+00 0. -1.
        -14    1    6    6    0    0 -0.31840537787E+02  0.63861816873E+02 -0.22861921819E+03  0.23949717832E+03  0.00000000000E+00 0.  1.
</event>
<event>
12    1  0.1032880E+000  0.2981670E+03  0.7818608E-02  0.1086347E+00
         21   -1    0    0  503  502  0.00000000000E+00  0.00000000000E+00  0.32709079132E+03  0.32709079132E+03  0.00000000000E+00 0.  1.
         21   -1    0    0  501  503 -0.00000000000E+00 -0.00000000000E+00 -0.49730935098E+03  0.49730935098E+03  0.00000000000E+00 0. -1.
          6    2    1    2  501    0 -0.28057334449E+02 -0.24167036735E+03  0.19317354025E+03  0.35527395130E+03  0.17237106297E+03 0.  0.
         24    2    3    3    0    0 -0.97205402753E+01 -0.46145234744E+02  0.10133644003E+03  0.13842732698E+03  0.81665042608E+02 0.  0.
         -6    2    1    2    0  502  0.28057334449E+02  0.24167036735E+03 -0.36339209991E+03  0.46912619100E+03  0.16980513636E+03 0.  0.
        -24    2    5    5    0    0  0.20730265562E+01  0.90812985447E+02 -0.74365728784E+02  0.14203068945E+03  0.79944726918E+02 0.  0.
          5    1    3    3  501    0 -0.18336794173E+02 -0.19552513261E+03  0.91837100219E+02  0.21684662432E+03  0.47000000000E+01 0. -1.
        -13    1    4    4    0    0 -0.83964988069E+01 -0.30905378257E+02  0.11409707460E+03  0.11850648096E+03  0.00000000000E+00 0.  1.
         14    1    4    4    0    0 -0.13240414684E+01 -0.15239856487E+02 -0.12760634569E+02  0.19920846020E+02  0.00000000000E+00 0. -1.
         -5    1    5    5    0  502  0.25984307892E+02  0.15085738191E+03 -0.28902637113E+03  0.32709550156E+03  0.47000000000E+01 0.  1.
         11    1    6    6    0    0  0.40383054795E+02  0.45016132885E+02 -0.29147989539E+02  0.67133066581E+02  0.00000000000E+00 0. -1.
        -12    1    6    6    0    0 -0.38310028239E+02  0.45796852562E+02 -0.45217739246E+02  0.74897622864E+02  0.00000000000E+00 0.  1.
</event>
<event>
12    1  0.1032880E+000  0.3480738E+03  0.7818608E-02  0.1063411E+00
         21   -1    0    0  501  502  0.00000000000E+00  0.00000000000E+00  0.76805070207E+02  0.76805070207E+02  0.00000000000E+00 0.  1.
         21   -1    0    0  502  503 -0.00000000000E+00 -0.00000000000E+00 -0.27297655043E+04  0.27297655043E+04  0.00000000000E+00 0. -1.
         -6    2    1    2    0  503  0.21874351234E+03  0.20918793561E+03 -0.41467418220E+03  0.54138168773E+03  0.17184626221E+03 0.  0.
        -24    2    3    3    0    0  0.17067022421E+03  0.15628596682E+03 -0.39886875244E+03  0.46802256463E+03  0.79970059857E+02 0.  0.
          6    2    1    2  501    0 -0.21874351234E+03 -0.20918793561E+03 -0.22382862519E+04  0.22651888868E+04  0.17189249770E+03 0.  0.
         24    2    5    5    0    0 -0.15353603183E+03 -0.58061462613E+02 -0.10985500433E+04  0.11136195483E+04  0.79949071307E+02 0.  0.
          5    1    5    5  501    0 -0.65207480506E+02 -0.15112647299E+03 -0.11397362086E+04  0.11515693386E+04  0.47000000000E+01 0. -1.
        -11    1    6    6    0    0 -0.66686620854E+02 -0.60086192588E+02 -0.41676316472E+03  0.42632029204E+03  0.00000000000E+00 0.  1.
         12    1    6    6    0    0 -0.86849410979E+02  0.20247299749E+01 -0.68178687863E+03  0.68729925621E+03  0.00000000000E+00 0. -1.
         -5    1    3    3    0  503  0.48073288133E+02  0.52901968784E+02 -0.15805429767E+02  0.73359123109E+02  0.47000000000E+01 0.  1.
         11    1    4    4    0    0  0.96944264986E+02  0.10803043620E+03 -0.17453806004E+03  0.22700726874E+03  0.00000000000E+00 0. -1.
        -12    1    4    4    0    0  0.73725959220E+02  0.48255530617E+02 -0.22433069240E+03  0.24101529588E+03  0.00000000000E+00 0.  1.
</event>
<event>
12    1  0.1032880E+000  0.2000450E+03  0.7818608E-02  0.1150782E+00
         21   -1    0    0  503  502  0.00000000000E+00  0.00000000000E+00  0.40463685563E+03  0.40463685563E+03  0.00000000000E+00 0. -1.
         21   -1    0    0  501  503 -0.00000000000E+00 -0.00000000000E+00 -0.10209150526E+03  0.10209150526E+03  0.00000000000E+00 0. -1.
          6    2    1    2  501    0  0.90942287184E+02  0.29747822670E+02  0.93355531956E+02  0.22075610985E+03  0.17567746622E+03 0.  0.
         24    2    3    3    0    0  0.42084371966E+02  0.21600576025E+02 -0.21888965307E+02  0.95229787288E+02  0.79698847773E+02 0.  0.
         -6    2    1    2    0  502 -0.90942287184E+02 -0.29747822670E+02  0.20918981841E+03  0.28597225104E+03  0.16989501372E+03 0.  0.
        -24    2    5    5    0    0 -0.13751940984E+02  0.39673606591E+02  0.81437952148E+02  0.12128978773E+03  0.79473024465E+02 0.  0.
          5    1    3    3  501    0  0.48857915218E+02  0.81472466453E+01  0.11524449726E+03  0.12552632257E+03  0.47000000000E+01 0. -1.
        -11    1    4    4    0    0  0.23339031555E+02  0.40551363150E+02  0.15520547884E+02  0.49295140266E+02  0.00000000000E+00 0.  1.
         12    1    4    4    0    0  0.18745340410E+02 -0.18950787125E+02 -0.37409513191E+02  0.45934647021E+02  0.00000000000E+00 0. -1.
         -5    1    5    5    0  502 -0.77190346200E+02 -0.69421429261E+02  0.12775186627E+03  0.16468246331E+03  0.47000000000E+01 0.  1.
         13    1    6    6    0    0 -0.42339137851E+01  0.32918477692E+02 -0.54389855883E+01  0.33632346985E+02  0.00000000000E+00 0. -1.
        -14    1    6    6    0    0 -0.95180271988E+01  0.67551288994E+01  0.86876937736E+02  0.87657440749E+02  0.00000000000E+00 0.  1.
</event>
<event>
12    1  0.1032880E+000  0.3124019E+03  0.7818608E-02  0.1079379E+00
         21   -1    0    0  501  502  0.00000000000E+00  0.00000000000E+00  0.95362825919E+03  0.95362825919E+03  0.00000000000E+00 0. -1.
         21   -1    0    0  502  503 -0.00000000000E+00 -0.00000000000E+00 -0.10387064586E+03  0.10387064586E+03  0.00000000000E+00 0. -1.
         -6    2    1    2    0  503  0.35629108912E+02  0.25870637025E+03  0.35212421229E+03  0.47072963851E+03  0.17145411130E+03 0.  0.
        -24    2    3    3    0    0  0.65850076944E+02  0.23471828161E+03  0.23561699871E+03  0.34790962336E+03  0.78082210470E+02 0.  0.
          6    2    1    2  501    0 -0.35629108912E+02 -0.25870637025E+03  0.49763340104E+03  0.58676926654E+03  0.16870314434E+03 0.  0.
         24    2    5    5    0    0  0.13771611789E+02 -0.77137471453E+02  0.11606580395E+03  0.16130056338E+03  0.80042202036E+02 0.  0.
          5    1    5    5  501    0 -0.49400720701E+02 -0.18156889880E+03  0.38156759709E+03  0.42546870316E+03  0.47000000000E+01 0. -1.
        -13    1    6    6    0    0 -0.15018340919E+02 -0.79424728049E+02  0.98797741683E+02  0.12765121132E+03  0.00000000000E+00 0.  1.
         14    1    6    6    0    0  0.28789952708E+02  0.22872565961E+01  0.17268062269E+02  0.33649352062E+02  0.00000000000E+00 0. -1.
         -5    1    3    3    0  503 -0.30220968032E+02  0.23988088644E+02  0.11650721358E+03  0.12282001515E+03  0.47000000000E+01 0.  1.
         11    1    4    4    0    0  0.46850444475E+02  0.44035529731E+02  0.62379196734E+02  0.89583794357E+02  0.00000000000E+00 0. -1.
        -12    1    4    4    0    0  0.18999632469E+02  0.19068275188E+03  0.17323780198E+03  0.25832582901E+03  0.00000000000E+00 0.  1.
</event>
<event>
12    1  0.1032880E+000  0.2627494E+03  0.7818608E-02  0.1107191E+00
         21   -1    0    0  503  502  0.00000000000E+00  0.00000000000E+00  0.17538678203E+03  0.17538678203E+03  0.00000000000E+00 0.  1.
         21   -1    0    0  501  503 -0.00000000000E+00 -0.00000000000E+00 -0.18213872279E+04  0.18213872279E+04  0.00000000000E+00 0.  1.
          6    2    1    2  501    0 -0.18136736281E+03 -0.34775956302E+02  0.62306750425E+02  0.27003584818E+03  0.18690570009E+03 0.  0.
         24    2    3    3    0    0 -0.49935989808E+02  0.33480836344E+02  0.69065514340E+02  0.12170862060E+03  0.80177138746E+02 0.  0.
         -6    2    1    2    0  502  0.18136736281E+03  0.34775956302E+02 -0.17083071963E+04  0.17267381617E+04  0.17090264741E+03 0.  0.
        -24    2    5    5    0    0  0.16862667857E+03  0.78013129636E+02 -0.14549618555E+04  0.14693712449E+04  0.87274562234E+02 0.  0.
          5    1    3    3  501    0 -0.13143137300E+03 -0.68256792646E+02 -0.67587639151E+01  0.14832722758E+03  0.47000000000E+01 0. -1.
        -13    1    4    4    0    0 -0.53664291432E+02  0.50087200036E+02  0.30380836129E+02  0.79445446605E+02  0.00000000000E+00 0.  1.
         14    1    4    4    0    0  0.37283016242E+01 -0.16606363692E+02  0.38684678211E+02  0.42263173997E+02  0.00000000000E+00 0. -1.
         -5    1    5    5    0  502  0.12740684240E+02 -0.43237173334E+02 -0.25334534078E+03  0.25736691685E+03  0.47000000000E+01 0.  1.
         11    1    6    6    0    0  0.12553954432E+03  0.44229284450E+02 -0.12553407056E+04  0.12623773976E+04  0.00000000000E+00 0. -1.
        -12    1    6    6    0    0  0.43087134244E+02  0.33783845185E+02 -0.19962114987E+03  0.20699384727E+03  0.00000000000E+00 0.  1.
</event>
<event>
12    1  0.1032880E+000  0.2040821E+03  0.7818608E-02  0.1146341E+00
         21   -1    0    0  501  502  0.00000000000E+00  0.00000000000E+00  0.39418299969E+03  0.39418299969E+03  0.00000000000E+00 0.  1.
         21   -1    0    0  502  503 -0.00000000000E+00 -0.00000000000E+00 -0.12523618434E+03  0.12523618434E+03  0.00000000000E+00 0.  1.
         -6    2    1    2    0  503  0.10628701524E+03 -0.28029502669E+02  0.31790140881E+02  0.20654325275E+03  0.17195034043E+03 0.  0.
        -24    2    3    3    0    0  0.11721157151E+03 -0.10379585910E+02  0.73757647015E+02  0.15948767856E+03  0.78420920817E+02 0.  0.
          6    2    1    2  501    0 -0.10628701524E+03  0.28029502669E+02  0.23715667446E+03  0.31287593127E+03  0.17194614709E+03 0.  0.
         24    2    5    5    0    0 -0.81698864254E+02  0.33702665949E+01  0.25047414698E+03  0.27529801001E+03  0.79784916422E+02 0.  0.
          5    1    5    5  501    0 -0.24588150983E+02  0.24659236074E+02 -0.13317472520E+02  0.37577921268E+02  0.47000000000E+01 0. -1.
        -13    1    6    6    0    0 -0.76816373558E+02 -0.20130342469E+02  0.12905731222E+03  0.15153143493E+03  0.00000000000E+00 0.  1.
         14    1    6    6    0    0 -0.48824906958E+01  0.23500609064E+02  0.12141683477E+03  0.12376657508E+03  0.00000000000E+00 0. -1.
         -5    1    3    3    0  503 -0.10924556269E+02 -0.17649916759E+02 -0.41967506134E+02  0.47055574190E+02  0.47000000000E+01 0.  1.
         13    1    4    4    0    0  0.57437611077E+02 -0.40768317103E+02  0.56369978246E+02  0.90214795311E+02  0.00000000000E+00 0. -1.
        -14    1    4    4    0    0  0.59773960428E+02  0.30388731193E+02  0.17387668769E+02  0.69272883251E+02  0.00000000000E+00 0.  1.
</event>
<event>
12    1  0.1032880E+000  0.2313002E+03  0.7818608E-02  0.1127967E+00
         21   -1    0    0  503  502  0.00000000000E+00  0.00000000000E+00  0.22447527235E+03  0.22447527235E+03  0.00000000000E+00 0. -1.
         21   -1    0    0  501  503 -0.00000000000E+00 -0.00000000000E+00 -0.38284374450E+03  0.38284374450E+03  0.00000000000E+00 0. -1.
          6    2    1    2  501    0 -0.66143222319E+02  0.11804643169E+03  0.11404078495E+03  0.25788577878E+03  0.18758968087E+03 0.  0.
         24    2    3    3    0    0 -0.20222004737E+02  0.14874388456E+03  0.59718610497E+02  0.18027082871E+03  0.79984914660E+02 0.  0.
         -6    2    1    2    0  502  0.66143222319E+02 -0.11804643169E+03 -0.27240925710E+03  0.34943323807E+03  0.17200842602E+03 0.  0.
        -24    2    5    5    0    0  0.56852820368E+02 -0.11056030457E+03 -0.29132138418E+03  0.32658346305E+03  0.79578799477E+02 0.  0.
          5    1    3    3  501    0 -0.45921217582E+02 -0.30697452869E+02  0.54322174455E+02  0.77614950070E+02  0.47000000000E+01 0. -1.
        -11    1    4    4    0    0 -0.17212017349E+02  0.10648674285E+03  0.79021357103E+02  0.13371632220E+03  0.00000000000E+00 0.  1.
         12    1    4    4    0    0 -0.30099873880E+01  0.42257141709E+02 -0.19302746606E+02  0.46554506506E+02  0.00000000000E+00 0. -1.
         -5    1    5    5    0  502  0.92904019511E+01 -0.74861271198E+01  0.18912127081E+02  0.22849775019E+02  0.47000000000E+01 0.  1.
         11    1    6    6    0    0  0.50834223554E+02 -0.99509821913E+02 -0.16286862268E+03  0.19751585049E+03  0.00000000000E+00 0. -1.
        -12    1    6    6    0    0  0.60185968146E+01 -0.11050482658E+02 -0.12845276150E+03  0.12906761256E+03  0.00000000000E+00 0.  1.
</event>
<event>
12    1  0.1032880E+000  0.2276407E+03  0.7818608E-02  0.1128316E+00
         21   -1    0    0  503  502  0.00000000000E+00  0.00000000000E+00  0.31693131698E+03  0.31693131698E+03  0.00000000000E+00 0.  1.
         21   -1    0    0  501  503 -0.00000000000E+00 -0.00000000000E+00 -0.18235726156E+03  0.18235726156E+03  0.00000000000E+00 0.  1.
          6    2    1    2  501    0 -0.63330862346E+02  0.13441259182E+03  0.14758855811E+03  0.27127611749E+03  0.17242623486E+03 0.  0.
         24    2    3    3    0    0 -0.15654748321E+02  0.18411199525E+02  0.11395199201E+03  0.14134212100E+03  0.80053077846E+02 0.  0.
         -6    2    1    2    0  502  0.63330862346E+02 -0.13441259182E+03 -0.13014502691E+02  0.22801246105E+03  0.17246090034E+03 0.  0.
        -24    2    5    5    0    0  0.83222116903E+02 -0.14257035317E+03  0.21552321312E+02  0.18703482812E+03  0.85236717637E+02 0.  0.
          5    1    3    3  501    0 -0.47676114025E+02  0.11600139230E+03  0.33636566098E+02  0.12993399648E+03  0.47000000000E+01 0. -1.
        -11    1    4    4    0    0 -0.11109893201E+02 -0.30896072563E+02  0.33747712884E+02  0.47084022255E+02  0.00000000000E+00 0.  1.
         12    1    4    4    0    0 -0.45448551209E+01  0.49307272088E+02  0.80204279130E+02  0.94258098748E+02  0.00000000000E+00 0. -1.
         -5    1    5    5    0  502 -0.19891254557E+02  0.81577613453E+01 -0.34566824004E+02  0.40977632920E+02  0.47000000000E+01 0.  1.
         11    1    6    6    0    0  0.75918237126E+02 -0.53279441538E+02 -0.69831181930E+01  0.93010975474E+02  0.00000000000E+00 0. -1.
        -12    1    6    6    0    0  0.73038797771E+01 -0.89290911631E+02  0.28535439505E+02  0.94023852651E+02  0.00000000000E+00 0.  1.
</event>
<event>
12    1  0.1032880E+000  0.3509858E+03  0.7818608E-02  0.1062475E+00
         21   -1    0    0  501  502  0.00000000000E+00  0.00000000000E+00  0.17724673444E+03  0.17724673444E+03  0.00000000000E+00 0. -1.
         21   -1    0    0  502  503 -0.00000000000E+00 -0.00000000000E+00 -0.75351835841E+03  0.75351835841E+03  0.00000000000E+00 0.  1.
         -6    2    1    2    0  503  0.28943722598E+03  0.99048349675E+02 -0.42234707237E+03  0.54751088518E+03  0.16675322035E+03 0.  0.
        -24    2    3    3    0    0  0.68214434524E+02 -0.24498154355E+01 -0.12868878799E+03  0.16606799435E+03  0.79740603962E+02 0.  0.
          6    2    1    2  501    0 -0.28943722598E+03 -0.99048349675E+02 -0.15392455161E+03  0.38325420767E+03  0.17206550134E+03 0.  0.
         24    2    5    5    0    0 -0.15535762178E+03  0.83807199099E+01 -0.47181680230E+02  0.18093150542E+03  0.79396924332E+02 0.  0.
          5    1    5    5  501    0 -0.13407960420E+03 -0.10742906959E+03 -0.10674287137E+03  0.20232270225E+03  0.47000000000E+01 0. -1.
        -13    1    6    6    0    0 -0.35555538157E+02  0.19890816685E+02 -0.44799209962E+02  0.60554191393E+02  0.00000000000E+00 0.  1.
         14    1    6    6    0    0 -0.11980208362E+03 -0.11510096775E+02 -0.23824702682E+01  0.12037731403E+03  0.00000000000E+00 0. -1.
         -5    1    3    3    0  503  0.22122279145E+03  0.10149816511E+03 -0.29365828437E+03  0.38144289083E+03  0.47000000000E+01 0.  1.
         11    1    4    4    0    0  0.57176951070E+02  0.67544790195E+01 -0.27395095696E+02  0.63759846210E+02  0.00000000000E+00 0. -1.
        -12    1    4    4    0    0  0.11037483454E+02 -0.92042944550E+01 -0.10129369230E+03  0.10230814814E+03  0.00000000000E+00 0.  1.
</event>
<event>
12    1  0.1032880E+000  0.2285194E+03  0.7818608E-02  0.1127710E+00
         21   -1    0    0  501  502  0.00000000000E+00  0.00000000000E+00  0.20290810901E+03  0.20290810901E+03  0.00000000000E+00 0. -1.
         21   -1    0    0  502  503 -0.00000000000E+00 -0.00000000000E+00 -0.31606279777E+03  0.31606279777E+03  0.00000000000E+00 0. -1.
         -6    2    1    2    0  503 -0.14899526355E+03  0.17997432735E+02  0.55402541967E+02  0.23501200459E+03  0.17215604695E+03 0.  0.
        -24    2    3    3    0    0 -0.14071465743E+02  0.29996963819E+02 -0.25251425536E+01  0.87614153202E+02  0.81068116482E+02 0.  0.
          6    2    1    2  501    0  0.14899526355E+03 -0.17997432735E+02 -0.16855723072E+03  0.28395890218E+03  0.17232997985E+03 0.  0.
         24    2    5    5    0    0  0.55133886099E+02  0.37078245825E+02 -0.13283287219E+03  0.16932204799E+03  0.81307086368E+02 0.  0.
          5    1    5    5  501    0  0.93861377451E+02 -0.55075678561E+02 -0.35724358534E+02  0.11463685419E+03  0.47000000000E+01 0. -1.
        -13    1    6    6    0    0  0.68561114299E+02  0.35718736217E+01 -0.81397644554E+02  0.10648455857E+03  0.00000000000E+00 0.  1.
         14    1    6    6    0    0 -0.13427228200E+02  0.33506372204E+02 -0.51435227634E+02  0.62837489425E+02  0.00000000000E+00 0. -1.
         -5    1    3    3    0  503 -0.13492379781E+03 -0.11999531083E+02  0.57927684521E+02  0.14739785139E+03  0.47000000000E+01 0.  1.
         13    1    4    4    0    0 -0.14818988062E+02  0.31756135972E+02 -0.38228235474E+02  0.51859932187E+02  0.00000000000E+00 0. -1.
        -14    1    4    4    0    0  0.74752231897E+00 -0.17591721537E+01  0.35703092920E+02  0.35754221014E+02  0.00000000000E+00 0.  1.
</event>
<event>
12    1  0.1032880E+000  0.2080839E+03  0.7818608E-02  0.1143239E+00
         21   -1    0    0  501  502  0.00000000000E+00  0.00000000000E+00  0.53190035657E+02  0.53190035657E+02  0.00000000000E+00 0. -1.
         21   -1    0    0  502  503 -0.00000000000E+00 -0.00000000000E+00 -0.88958178764E+03  0.88958178764E+03  0.00000000000E+00 0. -1.
         -6    2    1    2    0  503 -0.36695172979E+02  0.11096399782E+03 -0.55745747348E+03  0.59477291486E+03  0.17127883985E+03 0.  0.
        -24    2    3    3    0    0 -0.13463892767E+01  0.12108796787E+03 -0.53013057191E+03  0.54871989294E+03  0.73423353965E+02 0.  0.
          6    2    1    2  501    0  0.36695172979E+02 -0.11096399782E+03 -0.27893427850E+03  0.34799890843E+03  0.17216086668E+03 0.  0.
         24    2    5    5    0    0 -0.17383043347E+02 -0.95904544728E+02 -0.26154067475E+03  0.28904241549E+03  0.75114189794E+02 0.  0.
          5    1    5    5  501    0  0.54078216326E+02 -0.15059453091E+02 -0.17393603746E+02  0.58956492939E+02  0.47000000000E+01 0. -1.
        -13    1    6    6    0    0  0.12362300169E+02 -0.69350195871E+02 -0.22191601049E+03  0.23282824537E+03  0.00000000000E+00 0.  1.
         14    1    6    6    0    0 -0.29745343515E+02 -0.26554348857E+02 -0.39624664262E+02  0.56214170117E+02  0.00000000000E+00 0. -1.
         -5    1    3    3    0  503 -0.35348783702E+02 -0.10123970048E+02 -0.27326901573E+02  0.46053021924E+02  0.47000000000E+01 0.  1.
         11    1    4    4    0    0  0.11400477527E+02  0.20375169447E+01 -0.11040534422E+02  0.16000492601E+02  0.00000000000E+00 0. -1.
        -12    1    4    4    0    0 -0.12746866803E+02  0.11905045092E+03 -0.51909003749E+03  0.53271940034E+03  0.00000000000E+00 0.  1.
</event>
<event>
12    1  0.1032880E+000  0.1793284E+03  0.7818608E-02  0.1168822E+00
         21   -1    0    0  503  502  0.00000000000E+00  0.00000000000E+00  0.13110539308E+03  0.13110539308E+03  0.00000000000E+00 0.  1.
         21   -1    0    0  501  503 -0.00000000000E+00 -0.00000000000E+00 -0.26363097684E+03  0.26363097684E+03  0.00000000000E+00 0.  1.
          6    2    1    2  501    0 -0.43909902937E+02  0.38257630655E+01 -0.12089867240E+03  0.21503142759E+03  0.17227684066E+03 0.  0.
         24    2    3    3    0    0  0.79381664501E+01 -0.23289658755E+02  0.33329019729E+01  0.77630399686E+02  0.73552348897E+02 0.  0.
         -6    2    1    2    0  502  0.43909902937E+02 -0.38257630655E+01 -0.11626911369E+02  0.17970494233E+03  0.17382740057E+03 0.  0.
        -24    2    5    5    0    0  0.66731556365E+02 -0.46154375416E+02 -0.43190643063E+02  0.12199100599E+03  0.80206277249E+02 0.  0.
          5    1    3    3  501    0 -0.51848069387E+02  0.27115421821E+02 -0.12423157437E+03  0.13740102791E+03  0.47000000000E+01 0. -1.
        -13    1    4    4    0    0 -0.13569379837E+02 -0.62220230906E+01 -0.30560241903E+02  0.34011322022E+02  0.00000000000E+00 0.  1.
         14    1    4    4    0    0  0.21507546287E+02 -0.17067635665E+02  0.33893143876E+02  0.43619077664E+02  0.00000000000E+00 0. -1.
         -5    1    5    5    0  502 -0.22821653428E+02  0.42328612350E+02  0.31563731694E+02  0.57713936334E+02  0.47000000000E+01 0.  1.
         11    1    6    6    0    0  0.15200339374E+02 -0.58150331486E+02 -0.14603319224E+02  0.61852795421E+02  0.00000000000E+00 0. -1.
        -12    1    6    6    0    0  0.51531216991E+02  0.11995956070E+02 -0.28587323839E+02  0.60138210572E+02  0.00000000000E+00 0.  1.
</event>
<event>
12    1  0.1032880E+000  0.2155213E+03  0.7818608E-02  0.1137975E+00
         21   -1    0    0  503  502  0.00000000000E+00  0.00000000000E+00  0.18512553141E+03  0.18512553141E+03  0.00000000000E+00 0. -1.
         21   -1    0    0  501  503 -0.00000000000E+00 -0.00000000000E+00 -0.25795889274E+03  0.25795889274E+03  0.00000000000E+00 0. -1.
          6    2    1    2  501    0 -0.11908380976E+03  0.34198257853E+02  0.10253788967E+02  0.21210196248E+03  0.17184768754E+03 0.  0.
         24    2    3    3    0    0 -0.14702156680E+03  0.55249752894E+02  0.73800820584E+01  0.17668964960E+03  0.80603290029E+02 0.  0.
         -6    2    1    2    0  502  0.11908380976E+03 -0.34198257853E+02 -0.83087150301E+02  0.23098246167E+03  0.17634893951E+03 0.  0.
        -24    2    5    5    0    0  0.12490663151E+03 -0.72648110959E+02 -0.34539184132E+02  0.16860224464E+03  0.79714158323E+02 0.  0.
          5    1    3    3  501    0  0.27937757049E+02 -0.21051495041E+02  0.28737069087E+01  0.35412312884E+02  0.47000000000E+01 0. -1.
        -13    1    4    4    0    0 -0.86970991346E+02 -0.55712492307E+01  0.22226595453E+02  0.89938944285E+02  0.00000000000E+00 0.  1.
         14    1    4    4    0    0 -0.60050575458E+02  0.60821002125E+02 -0.14846513395E+02  0.86750705313E+02  0.00000000000E+00 0. -1.
         -5    1    5    5    0  502 -0.58228217550E+01  0.38449853105E+02 -0.48547966168E+02  0.62380217025E+02  0.47000000000E+01 0.  1.
         11    1    6    6    0    0  0.31536551805E+02 -0.44459036666E+02  0.18523291938E+02  0.57569717606E+02  0.00000000000E+00 0. -1.
        -12    1    6    6    0    0  0.93370079706E+02 -0.28189074293E+02 -0.53062476070E+02  0.11103252704E+03  0.00000000000E+00 0.  1.
</event>
<event>
12    1  0.1032880E+000  0.2857196E+03  0.7818608E-02  0.1092987E+00
         21   -1    0    0  501  502  0.00000000000E+00  0.00000000000E+00  0.64082074517E+03  0.64082074517E+03  0.00000000000E+00 0. -1.
         21   -1    0    0  502  503 -0.00000000000E+00 -0.00000000000E+00 -0.12953526908E+03  0.12953526908E+03  0.00000000000E+00 0. -1.
         -6    2    1    2    0  503 -0.22354254390E+03  0.44059069068E+02  0.31691228727E+03  0.42478887594E+03  0.16762971335E+03 0.  0.
        -24    2    3    3    0    0 -0.10886323096E+03 -0.16934897383E+02  0.89009129020E+02  0.16242739191E+03  0.79511249459E+02 0.  0.
          6    2    1    2  501    0  0.22354254390E+03 -0.44059069068E+02  0.19437318882E+03  0.34556713831E+03  0.17240429242E+03 0.  0.
         24    2    5    5    0    0  0.44904159560E+02  0.16488088373E+02  0.98390403250E+02  0.13387770598E+03  0.77164292920E+02 0.  0.
          5    1    5    5  501    0  0.17863838434E+03 -0.60547157442E+02  0.95982785574E+02  0.21168943233E+03  0.47000000000E+01 0. -1.
        -11    1    6    6    0    0  0.26050889123E+02  0.17529146735E+02 -0.22513714605E+01  0.31479969549E+02  0.00000000000E+00 0.  1.
         12    1    6    6    0    0  0.18853270438E+02 -0.10410583616E+01  0.10064177471E+03  0.10239773643E+03  0.00000000000E+00 0. -1.
         -5    1    3    3    0  503 -0.11467931294E+03  0.60993966452E+02  0.22790315825E+03  0.26236148403E+03  0.47000000000E+01 0.  1.
         13    1    4    4    0    0 -0.10652862447E+03 -0.23220595158E+02  0.10104309738E+03  0.14865144264E+03  0.00000000000E+00 0. -1.
        -14    1    4    4    0    0 -0.23346064876E+01  0.62856977743E+01 -0.12033968357E+02  0.13775949273E+02  0.00000000000E+00 0.  1.
</event>
<event>
12    1  0.1032880E+000  0.3380134E+03  0.7818608E-02  0.1067797E+00
         21   -1    0    0  501  502  0.00000000000E+00  0.00000000000E+00  0.36955552739E+03  0.36955552739E+03  0.00000000000E+00 0. -1.
         21   -1    0    0  502  503 -0.00000000000E+00 -0.00000000000E+00 -0.33740040546E+03  0.33740040546E+03  0.00000000000E+00 0.  1.
         -6    2    1    2    0  503 -0.27873145362E+03 -0.79194571734E+02  0.12062077701E+03  0.35755750150E+03  0.17127460875E+03 0.  0.
        -24    2    3    3    0    0 -0.23594939061E+03 -0.44100020456E+02  0.15015701351E+03  0.29465748789E+03  0.81602571830E+02 0.  0.
          6    2    1    2  501    0  0.27873145362E+03  0.79194571734E+02 -0.88465655074E+02  0.34939843135E+03  0.17404047884E+03 0.  0.
         24    2    5    5    0    0  0.12970542669E+03 -0.13225825431E+02 -0.85323841450E+02  0.17394972801E+03  0.77330005700E+02 0.  0.
          5    1    5    5  501    0  0.14902602693E+03  0.92420397165E+02 -0.31418136241E+01  0.17544870335E+03  0.47000000000E+01 0. -1.
        -11    1    6    6    0    0  0.40858350837E+02  0.30338575925E+02 -0.16818367648E+02  0.53597495395E+02  0.00000000000E+00 0.  1.
         12    1    6    6    0    0  0.88847075855E+02 -0.43564401355E+02 -0.68505473802E+02  0.12035223261E+03  0.00000000000E+00 0. -1.
         -5    1    3    3    0  503 -0.42782063009E+02 -0.35094551278E+02 -0.29536236505E+02  0.62900013606E+02  0.47000000000E+01 0.  1.
         11    1    4    4    0    0 -0.79194615064E+01 -0.17999361419E+02 -0.12390604788E+01  0.19703556860E+02  0.00000000000E+00 0. -1.
        -12    1    4    4    0    0 -0.22802992910E+03 -0.26100659037E+02  0.15139607399E+03  0.27495393103E+03  0.00000000000E+00 0.  1.
</event>
<event>
12    1  0.1032880E+000  0.2046884E+03  0.7818608E-02  0.1145972E+00
         21   -1    0    0  501  502  0.00000000000E+00  0.00000000000E+00  0.58298199485E+02  0.58298199485E+02  0.00000000000E+00 0. -1.
         21   -1    0    0  502  503 -0.00000000000E+00 -0.00000000000E+00 -0.71737696725E+03  0.71737696725E+03  0.00000000000E+00 0. -1.
         -6    2    1    2    0  503 -0.22757710330E+02 -0.10845826670E+03 -0.34391734047E+03  0.40022052189E+03  0.17209363750E+03 0.  0.
        -24    2    3    3    0    0 -0.64747719193E+01 -0.14424094360E+03 -0.27491758914E+03  0.32066808803E+03  0.80006058403E+02 0.  0.
          6    2    1    2  501    0  0.22757710330E+02  0.10845826670E+03 -0.31516142729E+03  0.37545464485E+03  0.17134280284E+03 0.  0.
         24    2    5    5    0    0  0.66171831142E+01 -0.21124493931E+01 -0.75113623464E+02  0.11063123576E+03  0.80925671705E+02 0.  0.
          5    1    5    5  501    0  0.16140527216E+02  0.11057071610E+03 -0.24004780383E+03  0.26482340909E+03  0.47000000000E+01 0. -1.
        -13    1    6    6    0    0  0.60349743373E+01  0.28772490229E+02  0.16420375146E-01  0.29398594845E+02  0.00000000000E+00 0.  1.
         14    1    6    6    0    0  0.58220877694E+00 -0.30884939623E+02 -0.75130043839E+02  0.81232640914E+02  0.00000000000E+00 0. -1.
         -5    1    3    3    0  503 -0.16282938411E+02  0.35782676896E+02 -0.68999751328E+02  0.79552433856E+02  0.47000000000E+01 0.  1.
         11    1    4    4    0    0  0.36644741511E+02 -0.62348205956E+02 -0.11280309015E+03  0.13399504847E+03  0.00000000000E+00 0. -1.
        -12    1    4    4    0    0 -0.43119513430E+02 -0.81892737642E+02 -0.16211449899E+03  0.18667303956E+03  0.00000000000E+00 0.  1.
</event>
<event>
12    1  0.1032880E+000  0.1941099E+03  0.7818608E-02  0.1155020E+00
         21   -1    0    0  503  502  0.00000000000E+00  0.00000000000E+00  0.30148678127E+03  0.30148678127E+03  0.00000000000E+00 0. -1.
         21   -1    0    0  501  503 -0.00000000000E+00 -0.00000000000E+00 -0.14436993272E+03  0.14436993272E+03  0.00000000000E+00 0. -1.
          6    2    1    2  501    0  0.81415016744E+02 -0.38600189235E+02  0.16140567128E+03  0.25169945320E+03  0.17082869916E+03 0.  0.
         24    2    3    3    0    0  0.63560116215E+02  0.39290422844E+02  0.68479628771E+02  0.12904920126E+03  0.79878727387E+02 0.  0.
         -6    2    1    2    0  502 -0.81415016744E+02  0.38600189235E+02 -0.42888227325E+01  0.19415726078E+03  0.17193099882E+03 0.  0.
        -24    2    5    5    0    0 -0.25571634599E+02  0.29281610816E+02 -0.65844361758E+02  0.11039274791E+03  0.79622594700E+02 0.  0.
          5    1    3    3  501    0  0.17854900529E+02 -0.77890612079E+02  0.92926042514E+02  0.12265025194E+03  0.47000000000E+01 0. -1.
        -13    1    4    4    0    0  0.16735049784E+02 -0.12899377370E+02 -0.10366760495E+02  0.23535623021E+02  0.00000000000E+00 0.  1.
         14    1    4    4    0    0  0.46825066431E+02  0.52189800214E+02  0.78846389266E+02  0.10551357824E+03  0.00000000000E+00 0. -1.
         -5    1    5    5    0  502 -0.55843382145E+02  0.93185784193E+01  0.61555539026E+02  0.83764512879E+02  0.47000000000E+01 0.  1.
         13    1    6    6    0    0  0.17055660655E+02 -0.17909743677E+02 -0.14578937062E+02  0.28708881636E+02  0.00000000000E+00 0. -1.
        -14    1    6    6    0    0 -0.42627295253E+02  0.47191354493E+02 -0.51265424696E+02  0.81683866269E+02  0.00000000000E+00 0.  1.
</event>
<event>
12    1  0.1032880E+000  0.1749309E+03  0.7818608E-02  0.1172837E+00
         21   -1    0    0  501  502  0.00000000000E+00  0.00000000000E+00  0.21447692732E+04  0.21447692732E+04  0.00000000000E+00 0.  1.
         21   -1    0    0  502  503 -0.00000000000E+00 -0.00000000000E+00 -0.15164186655E+02  0.15164186655E+02  0.00000000000E+00 0.  1.
         -6    2    1    2    0  503 -0.28280639796E+02 -0.17273538278E+02  0.13295181863E+04  0.13409770417E+04  0.17176335143E+03 0.  0.
        -24    2    3    3    0    0 -0.10407193388E+02 -0.65542744839E+02  0.54526824215E+03  0.55502574466E+03  0.79573615359E+02 0.  0.
          6    2    1    2  501    0  0.28280639796E+02  0.17273538278E+02  0.80008690028E+03  0.81895641821E+03  0.17161700737E+03 0.  0.
         24    2    5    5    0    0 -0.30137336208E+02  0.55875761883E+02  0.44113458072E+03  0.45320835013E+03  0.82266217378E+02 0.  0.
          5    1    5    5  501    0  0.58417976004E+02 -0.38602223605E+02  0.35895231956E+03  0.36574806808E+03  0.47000000000E+01 0. -1.
        -11    1    6    6    0    0 -0.58680914510E+01 -0.12613160243E+02  0.22005172401E+03  0.22049101466E+03  0.00000000000E+00 0.  1.
         12    1    6    6    0    0 -0.24269244757E+02  0.68488922126E+02  0.22108285671E+03  0.23271733547E+03  0.00000000000E+00 0. -1.
         -5    1    3    3    0  503 -0.17873446408E+02  0.48269206561E+02  0.78424994416E+03  0.78595129703E+03  0.47000000000E+01 0.  1.
         13    1    4    4    0    0 -0.42615216329E+02 -0.29883682565E+02  0.35441253299E+03  0.35821409058E+03  0.00000000000E+00 0. -1.
        -14    1    4    4    0    0  0.32208022941E+02 -0.35659062274E+02  0.19085570916E+03  0.19681165409E+03  0.00000000000E+00 0.  1.
</event>
<event>
12    1  0.1032880E+000  0.1981883E+03  0.7818608E-02  0.1151467E+00
         21   -1    0    0  501  502  0.00000000000E+00  0.00000000000E+00  0.11053482557E+03  0.11053482557E+03  0.00000000000E+00 0.  1.
         21   -1    0    0  502  503 -0.00000000000E+00 -0.00000000000E+00 -0.41140150189E+03  0.41140150189E+03  0.00000000000E+00 0.  1.
         -6    2    1    2    0  503 -0.90135853457E+02  0.31421642567E+02 -0.24840843975E+03  0.31778190572E+03  0.17368590894E+03 0.  0.
        -24    2    3    3    0    0  0.12543397278E+02  0.30636863156E+01 -0.16400324979E+03  0.18179099314E+03  0.77357457648E+02 0.  0.
          6    2    1    2  501    0  0.90135853457E+02 -0.31421642567E+02 -0.52458236576E+02  0.20415442174E+03  0.17267127622E+03 0.  0.
         24    2    5    5    0    0  0.97184384711E+01  0.18910853594E+01  0.27118872698E+02  0.86123473278E+02  0.81140588751E+02 0.  0.
          5    1    5    5  501    0  0.80417414986E+02 -0.33312727927E+02 -0.79577109274E+02  0.11803094846E+03  0.47000000000E+01 0. -1.
        -13    1    6    6    0    0 -0.17019233637E+02 -0.20568279284E+02 -0.15622352580E+02  0.30931639569E+02  0.00000000000E+00 0.  1.
         14    1    6    6    0    0  0.26737672108E+02  0.22459364643E+02  0.42741225278E+02  0.55191833709E+02  0.00000000000E+00 0. -1.
         -5    1    3    3    0  503 -0.10267925074E+03  0.28357956252E+02 -0.84405189954E+02  0.13599091258E+03  0.47000000000E+01 0.  1.
         13    1    4    4    0    0 -0.94310785592E+01  0.14105644114E+02 -0.10586978033E+01  0.17001037607E+02  0.00000000000E+00 0. -1.
        -14    1    4    4    0    0  0.21974475837E+02 -0.11041957798E+02 -0.16294455199E+03  0.16478995553E+03  0.00000000000E+00 0.  1.
</event>
<event>
12    1  0.1032880E+000  0.1908408E+03  0.7818608E-02  0.1157790E+00
         21   -1    0    0  501  502  0.00000000000E+00  0.00000000000E+00  0.45162712803E+03  0.45162712803E+03  0.00000000000E+00 0.  1.
         21   -1    0    0  502  503 -0.00000000000E+00 -0.00000000000E+00 -0.18074272661E+03  0.18074272661E+03  0.00000000000E+00 0.  1.
         -6    2    1    2    0  503 -0.63342425119E+02 -0.52388655267E+02  0.37099254561E+03  0.41719981163E+03  0.17223060095E+03 0.  0.
        -24    2    3    3    0    0 -0.89838461923E+02  0.11580797111E+02  0.24197135427E+03  0.27069831464E+03  0.80761235505E+02 0.  0.
          6    2    1    2  501    0  0.63342425119E+02  0.52388655267E+02 -0.10010814419E+03  0.21517004301E+03  0.17181290072E+03 0.  0.
         24    2    5    5    0    0  0.49232750293E+01  0.66174285522E+02 -0.65841876324E+01  0.10394207373E+03  0.79732856862E+02 0.  0.
          5    1    5    5  501    0  0.58419150089E+02 -0.13785630255E+02 -0.93523956559E+02  0.11122796928E+03  0.47000000000E+01 0. -1.
        -13    1    6    6    0    0  0.31897925935E+01 -0.89842900888E+01  0.21634461535E+02  0.23641957853E+02  0.00000000000E+00 0.  1.
         14    1    6    6    0    0  0.17334824359E+01  0.75158575611E+02 -0.28218649168E+02  0.80300115878E+02  0.00000000000E+00 0. -1.
         -5    1    3    3    0  503  0.26496036804E+02 -0.63969452378E+02  0.12902119134E+03  0.14650149699E+03  0.47000000000E+01 0.  1.
         13    1    4    4    0    0  0.40431581969E+01 -0.57978183083E+01  0.96095746052E+02  0.96355353949E+02  0.00000000000E+00 0. -1.
        -14    1    4    4    0    0 -0.93881620120E+02  0.17378615419E+02  0.14587560822E+03  0.17434296069E+03  0.00000000000E+00 0.  1.
</event>
<event>
12    1  0.1032880E+000  0.2239577E+03  0.7818608E-02  0.1131248E+00
         21   -1    0    0  501  502  0.00000000000E+00  0.00000000000E+00  0.13344053991E+04  0.13344053991E+04  0.00000000000E+00 0. -1.
         21   -1    0    0  502  503 -0.00000000000E+00 -0.00000000000E+00 -0.64389122948E+02  0.64389122948E+02  0.00000000000E+00 0. -1.
         -6    2    1    2    0  503  0.54808695521E+02 -0.13123094958E+03  0.10896730169E+04  0.11124496943E+04  0.17300717684E+03 0.  0.
        -24    2    3    3    0    0  0.12956790793E+02 -0.15157976216E+03  0.94472324351E+03  0.96014019714E+03  0.78885287691E+02 0.  0.
          6    2    1    2  501    0 -0.54808695521E+02  0.13123094958E+03  0.18034325926E+03  0.28634482781E+03  0.17100910508E+03 0.  0.
         24    2    5    5    0    0  0.18681630857E+02  0.24458897924E+02  0.10887177581E+03  0.13825241736E+03  0.79457072181E+02 0.  0.
          5    1    5    5  501    0 -0.73490326377E+02  0.10677205165E+03  0.71471483449E+02  0.14809241045E+03  0.47000000000E+01 0. -1.
        -13    1    6    6    0    0  0.29179280652E+01  0.40455490769E+02  0.17523899580E+02  0.44184251652E+02  0.00000000000E+00 0.  1.
         14    1    6    6    0    0  0.15763702792E+02 -0.15996592845E+02  0.91347876231E+02  0.94068165711E+02  0.00000000000E+00 0. -1.
         -5    1    3    3    0  503  0.41851904728E+02  0.20348812582E+02  0.14494977341E+03  0.15230949712E+03  0.47000000000E+01 0.  1.
         13    1    4    4    0    0 -0.23438022807E+02 -0.39376119266E+02  0.41046197594E+03  0.41301192885E+03  0.00000000000E+00 0. -1.
        -14    1    4    4    0    0  0.36394813599E+02 -0.11220364289E+03  0.53426126758E+03  0.54712826830E+03  0.00000000000E+00 0.  1.
</event>
<event>
12    1  0.1032880E+000  0.2462716E+03  0.7818608E-02  0.1116052E+00
         21   -1    0    0  503  502  0.00000000000E+00  0.00000000000E+00  0.65914476274E+02  0.65914476274E+02  0.00000000000E+00 0. -1.
         21   -1    0    0  501  503 -0.00000000000E+00 -0.00000000000E+00 -0.91399900278E+03  0.91399900278E+03  0.00000000000E+00 0. -1.
          6    2    1    2  501    0 -0.42776378666E+02  0.17070197754E+03 -0.39730805651E+03  0.46625099755E+03  0.16901868902E+03 0.  0.
         24    2    3    3    0    0 -0.32899542062E+02  0.18715137210E+03 -0.39602707861E+03  0.44645540745E+03  0.79855919664E+02 0.  0.
         -6    2    1    2    0  502  0.42776378666E+02 -0.17070197754E+03 -0.45077647000E+03  0.51366248151E+03  0.17228097776E+03 0.  0.
        -24    2    5    5    0    0 -0.35323045194E+02 -0.46691454117E+02 -0.18810420661E+03  0.21283539184E+03  0.80547514333E+02 0.  0.
          5    1    3    3  501    0 -0.98768366041E+01 -0.16449394564E+02 -0.12809779026E+01  0.19795590095E+02  0.47000000000E+01 0. -1.
        -13    1    4    4    0    0 -0.48768265685E+02  0.57067319055E+02 -0.14552037091E+03  0.16374126234E+03  0.00000000000E+00 0.  1.
         14    1    4    4    0    0  0.15868723623E+02  0.13008405305E+03 -0.25050670770E+03  0.28271414512E+03  0.00000000000E+00 0. -1.
         -5    1    5    5    0  502  0.78099423860E+02 -0.12401052342E+03 -0.26267226339E+03  0.30082708967E+03  0.47000000000E+01 0.  1.
         11    1    6    6    0    0 -0.11093400603E+02  0.88742142838E+01 -0.12323529423E+03  0.12405141257E+03  0.00000000000E+00 0. -1.
        -12    1    6    6    0    0 -0.24229644591E+02 -0.55565668401E+02 -0.64868912381E+02  0.88783979271E+02  0.00000000000E+00 0.  1.
</event>
<event>
12    1  0.1032880E+000  0.2255427E+03  0.7818608E-02  0.1130857E+00
         21   -1    0    0  503  502  0.00000000000E+00  0.00000000000E+00  0.60906674733E+02  0.60906674733E+02  0.00000000000E+00 0.  1.
         21   -1    0    0  501  503 -0.00000000000E+00 -0.00000000000E+00 -0.11796682104E+04  0.11796682104E+04  0.00000000000E+00 0.  1.
          6    2    1    2  501    0 -0.12917811689E+03 -0.66802216788E+02 -0.21911343309E+03  0.31445219994E+03  0.17239480106E+03 0.  0.
         24    2    3    3    0    0 -0.25715992114E+02 -0.61781100127E+02 -0.47205106745E+02  0.11369317637E+03  0.78864438550E+02 0.  0.
         -6    2    1    2    0  502  0.12917811689E+03  0.66802216788E+02 -0.89964810255E+03  0.92612268516E+03  0.16488480072E+03 0.  0.
        -24    2    5    5    0    0  0.35934654311E+02 -0.28214127677E+02 -0.34091356214E+03  0.35172837315E+03  0.73508198504E+02 0.  0.
          5    1    3    3  501    0 -0.10346212478E+03 -0.50211166612E+01 -0.17190832634E+03  0.20075902356E+03  0.47000000000E+01 0. -1.
        -11    1    4    4    0    0  0.20154386191E+02 -0.23629183329E+02  0.83607019459E+01  0.32162694610E+02  0.00000000000E+00 0.  1.
         12    1    4    4    0    0 -0.45870378305E+02 -0.38151916797E+02 -0.55565808691E+02  0.81530481764E+02  0.00000000000E+00 0. -1.
         -5    1    5    5    0  502  0.93243462583E+02  0.95016344465E+02 -0.55873454041E+03  0.57439431202E+03  0.47000000000E+01 0.  1.
         11    1    6    6    0    0  0.50201529109E+02 -0.43135781371E+01 -0.28326813236E+03  0.28771450310E+03  0.00000000000E+00 0. -1.
        -12    1    6    6    0    0 -0.14266874798E+02 -0.23900549540E+02 -0.57645429776E+02  0.64013870051E+02  0.00000000000E+00 0.  1.
</event>
<event>
12    1  0.1032880E+000  0.1917592E+03  0.7818608E-02  0.1157107E+00
         21   -1    0    0  501  502  0.00000000000E+00  0.00000000000E+00  0.41201650069E+02  0.41201650069E+02  0.00000000000E+00 0. -1.
         21   -1    0    0  502  503 -0.00000000000E+00 -0.00000000000E+00 -0.10902936250E+04  0.10902936250E+04  0.00000000000E+00 0. -1.
         -6    2    1    2    0  503 -0.11509183324E+02 -0.81908435397E+02 -0.76944976522E+03  0.79298457656E+03  0.17300330743E+03 0.  0.
        -24    2    3    3    0    0 -0.27259707055E+02 -0.31007370931E+01 -0.59526784645E+03  0.60109876902E+03  0.78887355781E+02 0.  0.
          6    2    1    2  501    0  0.11509183324E+02  0.81908435397E+02 -0.27964220971E+03  0.33851069851E+03  0.17189611532E+03 0.  0.
         24    2    5    5    0    0 -0.29796385917E+02  0.41982721177E+02 -0.26073021526E+03  0.27784797321E+03  0.81048612424E+02 0.  0.
          5    1    5    5  501    0  0.41305569241E+02  0.39925714220E+02 -0.18911994451E+02  0.60662725296E+02  0.47000000000E+01 0. -1.
        -13    1    6    6    0    0  0.17501871809E+02  0.37600087532E+02 -0.17490195830E+03  0.17975198780E+03  0.00000000000E+00 0.  1.
         14    1    6    6    0    0 -0.47298257726E+02  0.43826336448E+01 -0.85828256964E+02  0.98095985417E+02  0.00000000000E+00 0. -1.
         -5    1    3    3    0  503  0.15750523731E+02 -0.78807698304E+02 -0.17418191877E+03  0.19188580754E+03  0.47000000000E+01 0.  1.
         11    1    4    4    0    0 -0.40827255958E+02 -0.25818058958E+02 -0.49662028466E+03  0.49896407098E+03  0.00000000000E+00 0. -1.
        -12    1    4    4    0    0  0.13567548903E+02  0.22717321865E+02 -0.98647561789E+02  0.10213469804E+03  0.00000000000E+00 0.  1.
</event>
<event>
12    1  0.1032880E+000  0.2597749E+03  0.7818608E-02  0.1107613E+00
         21   -1    0    0  501  502  0.00000000000E+00  0.00000000000E+00  0.25146700592E+03  0.25146700592E+03  0.00000000000E+00 0. -1.
         21   -1    0    0  502  503 -0.00000000000E+00 -0.00000000000E+00 -0.34745138332E+03  0.34745138332E+03  0.00000000000E+00 0. -1.
         -6    2    1    2    0  503 -0.15924214311E+03  0.11200006809E+03  0.96774469248E+02  0.27721522626E+03  0.17199101250E+03 0.  0.
        -24    2    3    3    0    0 -0.55403012220E+02  0.94602233557E+02  0.96397860808E+02  0.17182318869E+03  0.90617792107E+02 0.  0.
          6    2    1    2  501    0  0.15924214311E+03 -0.11200006809E+03 -0.19275884665E+03  0.32170316298E+03  0.16862644133E+03 0.  0.
         24    2    5    5    0    0  0.16453058291E+03 -0.13647165240E+03 -0.18848822815E+03  0.29587383436E+03  0.79490182331E+02 0.  0.
          5    1    5    5  501    0 -0.52884398007E+01  0.24471584314E+02 -0.42706184962E+01  0.25829328615E+02  0.47000000000E+01 0. -1.
        -11    1    6    6    0    0  0.12916609739E+03 -0.62080190596E+02 -0.98600997587E+02  0.17395398100E+03  0.00000000000E+00 0.  1.
         12    1    6    6    0    0  0.35364485515E+02 -0.74391461808E+02 -0.89887230566E+02  0.12191985336E+03  0.00000000000E+00 0. -1.
         -5    1    3    3    0  503 -0.10383913089E+03  0.17397834534E+02  0.37660844054E+00  0.10539203757E+03  0.47000000000E+01 0.  1.
         13    1    4    4    0    0 -0.40914715534E+02  0.10275875118E+03  0.47857713881E+02  0.12051446249E+03  0.00000000000E+00 0. -1.
        -14    1    4    4    0    0 -0.14488296686E+02 -0.81565176235E+01  0.48540146927E+02  0.51308726200E+02  0.00000000000E+00 0.  1.
</event>
<event>
12    1  0.1032880E+000  0.1809381E+03  0.7818608E-02  0.1167108E+00
         21   -1    0    0  501  502  0.00000000000E+00  0.00000000000E+00  0.81385945473E+02  0.81385945473E+02  0.00000000000E+00 0.  1.
         21   -1    0    0  502  503 -0.00000000000E+00 -0.00000000000E+00 -0.40168876691E+03  0.40168876691E+03  0.00000000000E+00 0.  1.
         -6    2    1    2    0  503  0.84699951022E+01  0.53778884524E+02 -0.14649478262E+03  0.23280744531E+03  0.17255340049E+03 0.  0.
        -24    2    3    3    0    0  0.28133324951E+02  0.81431967038E+02 -0.44044793551E+02  0.12478231040E+03  0.78791064979E+02 0.  0.
          6    2    1    2  501    0 -0.84699951022E+01 -0.53778884524E+02 -0.17380803882E+03  0.25026726707E+03  0.17164079169E+03 0.  0.
         24    2    5    5    0    0 -0.61730493289E+02 -0.29908470722E+02 -0.15923919774E+03  0.18992807208E+03  0.77526640865E+02 0.  0.
          5    1    5    5  501    0  0.53260498186E+02 -0.23870413802E+02 -0.14568841078E+02  0.60339194994E+02  0.47000000000E+01 0. -1.
        -13    1    6    6    0    0 -0.23225272788E+02 -0.32955084389E+02 -0.14203160839E+03  0.14764290929E+03  0.00000000000E+00 0.  1.
         14    1    6    6    0    0 -0.38505220501E+02  0.30466136669E+01 -0.17207589356E+02  0.42285162789E+02  0.00000000000E+00 0. -1.
         -5    1    3    3    0  503 -0.19663329849E+02 -0.27653082514E+02 -0.10244998907E+03  0.10802513492E+03  0.47000000000E+01 0.  1.
         13    1    4    4    0    0  0.94864944882E+01 -0.87728811898E+01 -0.28601422307E+02  0.31384683845E+02  0.00000000000E+00 0. -1.
        -14    1    4    4    0    0  0.18646830463E+02  0.90204848228E+02 -0.15443371243E+02  0.93397626552E+02  0.00000000000E+00 0.  1.
</event>
<event>
12    1  0.1032880E+000  0.2287884E+03  0.7818608E-02  0.1128539E+00
         21   -1    0    0  501  502  0.00000000000E+00  0.00000000000E+00  0.98099512547E+02  0.98099512547E+02  0.00000000000E+00 0. -1.
         21   -1    0    0  502  503 -0.00000000000E+00 -0.00000000000E+00 -0.66797691951E+03  0.66797691951E+03  0.00000000000E+00 0. -1.
         -6    2    1    2    0  503  0.14759241532E+03 -0.14551993533E+02 -0.10188367603E+03  0.24515197938E+03  0.16650503889E+03 0.  0.
        -24    2    3    3    0    0  0.10465703926E+02 -0.32421887198E+02 -0.26095051856E+02  0.87389266319E+02  0.76126358170E+02 0.  0.
          6    2    1    2  501    0 -0.14759241532E+03  0.14551993533E+02 -0.46799373093E+03  0.52092445268E+03  0.17420927540E+03 0.  0.
         24    2    5    5    0    0 -0.55000793683E+02 -0.43543155526E+02 -0.31637437877E+03  0.33395180043E+03  0.80684346490E+02 0.  0.
          5    1    5    5  501    0 -0.92591621634E+02  0.58095149058E+02 -0.15161935216E+03  0.18697265225E+03  0.47000000000E+01 0. -1.
        -11    1    6    6    0    0  0.20354132546E+01 -0.16769769459E+02 -0.70995528687E+01  0.18324075031E+02  0.00000000000E+00 0.  1.
         12    1    6    6    0    0 -0.57036206938E+02 -0.26773386067E+02 -0.30927482590E+03  0.31562772540E+03  0.00000000000E+00 0. -1.
         -5    1    3    3    0  503  0.13712671139E+03  0.17869893665E+02 -0.75788624178E+02  0.15776271306E+03  0.47000000000E+01 0.  1.
         13    1    4    4    0    0 -0.12049572357E+02  0.21621812955E+02 -0.57794025727E+01  0.25418428031E+02  0.00000000000E+00 0. -1.
        -14    1    4    4    0    0  0.22515276283E+02 -0.54043700153E+02 -0.20315649283E+02  0.61970838288E+02  0.00000000000E+00 0.  1.
</event>
<event>
12    1  0.1032880E+000  0.3371226E+03  0.7818608E-02  0.1068858E+00
         21   -1    0    0  503  502  0.00000000000E+00  0.00000000000E+00  0.48255497300E+02  0.48255497300E+02  0.00000000000E+00 0. -1.
         21   -1    0    0  501  503 -0.00000000000E+00 -0.00000000000E+00 -0.26004181099E+04  0.26004181099E+04  0.00000000000E+00 0. -1.
          6    2    1    2  501    0  0.48475950481E+02 -0.28471319501E+03 -0.17115414275E+04  0.17429718765E+04  0.15863600763E+03 0.  0.
         24    2    3    3    0    0  0.76876038385E+02 -0.23247764247E+03 -0.15334541796E+04  0.15551627291E+04  0.84223593833E+02 0.  0.
         -6    2    1    2    0  502 -0.48475950481E+02  0.28471319501E+03 -0.84062118510E+03  0.90570173074E+03  0.17389688619E+03 0.  0.
        -24    2    5    5    0    0 -0.81557745188E+02  0.27433556664E+03 -0.69304076310E+03  0.75403047021E+03  0.79654138392E+02 0.  0.
          5    1    3    3  501    0 -0.28400087904E+02 -0.52235552545E+02 -0.17808724797E+03  0.18780914736E+03  0.47000000000E+01 0. -1.
        -13    1    4    4    0    0  0.64839106820E+02 -0.70942782420E+02 -0.51153683437E+03  0.52048719587E+03  0.00000000000E+00 0.  1.
         14    1    4    4    0    0  0.12036931565E+02 -0.16153486005E+03 -0.10219173452E+04  0.10346755333E+04  0.00000000000E+00 0. -1.
         -5    1    5    5    0  502  0.33081794706E+02  0.10377628374E+02 -0.14758042200E+03  0.15167126052E+03  0.47000000000E+01 0.  1.
         13    1    6    6    0    0 -0.22967965627E+02  0.15042114107E+03 -0.44963685068E+03  0.47468657514E+03  0.00000000000E+00 0. -1.
        -14    1    6    6    0    0 -0.58589779561E+02  0.12391442557E+03 -0.24340391242E+03  0.27934389508E+03  0.00000000000E+00 0.  1.
</event>
<event>
12    1  0.1032880E+000  0.2303300E+03  0.7818608E-02  0.1126665E+00
         21   -1    0    0  503  502  0.00000000000E+00  0.00000000000E+00  0.33170696734E+03  0.33170696734E+03  0.00000000000E+00 0. -1.
         21   -1    0    0  501  503 -0.00000000000E+00 -0.00000000000E+00 -0.30125773386E+03  0.30125773386E+03  0.00000000000E+00 0. -1.
          6    2    1    2  501    0  0.13700181279E+03  0.63697090043E+02  0.23273506525E+03  0.32641707527E+03  0.17191765599E+03 0.  0.
         24    2    3    3    0    0  0.11034043810E+03  0.45346149886E+02  0.68851386403E+02  0.15930173756E+03  0.80032771984E+02 0.  0.
         -6    2    1    2    0  502 -0.13700181279E+03 -0.63697090043E+02 -0.20228583177E+03  0.30654762593E+03  0.17385359714E+03 0.  0.
        -24    2    5    5    0    0 -0.73013290751E+02 -0.56889924900E+02 -0.20284713768E+03  0.24202419209E+03  0.94134712567E+02 0.  0.
          5    1    3    3  501    0  0.26661374696E+02  0.18350940157E+02  0.16388367884E+03  0.16711533771E+03  0.47000000000E+01 0. -1.
        -11    1    4    4    0    0  0.67422504151E+02 -0.15471911872E+02  0.35107980290E+02  0.77574121993E+02  0.00000000000E+00 0.  1.
         12    1    4    4    0    0  0.42917933945E+02  0.60818061759E+02  0.33743406114E+02  0.81727615567E+02  0.00000000000E+00 0. -1.
         -5    1    5    5    0  502 -0.63988522041E+02 -0.68071651431E+01  0.56130591042E+00  0.64523433841E+02  0.47000000000E+01 0.  1.
         11    1    6    6    0    0 -0.43493535747E+02 -0.12349274580E+02 -0.16439018784E+02  0.48108560289E+02  0.00000000000E+00 0. -1.
        -12    1    6    6    0    0 -0.29519755003E+02 -0.44540650320E+02 -0.18640811889E+03  0.19391563180E+03  0.00000000000E+00 0.  1.
</event>
<event>
12    1  0.1032880E+000  0.2099259E+03  0.7818608E-02  0.1142390E+00
         21   -1    0    0  503  502  0.00000000000E+00  0.00000000000E+00  0.80525341095E+02  0.80525341095E+02  0.00000000000E+00 0. -1.
         21   -1    0    0  501  503 -0.00000000000E+00 -0.00000000000E+00 -0.65796849622E+03  0.65796849622E+03  0.00000000000E+00 0. -1.
          6    2    1    2  501    0 -0.11008518456E+03  0.44838694681E+02 -0.44465075183E+03  0.49009357047E+03  0.16836911925E+03 0.  0.
         24    2    3    3    0    0 -0.21287572670E+02  0.73042664965E+02 -0.27105664138E+03  0.29302128678E+03  0.81248877002E+02 0.  0.
         -6    2    1    2    0  502  0.11008518456E+03 -0.44838694681E+02 -0.13279240329E+03  0.24840026684E+03  0.17303067298E+03 0.  0.
        -24    2    5    5    0    0  0.11381977057E+03 -0.14896339305E+02 -0.15694310656E+03  0.20946649941E+03  0.77898874069E+02 0.  0.
          5    1    3    3  501    0 -0.88797611893E+02 -0.28203970284E+02 -0.17359411045E+03  0.19707228369E+03  0.47000000000E+01 0. -1.
        -13    1    4    4    0    0 -0.20223098671E+02 -0.13456784844E+02 -0.48483543034E+02  0.54228338748E+02  0.00000000000E+00 0.  1.
         14    1    4    4    0    0 -0.10644739992E+01  0.86499449810E+02 -0.22257309835E+03  0.23879294803E+03  0.00000000000E+00 0. -1.
         -5    1    5    5    0  502 -0.37345860074E+01 -0.29942355377E+02  0.24150703264E+02  0.38933767430E+02  0.47000000000E+01 0.  1.
         13    1    6    6    0    0 -0.39548648738E+01  0.11570357862E+02 -0.10090165465E+01  0.12269158553E+02  0.00000000000E+00 0. -1.
        -14    1    6    6    0    0  0.11777463544E+03 -0.26466697166E+02 -0.15593409001E+03  0.19719734085E+03  0.00000000000E+00 0.  1.
</event>
<event>
12    1  0.1032880E+000  0.2845689E+03  0.7818608E-02  0.1094059E+00
         21   -1    0    0  501  502  0.00000000000E+00  0.00000000000E+00  0.95076267506E+03  0.95076267506E+03  0.00000000000E+00 0. -1.
         21   -1    0    0  502  503 -0.00000000000E+00 -0.00000000000E+00 -0.92403876643E+02  0.92403876643E+02  0.00000000000E+00 0. -1.
         -6    2    1    2    0  503  0.54981049497E+02  0.21132393773E+03  0.59691969181E+03  0.66128102430E+03  0.18247945683E+03 0.  0.
        -24    2    3    3    0    0  0.98301800291E+02  0.14510838960E+03  0.50022316419E+03  0.53624705005E+03  0.81351066476E+02 0.  0.
          6    2    1    2  501    0 -0.54981049497E+02 -0.21132393773E+03  0.26143910661E+03  0.38188552741E+03  0.17264248353E+03 0.  0.
         24    2    5    5    0    0  0.29118252374E+02 -0.14092796473E+03  0.18885047214E+03  0.25028201133E+03  0.79170831151E+02 0.  0.
          5    1    5    5  501    0 -0.84099301871E+02 -0.70395972999E+02  0.72588634474E+02  0.13160351608E+03  0.47000000000E+01 0. -1.
        -13    1    6    6    0    0  0.12699973954E+02 -0.14436410115E+03  0.15321465982E+03  0.21089574444E+03  0.00000000000E+00 0.  1.
         14    1    6    6    0    0  0.16418278419E+02  0.34361364247E+01  0.35635812319E+02  0.39386266888E+02  0.00000000000E+00 0. -1.
         -5    1    3    3    0  503 -0.43320750795E+02  0.66215548129E+02  0.96696527615E+02  0.12503397425E+03  0.47000000000E+01 0.  1.
         13    1    4    4    0    0  0.27157355284E+02  0.42930955684E+01  0.14472224799E+03  0.14731083354E+03  0.00000000000E+00 0. -1.
        -14    1    4    4    0    0  0.71144445008E+02  0.14081529403E+03  0.35550091620E+03  0.38893621651E+03  0.00000000000E+00 0.  1.
</event>
<event>
12    1  0.1032880E+000  0.2079920E+03  0.7818608E-02  0.1143681E+00
         21   -1    0    0  503  502  0.00000000000E+00  0.00000000000E+00  0.58459414791E+02  0.58459414791E+02  0.00000000000E+00 0.  1.
         21   -1    0    0  501  503 -0.00000000000E+00 -0.00000000000E+00 -0.79402632962E+03  0.79402632962E+03  0.00000000000E+00 0.  1.
          6    2    1    2  501    0 -0.26170607340E+02  0.11479342818E+03 -0.24557634712E+03  0.32017808627E+03  0.16835626754E+03 0.  0.
         24    2    3    3    0    0 -0.35656339215E+02  0.14710742520E+03 -0.20866368751E+03  0.26999035916E+03  0.80263880279E+02 0.  0.
         -6    2    1    2    0  502  0.26170607340E+02 -0.11479342818E+03 -0.48999056771E+03  0.53230765814E+03  0.17145919233E+03 0.  0.
        -24    2    5    5    0    0  0.34963474208E+02 -0.74622682791E+02 -0.14429427707E+03  0.18414244067E+03  0.79351186176E+02 0.  0.
          5    1    3    3  501    0  0.94857318754E+01 -0.32313997023E+02 -0.36912659613E+02  0.50187727110E+02  0.47000000000E+01 0. -1.
        -11    1    4    4    0    0  0.25980224632E+02  0.44226633903E+02 -0.66922370866E+02  0.84318271689E+02  0.00000000000E+00 0.  1.
         12    1    4    4    0    0 -0.61636563847E+02  0.10288079130E+03 -0.14174131664E+03  0.18567208747E+03  0.00000000000E+00 0. -1.
         -5    1    5    5    0  502 -0.87928668678E+01 -0.40170745387E+02 -0.34569629064E+03  0.34816521747E+03  0.47000000000E+01 0.  1.
         13    1    6    6    0    0  0.51451376717E+02 -0.72036805643E+02 -0.14194710312E+03  0.16728874923E+03  0.00000000000E+00 0. -1.
        -14    1    6    6    0    0 -0.16487902509E+02 -0.25858771477E+01 -0.23471739422E+01  0.16853691444E+02  0.00000000000E+00 0.  1.
</event>
<event>
12    1  0.1032880E+000  0.2447270E+03  0.7818608E-02  0.1117714E+00
         21   -1    0    0  503  502  0.00000000000E+00  0.00000000000E+00  0.52445696569E+03  0.52445696569E+03  0.00000000000E+00 0. -1.
         21   -1    0    0  501  503 -0.00000000000E+00 -0.00000000000E+00 -0.11226875535E+03  0.11226875535E+03  0.00000000000E+00 0. -1.
          6    2    1    2  501    0  0.14499447728E+03  0.95979918448E+02  0.23837595837E+03  0.34163488891E+03  0.17220846845E+03 0.  0.
         24    2    3    3    0    0  0.90312778246E+02  0.12555611008E+03  0.12958755698E+03  0.21624810493E+03  0.77779002736E+02 0.  0.
         -6    2    1    2    0  502 -0.14499447728E+03 -0.95979918448E+02  0.17381225196E+03  0.29509083213E+03  0.16319423117E+03 0.  0.
        -24    2    5    5    0    0 -0.14953454923E+03 -0.10004739336E+03  0.10579148177E+03  0.22663594346E+03  0.88328652887E+02 0.  0.
          5    1    3    3  501    0  0.54681699032E+02 -0.29576191635E+02  0.10878840139E+03  0.12538678398E+03  0.47000000000E+01 0. -1.
        -11    1    4    4    0    0  0.61264922995E+02  0.22859818941E+02  0.38126357180E+02  0.75693997275E+02  0.00000000000E+00 0.  1.
         12    1    4    4    0    0  0.29047855251E+02  0.10269629114E+03  0.91461199799E+02  0.14055410765E+03  0.00000000000E+00 0. -1.
         -5    1    5    5    0  502  0.45400719504E+01  0.40674749164E+01  0.68020770190E+02  0.68454888669E+02  0.47000000000E+01 0.  1.
         13    1    6    6    0    0 -0.37375865867E+02  0.11597417260E+02  0.61174229632E+01  0.39609068408E+02  0.00000000000E+00 0. -1.
        -14    1    6    6    0    0 -0.11215868336E+03 -0.11164481062E+03  0.99674058810E+02  0.18702687505E+03  0.00000000000E+00 0.  1.
</event>
<event>
12    1  0.1032880E+000  0.1755842E+03  0.7818608E-02  0.1172369E+00
         21   -1    0    0  503  502  0.00000000000E+00  0.00000000000E+00  0.31903124238E+02  0.31903124238E+02  0.00000000000E+00 0.  1.
         21   -1    0    0  501  503 -0.00000000000E+00 -0.00000000000E+00 -0.20799581828E+04  0.20799581828E+04  0.00000000000E+00 0.  1.
          6    2    1    2  501    0  0.37544001929E+01 -0.32685044400E+02 -0.24851004096E+03  0.30377057643E+03  0.17157189454E+03 0.  0.
         24    2    3    3    0    0 -0.12513924341E+02 -0.79961427407E+02 -0.11469707515E+03  0.16084502031E+03  0.78519254547E+02 0.  0.
         -6    2    1    2    0  502 -0.37544001929E+01  0.32685044400E+02 -0.17995450176E+04  0.18080907306E+04  0.17247438098E+03 0.  0.
        -24    2    5    5    0    0 -0.45365632376E+02  0.51951668059E+02 -0.73116761072E+03  0.73871938680E+03  0.79644466538E+02 0.  0.
          5    1    3    3  501    0  0.16268324534E+02  0.47276383007E+02 -0.13381296581E+03  0.14292555612E+03  0.47000000000E+01 0. -1.
        -13    1    4    4    0    0 -0.32811464427E+02 -0.41230744762E+02 -0.10281658060E+03  0.11553274755E+03  0.00000000000E+00 0.  1.
         14    1    4    4    0    0  0.20297540087E+02 -0.38730682645E+02 -0.11880494559E+02  0.45312272760E+02  0.00000000000E+00 0. -1.
         -5    1    5    5    0  502  0.41611232183E+02 -0.19266623658E+02 -0.10683774069E+04  0.10693713438E+04  0.47000000000E+01 0.  1.
         11    1    6    6    0    0  0.49409722510E+01 -0.13569399884E+01 -0.37756577772E+03  0.37760054422E+03  0.00000000000E+00 0. -1.
        -12    1    6    6    0    0 -0.50306604627E+02  0.53308608047E+02 -0.35360183300E+03  0.36111884258E+03  0.00000000000E+00 0.  1.
</event>
<event>
12    1  0.1032880E+000  0.4357049E+03  0.7818608E-02  0.1032112E+00
         21   -1    0    0  503  502  0.00000000000E+00  0.00000000000E+00  0.15168118054E+04  0.15168118054E+04  0.00000000000E+00 0. -1.
         21   -1    0    0  501  503 -0.00000000000E+00 -0.00000000000E+00 -0.12527311582E+03  0.12527311582E+03  0.00000000000E+00 0. -1.
          6    2    1    2  501    0  0.27391933759E+03  0.29102237926E+03  0.65798527027E+03  0.78889127931E+03  0.17227595867E+03 0.  0.
         24    2    3    3    0    0  0.17748587547E+03  0.25615526710E+03  0.56596890061E+03  0.65103544732E+03  0.80059979706E+02 0.  0.
         -6    2    1    2    0  502 -0.27391933759E+03 -0.29102237926E+03  0.73355341931E+03  0.85319364192E+03  0.17353081250E+03 0.  0.
        -24    2    5    5    0    0 -0.86799098126E+02 -0.10664036365E+03  0.38501422302E+03  0.41671641107E+03  0.80686831206E+02 0.  0.
          5    1    3    3  501    0  0.96433462127E+02  0.34867112161E+02  0.92016369656E+02  0.13785583199E+03  0.47000000000E+01 0. -1.
        -13    1    4    4    0    0  0.14619035266E+03  0.20720729269E+03  0.38535825672E+03  0.46131059751E+03  0.00000000000E+00 0.  1.
         14    1    4    4    0    0  0.31295522804E+02  0.48947974416E+02  0.18061064389E+03  0.18972484981E+03  0.00000000000E+00 0. -1.
         -5    1    5    5    0  502 -0.18712023947E+03 -0.18438201561E+03  0.34853919629E+03  0.43647723085E+03  0.47000000000E+01 0.  1.
         13    1    6    6    0    0 -0.60274665355E+02 -0.12486705094E+02  0.14350487615E+03  0.15614929576E+03  0.00000000000E+00 0. -1.
        -14    1    6    6    0    0 -0.26524432771E+02 -0.94153658559E+02  0.24150934687E+03  0.26056711531E+03  0.00000000000E+00 0.  1.
</event>
<event>
12    1  0.1032880E+000  0.2025078E+03  0.7818608E-02  0.1147857E+00
         21   -1    0    0  503  502  0.00000000000E+00  0.00000000000E+00  0.10149258288E+04  0.10149258288E+04  0.00000000000E+00 0.  1.
         21   -1    0    0  501  503 -0.00000000000E+00 -0.00000000000E+00 -0.51758171272E+02  0.51758171272E+02  0.00000000000E+00 0.  1.
          6    2    1    2  501    0 -0.84738932119E+02 -0.61706954553E+02  0.22857608990E+03  0.30469044950E+03  0.17204884853E+03 0.  0.
         24    2    3    3    0    0 -0.11691112305E+03 -0.81264346122E+02  0.18372747257E+03  0.24594498234E+03  0.80380629019E+02 0.  0.
         -6    2    1    2    0  502  0.84738932119E+02  0.61706954553E+02  0.73459156767E+03  0.76199355062E+03  0.17326559105E+03 0.  0.
        -24    2    5    5    0    0  0.40279079891E+02  0.99554683868E+02  0.62288490876E+03  0.63586030077E+03  0.69276064934E+02 0.  0.
          5    1    3    3  501    0  0.32172190927E+02  0.19557391569E+02  0.44848617336E+02  0.58745467153E+02  0.47000000000E+01 0. -1.
        -13    1    4    4    0    0  0.50442010715E+00 -0.33869568323E+02  0.21372601761E+02  0.40052343303E+02  0.00000000000E+00 0.  1.
         14    1    4    4    0    0 -0.11741554315E+03 -0.47394777799E+02  0.16235487081E+03  0.20589263904E+03  0.00000000000E+00 0. -1.
         -5    1    5    5    0  502  0.44459852228E+02 -0.37847729314E+02  0.11170665891E+03  0.12613324985E+03  0.47000000000E+01 0.  1.
         11    1    6    6    0    0  0.46821463745E+02  0.25272835964E+02  0.26537478449E+03  0.27065613230E+03  0.00000000000E+00 0. -1.
        -12    1    6    6    0    0 -0.65423838536E+01  0.74281847904E+02  0.35751012427E+03  0.36520416847E+03  0.00000000000E+00 0.  1.
</event>
<event>
12    1  0.1032880E+000  0.2116427E+03  0.7818608E-02  0.1140552E+00
         21   -1    0    0  501  502  0.00000000000E+00  0.00000000000E+00  0.13247954970E+04  0.13247954970E+04  0.00000000000E+00 0. -1.
         21   -1    0    0  502  503 -0.00000000000E+00 -0.00000000000E+00 -0.41925332816E+02  0.41925332816E+02  0.00000000000E+00 0. -1.
         -6    2    1    2    0  503  0.60290032608E+02 -0.10572871735E+03  0.33487670469E+03  0.39538966081E+03  0.17139756948E+03 0.  0.
        -24    2    3    3    0    0  0.14084873465E+02 -0.10424874447E+03  0.31893536917E+03  0.34626407451E+03  0.84337744808E+02 0.  0.
          6    2    1    2  501    0 -0.60290032608E+02  0.10572871735E+03  0.94799345952E+03  0.97133116904E+03  0.17314499977E+03 0.  0.
         24    2    5    5    0    0 -0.66808767146E+02  0.13310551133E+03  0.89786370878E+03  0.91365045599E+03  0.80108848901E+02 0.  0.
          5    1    5    5  501    0  0.65187345376E+01 -0.27376793979E+02  0.50129750742E+02  0.57680713050E+02  0.47000000000E+01 0. -1.
        -11    1    6    6    0    0 -0.11279004818E+02  0.10139222834E+03  0.63354539975E+03  0.64170661011E+03  0.00000000000E+00 0.  1.
         12    1    6    6    0    0 -0.55529762327E+02  0.31713282988E+02  0.26431830903E+03  0.27194384588E+03  0.00000000000E+00 0. -1.
         -5    1    3    3    0  503  0.46205159143E+02 -0.14799728754E+01  0.15941335520E+02  0.49125586300E+02  0.47000000000E+01 0.  1.
         11    1    4    4    0    0  0.56737625685E+01 -0.18775795776E+02  0.19202227311E+03  0.19302143782E+03  0.00000000000E+00 0. -1.
        -12    1    4    4    0    0  0.84111108963E+01 -0.85472948698E+02  0.12691309606E+03  0.15324263669E+03  0.00000000000E+00 0.  1.
</event>
<event>
12    1  0.1032880E+000  0.2322706E+03  0.7818608E-02  0.1125276E+00
         21   -1    0    0  503  502  0.00000000000E+00  0.00000000000E+00  0.79952293491E+03  0.79952293491E+03  0.00000000000E+00 0.  1.
         21   -1    0    0  501  503 -0.00000000000E+00 -0.00000000000E+00 -0.74216198642E+02  0.74216198642E+02  0.00000000000E+00 0.  1.
          6    2    1    2  501    0  0.15354510484E+03 -0.89498330933E+01  0.22832527279E+03  0.32570244236E+03  0.17405014229E+03 0.  0.
         24    2    3    3    0    0  0.13466013456E+03 -0.19705066146E+02  0.24754190052E+03  0.29631390851E+03  0.89461155775E+02 0.  0.
         -6    2    1    2    0  502 -0.15354510484E+03  0.89498330933E+01  0.49698146347E+03  0.54803669119E+03  0.17232945516E+03 0.  0.
        -24    2    5    5    0    0 -0.13046627435E+03  0.64031429751E+02  0.41225880238E+03  0.44427429911E+03  0.79377956431E+02 0.  0.
          5    1    3    3  501    0  0.18884970285E+02  0.10755233053E+02 -0.19216627730E+02  0.29388533852E+02  0.47000000000E+01 0. -1.
        -11    1    4    4    0    0  0.63340386288E+02 -0.32733932775E+02  0.19252232614E+03  0.20530065990E+03  0.00000000000E+00 0.  1.
         12    1    4    4    0    0  0.71319748268E+02  0.13028866629E+02  0.55019574378E+02  0.91013248615E+02  0.00000000000E+00 0. -1.
         -5    1    5    5    0  502 -0.23078830487E+02 -0.55081596658E+02  0.84722661094E+02  0.10376239208E+03  0.47000000000E+01 0.  1.
         11    1    6    6    0    0 -0.66015286461E+02  0.44365969944E+02  0.11735138990E+03  0.14176637841E+03  0.00000000000E+00 0. -1.
        -12    1    6    6    0    0 -0.64450987893E+02  0.19665459807E+02  0.29490741248E+03  0.30250792069E+03  0.00000000000E+00 0.  1.
</event>
<event>
12    1  0.1032880E+000  0.3446742E+03  0.7818608E-02  0.1064871E+00
         21   -1    0    0  503  502  0.00000000000E+00  0.00000000000E+00  0.11484291353E+03  0.11484291353E+03  0.00000000000E+00 0. -1.
         21   -1    0    0  501  503 -0.00000000000E+00 -0.00000000000E+00 -0.15273879624E+04  0.15273879624E+04  0.00000000000E+00 0. -1.
          6    2    1    2  501    0  0.26235515169E+03 -0.14294945139E+03 -0.23883047038E+03  0.41895405154E+03  0.17093195269E+03 0.  0.
         24    2    3    3    0    0  0.23726145379E+03 -0.64794786366E+02 -0.16123191025E+03  0.30589887973E+03  0.84184523173E+02 0.  0.
         -6    2    1    2    0  502 -0.26235515169E+03  0.14294945139E+03 -0.11737145785E+04  0.12232768244E+04  0.17185897141E+03 0.  0.
        -24    2    5    5    0    0 -0.94813501118E+02  0.12582137756E+03 -0.59726666091E+03  0.62271220067E+03  0.78882200607E+02 0.  0.
          5    1    3    3  501    0  0.25093697898E+02 -0.78154665025E+02 -0.77598560126E+02  0.11305517181E+03  0.47000000000E+01 0. -1.
        -13    1    4    4    0    0  0.22095261837E+03 -0.51749543717E+02 -0.16969716791E+03  0.28336408318E+03  0.00000000000E+00 0.  1.
         14    1    4    4    0    0  0.16308835416E+02 -0.13045242649E+02  0.84652576538E+01  0.22534796550E+02  0.00000000000E+00 0. -1.
         -5    1    5    5    0  502 -0.16754165057E+03  0.17128073831E+02 -0.57644791757E+03  0.60056462372E+03  0.47000000000E+01 0.  1.
         13    1    6    6    0    0  0.89066200594E+01  0.30292620925E+02 -0.16606143756E+03  0.16903659902E+03  0.00000000000E+00 0. -1.
        -14    1    6    6    0    0 -0.10372012118E+03  0.95528756635E+02 -0.43120522335E+03  0.45367560164E+03  0.00000000000E+00 0.  1.
</event>
<event>
12    1  0.1032880E+000  0.2086290E+03  0.7818608E-02  0.1142664E+00
         21   -1    0    0  503  502  0.00000000000E+00  0.00000000000E+00  0.48449976548E+02  0.48449976548E+02  0.00000000000E+00 0.  1.
         21   -1    0    0  501  503 -0.00000000000E+00 -0.00000000000E+00 -0.91102650988E+03  0.91102650988E+03  0.00000000000E+00 0.  1.
          6    2    1    2  501    0 -0.11478766353E+03  0.31099533915E+02 -0.48823848533E+03  0.53094528022E+03  0.17141377810E+03 0.  0.
         24    2    3    3    0    0 -0.89440851566E+02 -0.27813437897E+02 -0.20969876072E+03  0.24507876013E+03  0.85538150330E+02 0.  0.
         -6    2    1    2    0  502  0.11478766353E+03 -0.31099533915E+02 -0.37433804800E+03  0.42853120620E+03  0.17136695073E+03 0.  0.
        -24    2    5    5    0    0  0.45025523486E+02 -0.39737622465E+02 -0.32456270249E+03  0.34226969811E+03  0.90560598469E+02 0.  0.
          5    1    3    3  501    0 -0.25346811966E+02  0.58912971813E+02 -0.27853972461E+03  0.28586652009E+03  0.47000000000E+01 0. -1.
        -13    1    4    4    0    0  0.95336121884E+01  0.91011335625E+01 -0.38876722161E+01  0.13741702542E+02  0.00000000000E+00 0.  1.
         14    1    4    4    0    0 -0.98974463755E+02 -0.36914571460E+02 -0.20581108851E+03  0.23133705759E+03  0.00000000000E+00 0. -1.
         -5    1    5    5    0  502  0.69762140047E+02  0.86380885498E+01 -0.49775345515E+02  0.86261508095E+02  0.47000000000E+01 0.  1.
         11    1    6    6    0    0  0.53753782084E+02 -0.55785089583E+02 -0.17229417669E+03  0.18890931324E+03  0.00000000000E+00 0. -1.
        -12    1    6    6    0    0 -0.87282585980E+01  0.16047467117E+02 -0.15226852580E+03  0.15336038487E+03  0.00000000000E+00 0.  1.
</event>
<event>
12    1  0.1032880E+000  0.1810152E+03  0.7818608E-02  0.1167140E+00
         21   -1    0    0  501  502  0.00000000000E+00  0.00000000000E+00  0.19274287791E+03  0.19274287791E+03  0.00000000000E+00 0. -1.
         21   -1    0    0  502  503 -0.00000000000E+00 -0.00000000000E+00 -0.17390557501E+03  0.17390557501E+03  0.00000000000E+00 0. -1.
         -6    2    1    2    0  503 -0.39135409975E+02 -0.31568659231E+02  0.40885235592E+02  0.18429542870E+03  0.17252548215E+03 0.  0.
        -24    2    3    3    0    0  0.40444894146E+02 -0.22302802569E+02  0.48107287076E+02  0.10371547505E+03  0.79431632425E+02 0.  0.
          6    2    1    2  501    0  0.39135409975E+02  0.31568659231E+02 -0.22047932699E+02  0.18235302422E+03  0.17389178688E+03 0.  0.
         24    2    5    5    0    0  0.75204362329E+02  0.68315242587E+02 -0.23579399927E+02  0.13062569968E+03  0.78641063270E+02 0.  0.
          5    1    5    5  501    0 -0.36068952354E+02 -0.36746583356E+02  0.15314672279E+01  0.51727324541E+02  0.47000000000E+01 0. -1.
        -11    1    6    6    0    0 -0.13477942588E+02  0.23678532483E+02 -0.14670765426E+02  0.30944453382E+02  0.00000000000E+00 0.  1.
         12    1    6    6    0    0  0.88682304917E+02  0.44636710104E+02 -0.89086345016E+01  0.99681246295E+02  0.00000000000E+00 0. -1.
         -5    1    3    3    0  503 -0.79580304121E+02 -0.92658566623E+01 -0.72220514841E+01  0.80579953657E+02  0.47000000000E+01 0.  1.
         13    1    4    4    0    0  0.34822940367E+02 -0.51438913767E+02  0.34713651051E+02  0.71159234078E+02  0.00000000000E+00 0. -1.
        -14    1    4    4    0    0  0.56219537789E+01  0.29136111198E+02  0.13393636025E+02  0.32556240969E+02  0.00000000000E+00 0.  1.
</event>
<event>
12    1  0.1032880E+000  0.2945228E+03  0.7818608E-02  0.1088027E+00
         21   -1    0    0  503  502  0.00000000000E+00  0.00000000000E+00  0.13318240798E+03  0.13318240798E+03  0.00000000000E+00 0.  1.
         21   -1    0    0  501  503 -0.00000000000E+00 -0.00000000000E+00 -0.65883847362E+03  0.65883847362E+03  0.00000000000E+00 0.  1.
          6    2    1    2  501    0  0.23772499089E+03 -0.25866879970E+02 -0.30595636147E+03  0.42467984501E+03  0.17193431553E+03 0.  0.
         24    2    3    3    0    0  0.11223565285E+03 -0.61229889453E+02 -0.22714710729E+03  0.27226231010E+03  0.78644872817E+02 0.  0.
         -6    2    1    2    0  502 -0.23772499089E+03  0.25866879970E+02 -0.21969970417E+03  0.36734103659E+03  0.17172422770E+03 0.  0.
        -24    2    5    5    0    0 -0.19951382667E+03  0.31226459388E+02 -0.94605644590E+02  0.23634702183E+03  0.78286831208E+02 0.  0.
          5    1    3    3  501    0  0.12548933804E+03  0.35363009483E+02 -0.78809254181E+02  0.15241753490E+03  0.47000000000E+01 0. -1.
        -13    1    4    4    0    0 -0.10132266201E+02 -0.10550440753E+02 -0.93693417513E+01  0.17371217094E+02  0.00000000000E+00 0.  1.
         14    1    4    4    0    0  0.12236791905E+03 -0.50679448700E+02 -0.21777776554E+03  0.25489109301E+03  0.00000000000E+00 0. -1.
         -5    1    5    5    0  502 -0.38211164221E+02 -0.53595794177E+01 -0.12509405958E+03  0.13099401476E+03  0.47000000000E+01 0.  1.
         13    1    6    6    0    0 -0.20488510102E+03  0.24613096672E+02 -0.84141441160E+02  0.22285307103E+03  0.00000000000E+00 0. -1.
        -14    1    6    6    0    0  0.53712743536E+01  0.66133627164E+01 -0.10464203431E+02  0.13493950794E+02  0.00000000000E+00 0.  1.
</event>
<event>
12    1  0.1032880E+000  0.1792915E+03  0.7818608E-02  0.1168588E+00
         21   -1    0    0  501  502  0.00000000000E+00  0.00000000000E+00  0.15223831891E+03  0.15223831891E+03  0.00000000000E+00 0.  1.
         21   -1    0    0  502  503 -0.00000000000E+00 -0.00000000000E+00 -0.24598954598E+03  0.24598954598E+03  0.00000000000E+00 0.  1.
         -6    2    1    2    0  503 -0.51668279488E+02 -0.67025684212E+01 -0.12235488037E+03  0.21706255085E+03  0.17155436078E+03 0.  0.
        -24    2    3    3    0    0 -0.51612634240E+01  0.52587220867E+02 -0.34888029988E+02  0.10151722826E+03  0.79350605279E+02 0.  0.
          6    2    1    2  501    0  0.51668279488E+02  0.67025684212E+01  0.28603653307E+02  0.18116531404E+03  0.17113785817E+03 0.  0.
         24    2    5    5    0    0 -0.16307775339E+02  0.28307770652E+02  0.58419856060E+02  0.10371452489E+03  0.79224678450E+02 0.  0.
          5    1    5    5  501    0  0.67976054828E+02 -0.21605202231E+02 -0.29816202753E+02  0.77450789150E+02  0.47000000000E+01 0. -1.
        -11    1    6    6    0    0  0.19719198580E+02  0.23754487456E+01  0.55820726106E+02  0.59248991657E+02  0.00000000000E+00 0.  1.
         12    1    6    6    0    0 -0.36026973919E+02  0.25932321907E+02  0.25991299535E+01  0.44465533234E+02  0.00000000000E+00 0. -1.
         -5    1    3    3    0  503 -0.46507016064E+02 -0.59289789288E+02 -0.87466850381E+02  0.11554532259E+03  0.47000000000E+01 0.  1.
         13    1    4    4    0    0 -0.29509647347E+02  0.34729473927E+02 -0.50082874286E+02  0.67714473656E+02  0.00000000000E+00 0. -1.
        -14    1    4    4    0    0  0.24348383923E+02  0.17857746940E+02  0.15194844298E+02  0.33802754602E+02  0.00000000000E+00 0.  1.
</event>
<event>
12    1  0.1032880E+000  0.2372733E+03  0.7818608E-02  0.1121708E+00
         21   -1    0    0  503  502  0.00000000000E+00  0.00000000000E+00  0.18535826866E+03  0.18535826866E+03  0.00000000000E+00 0.  1.
         21   -1    0    0  501  503 -0.00000000000E+00 -0.00000000000E+00 -0.30805601236E+03  0.30805601236E+03  0.00000000000E+00 0. -1.
          6    2    1    2  501    0  0.14603665095E+03 -0.70792429414E+02 -0.30079681407E+02  0.23917229620E+03  0.17309052126E+03 0.  0.
         24    2    3    3    0    0  0.15958293465E+03 -0.80698846116E+02 -0.60552276148E+02  0.20406805252E+03  0.77447886443E+02 0.  0.
         -6    2    1    2    0  502 -0.14603665095E+03  0.70792429414E+02 -0.92618062299E+02  0.25424198482E+03  0.17240246489E+03 0.  0.
        -24    2    5    5    0    0 -0.10377613766E+03  0.57006604634E+02 -0.13278710361E+03  0.19414504789E+03  0.77721586551E+02 0.  0.
          5    1    3    3  501    0 -0.13546283702E+02  0.99064167020E+01  0.30472594742E+02  0.35104243680E+02  0.47000000000E+01 0. -1.
        -13    1    4    4    0    0  0.43981160564E+02 -0.23059549477E+02  0.18073238943E+02  0.52846260724E+02  0.00000000000E+00 0.  1.
         14    1    4    4    0    0  0.11560177409E+03 -0.57639296639E+02 -0.78625515092E+02  0.15122179179E+03  0.00000000000E+00 0. -1.
         -5    1    5    5    0  502 -0.42260513296E+02  0.13785824779E+02  0.40169041312E+02  0.60096936933E+02  0.47000000000E+01 0.  1.
         13    1    6    6    0    0  0.90284448159E+01  0.79316347732E+01  0.14044778479E+01  0.12099429904E+02  0.00000000000E+00 0. -1.
        -14    1    6    6    0    0 -0.11280458247E+03  0.49074969861E+02 -0.13419158146E+03  0.18204561799E+03  0.00000000000E+00 0.  1.
</event>
<event>
12    1  0.1032880E+000  0.1830582E+03  0.7818608E-02  0.1165455E+00
         21   -1    0    0  501  502  0.00000000000E+00  0.00000000000E+00  0.63734900585E+03  0.63734900585E+03  0.00000000000E+00 0.  1.
         21   -1    0    0  502  503 -0.00000000000E+00 -0.00000000000E+00 -0.73987928821E+02  0.73987928821E+02  0.00000000000E+00 0.  1.
         -6    2    1    2    0  503  0.31136007204E+02 -0.49486424183E+02  0.47476828282E+03  0.50796784363E+03  0.17090362975E+03 0.  0.
        -24    2    3    3    0    0 -0.10828315344E+01 -0.54393642526E+02  0.46275731494E+03  0.47291805460E+03  0.80915468015E+02 0.  0.
          6    2    1    2  501    0 -0.31136007204E+02  0.49486424183E+02  0.88592794207E+02  0.20336909105E+03  0.17347030548E+03 0.  0.
         24    2    5    5    0    0 -0.88191628315E+02  0.27079207106E+02  0.75217681486E+02  0.14045318751E+03  0.74554352730E+02 0.  0.
          5    1    5    5  501    0  0.57055621111E+02  0.22407217078E+02  0.13375112721E+02  0.62915903537E+02  0.47000000000E+01 0. -1.
        -13    1    6    6    0    0 -0.26335148721E+02  0.41327990686E+02  0.55379867622E+02  0.73949121767E+02  0.00000000000E+00 0.  1.
         14    1    6    6    0    0 -0.61856479594E+02 -0.14248783580E+02  0.19837813863E+02  0.66504065742E+02  0.00000000000E+00 0. -1.
         -5    1    3    3    0  503  0.32218838738E+02  0.49072183425E+01  0.12010967886E+02  0.35049789030E+02  0.47000000000E+01 0.  1.
         11    1    4    4    0    0  0.12576268029E+02 -0.34585089627E+01  0.32726847782E+03  0.32752828943E+03  0.00000000000E+00 0. -1.
        -12    1    4    4    0    0 -0.13659099563E+02 -0.50935133563E+02  0.13548883711E+03  0.14538976516E+03  0.00000000000E+00 0.  1.
</event>
<event>
12    1  0.1032880E+000  0.3610095E+03  0.7818608E-02  0.1058197E+00
         21   -1    0    0  501  502  0.00000000000E+00  0.00000000000E+00  0.10052586614E+04  0.10052586614E+04  0.00000000000E+00 0. -1.
         21   -1    0    0  502  503 -0.00000000000E+00 -0.00000000000E+00 -0.16758095163E+03  0.16758095163E+03  0.00000000000E+00 0. -1.
         -6    2    1    2    0  503  0.94533999497E+02  0.30360812167E+03  0.69806762815E+03  0.78589200255E+03  0.17091886264E+03 0.  0.
        -24    2    3    3    0    0  0.81780311181E+02  0.21566610404E+03  0.62406021444E+03  0.67015245739E+03  0.80332292215E+02 0.  0.
          6    2    1    2  501    0 -0.94533999497E+02 -0.30360812167E+03  0.13961008164E+03  0.38694761051E+03  0.17065435762E+03 0.  0.
         24    2    5    5    0    0 -0.12853930729E+03 -0.19283403749E+03  0.91998143157E+02  0.26158316032E+03  0.79087115794E+02 0.  0.
          5    1    5    5  501    0  0.34005307794E+02 -0.11077408418E+03  0.47611938486E+02  0.12536445019E+03  0.47000000000E+01 0. -1.
        -13    1    6    6    0    0 -0.77396650789E+02 -0.80171714872E+02  0.73623209332E+01  0.11167788137E+03  0.00000000000E+00 0.  1.
         14    1    6    6    0    0 -0.51142656502E+02 -0.11266232262E+03  0.84635822224E+02  0.14990527894E+03  0.00000000000E+00 0. -1.
         -5    1    3    3    0  503  0.12753688316E+02  0.87942017632E+02  0.74007413705E+02  0.11573954516E+03  0.47000000000E+01 0.  1.
         13    1    4    4    0    0  0.95530581917E+02  0.15572749691E+03  0.47273760757E+03  0.50681159318E+03  0.00000000000E+00 0. -1.
        -14    1    4    4    0    0 -0.13750270736E+02  0.59938607128E+02  0.15132260687E+03  0.16334086421E+03  0.00000000000E+00 0.  1.
</event>
<event>
12    1  0.1032880E+000  0.2069142E+03  0.7818608E-02  0.1144775E+00
         21   -1    0    0  501  502  0.00000000000E+00  0.00000000000E+00  0.98566225566E+02  0.98566225566E+02  0.00000000000E+00 0.  1.
         21   -1    0    0  502  503 -0.00000000000E+00 -0.00000000000E+00 -0.54188926501E+03  0.54188926501E+03  0.00000000000E+00 0.  1.
         -6    2    1    2    0  503  0.79935072816E+01 -0.10900897425E+03 -0.72506784834E+02  0.21581661895E+03  0.17138473253E+03 0.  0.
        -24    2    3    3    0    0 -0.20433484566E+02  0.22115393152E+01 -0.54001479943E+02  0.99443800768E+02  0.80935106582E+02 0.  0.
          6    2    1    2  501    0 -0.79935072816E+01  0.10900897425E+03 -0.37081625461E+03  0.42463887163E+03  0.17568899791E+03 0.  0.
         24    2    5    5    0    0 -0.34366293305E+02  0.14064356595E+03 -0.29184341153E+03  0.33544766590E+03  0.79943135701E+02 0.  0.
          5    1    5    5  501    0  0.26372786024E+02 -0.31634591700E+02 -0.78972843090E+02  0.89191205734E+02  0.47000000000E+01 0. -1.
        -11    1    6    6    0    0 -0.49483815133E+02  0.11685060622E+03 -0.18083722790E+03  0.22091811861E+03  0.00000000000E+00 0.  1.
         12    1    6    6    0    0  0.15117521827E+02  0.23792959723E+02 -0.11100618362E+03  0.11452954729E+03  0.00000000000E+00 0. -1.
         -5    1    3    3    0  503  0.28426991848E+02 -0.11122051356E+03 -0.18505304890E+02  0.11637281818E+03  0.47000000000E+01 0.  1.
         13    1    4    4    0    0 -0.50042293900E+02  0.12460625725E+02 -0.27719632553E+02  0.58548069149E+02  0.00000000000E+00 0. -1.
        -14    1    4    4    0    0  0.29608809334E+02 -0.10249086410E+02 -0.26281847390E+02  0.40895731619E+02  0.00000000000E+00 0.  1.
</event>
<event>
12    1  0.1032880E+000  0.2380825E+03  0.7818608E-02  0.1121187E+00
         21   -1    0    0  503  502  0.00000000000E+00  0.00000000000E+00  0.17303950313E+03  0.17303950313E+03  0.00000000000E+00 0. -1.
         21   -1    0    0  501  503 -0.00000000000E+00 -0.00000000000E+00 -0.33746998337E+03  0.33746998337E+03  0.00000000000E+00 0. -1.
          6    2    1    2  501    0 -0.86426129801E+02 -0.13844874528E+03 -0.36460564034E+02  0.24021414795E+03  0.17244110056E+03 0.  0.
         24    2    3    3    0    0 -0.11774184277E+03 -0.14164144131E+03 -0.14021005676E+02  0.20127199898E+03  0.79927401678E+02 0.  0.
         -6    2    1    2    0  502  0.86426129801E+02  0.13844874528E+03 -0.12796991620E+03  0.27029533855E+03  0.17333706933E+03 0.  0.
        -24    2    5    5    0    0 -0.83474981511E+01  0.11209040301E+03 -0.63519390554E+02  0.15259757723E+03  0.81347209101E+02 0.  0.
          5    1    3    3  501    0  0.31315712968E+02  0.31926960311E+01 -0.22439558358E+02  0.38942148964E+02  0.47000000000E+01 0. -1.
        -11    1    4    4    0    0 -0.64318803307E+02 -0.87800256846E+02 -0.47014734467E+02  0.11855875682E+03  0.00000000000E+00 0.  1.
         12    1    4    4    0    0 -0.53423039462E+02 -0.53841184468E+02  0.32993728791E+02  0.82713242167E+02  0.00000000000E+00 0. -1.
         -5    1    5    5    0  502  0.94773627952E+02  0.26358342274E+02 -0.64450525648E+02  0.11769776132E+03  0.47000000000E+01 0.  1.
         11    1    6    6    0    0 -0.27105233900E+02  0.59006417885E+01 -0.59327527698E+00  0.27746409747E+02  0.00000000000E+00 0. -1.
        -12    1    6    6    0    0  0.18757735749E+02  0.10618976122E+03 -0.62926115277E+02  0.12485116749E+03  0.00000000000E+00 0.  1.
</event>
<event>
12    1  0.1032880E+000  0.3103059E+03  0.7818608E-02  0.1080241E+00
         21   -1    0    0  501  502  0.00000000000E+00  0.00000000000E+00  0.27600663086E+03  0.27600663086E+03  0.00000000000E+00 0. -1.
         21   -1    0    0  502  503 -0.00000000000E+00 -0.00000000000E+00 -0.62663634814E+03  0.62663634814E+03  0.00000000000E+00 0.  1.
         -6    2    1    2    0  503  0.73032269465E+02 -0.24711865009E+03  0.12532557245E+03  0.33465837832E+03  0.17288259444E+03 0.  0.
        -24    2    3    3    0    0  0.70186025410E+02 -0.12498274022E+03  0.89338209509E+01  0.16585550096E+03  0.82954629326E+02 0.  0.
          6    2    1    2  501    0 -0.73032269465E+02  0.24711865009E+03 -0.47595528973E+03  0.56798460068E+03  0.17225483791E+03 0.  0.
         24    2    5    5    0    0 -0.70475349341E+02  0.94944074791E+02 -0.13971893752E+03  0.19887673873E+03  0.77778039977E+02 0.  0.
          5    1    5    5  501    0 -0.25569201243E+01  0.15217457530E+03 -0.33623635222E+03  0.36910786196E+03  0.47000000000E+01 0. -1.
        -13    1    6    6    0    0 -0.19375153570E+02  0.27316397543E+02 -0.99637135018E+02  0.10511489345E+03  0.00000000000E+00 0.  1.
         14    1    6    6    0    0 -0.51100195771E+02  0.67627677247E+02 -0.40081802498E+02  0.93761845274E+02  0.00000000000E+00 0. -1.
         -5    1    3    3    0  503  0.28462440548E+01 -0.12213590988E+03  0.11639175150E+03  0.16880287736E+03  0.47000000000E+01 0.  1.
         13    1    4    4    0    0 -0.84089868633E+01 -0.41756525225E+02  0.26320605697E+02  0.50070877196E+02  0.00000000000E+00 0. -1.
        -14    1    4    4    0    0  0.78595012274E+02 -0.83226214991E+02 -0.17386784746E+02  0.11578462376E+03  0.00000000000E+00 0.  1.
</event>
<event>
12    1  0.1032880E+000  0.2477473E+03  0.7818608E-02  0.1114885E+00
         21   -1    0    0  503  502  0.00000000000E+00  0.00000000000E+00  0.21904230100E+03  0.21904230100E+03  0.00000000000E+00 0.  1.
         21   -1    0    0  501  503 -0.00000000000E+00 -0.00000000000E+00 -0.31220022341E+03  0.31220022341E+03  0.00000000000E+00 0.  1.
          6    2    1    2  501    0 -0.12535277698E+03 -0.12511927124E+03  0.39901275796E+02  0.25002469037E+03  0.17190719371E+03 0.  0.
         24    2    3    3    0    0 -0.14469633946E+03 -0.89265875450E+02  0.68903528864E+02  0.19979660975E+03  0.79155301810E+02 0.  0.
         -6    2    1    2    0  502  0.12535277698E+03  0.12511927124E+03 -0.13305919821E+03  0.28121783404E+03  0.17323558879E+03 0.  0.
        -24    2    5    5    0    0  0.14895451534E+03  0.13139957321E+03 -0.13896192125E+03  0.25565582344E+03  0.81216925728E+02 0.  0.
          5    1    3    3  501    0  0.19343562483E+02 -0.35853395791E+02 -0.29002253068E+02  0.50228080616E+02  0.47000000000E+01 0. -1.
        -13    1    4    4    0    0 -0.14628676829E+03 -0.78160217421E+02  0.42660981086E+02  0.17125652534E+03  0.00000000000E+00 0.  1.
         14    1    4    4    0    0  0.15904288332E+01 -0.11105658030E+02  0.26242547778E+02  0.28540084408E+02  0.00000000000E+00 0. -1.
         -5    1    5    5    0  502 -0.23601738361E+02 -0.62803019673E+01  0.59027230415E+01  0.25562010597E+02  0.47000000000E+01 0.  1.
         13    1    6    6    0    0  0.11681939234E+03  0.10521089418E+03 -0.63492895283E+02  0.16955073115E+03  0.00000000000E+00 0. -1.
        -14    1    6    6    0    0  0.32135123001E+02  0.26188679026E+02 -0.75469025967E+02  0.86105092299E+02  0.00000000000E+00 0.  1.
</event>
<event>
12    1  0.1032880E+000  0.2158614E+03  0.7818608E-02  0.1137114E+00
         21   -1    0    0  503  502  0.00000000000E+00  0.00000000000E+00  0.26094360408E+03  0.26094360408E+03  0.00000000000E+00 0.  1.
         21   -1    0    0  501  503 -0.00000000000E+00 -0.00000000000E+00 -0.23992247513E+03  0.23992247513E+03  0.00000000000E+00 0.  1.
          6    2    1    2  501    0  0.56924889672E+02  0.11864177005E+03 -0.11661861478E+03  0.24485663201E+03  0.17040703113E+03 0.  0.
         24    2    3    3    0    0  0.85252855234E+02  0.10415037227E+03 -0.13589196487E+03  0.20735961525E+03  0.80100153245E+02 0.  0.
         -6    2    1    2    0  502 -0.56924889672E+02 -0.11864177005E+03  0.13763974374E+03  0.25600944720E+03  0.17111348672E+03 0.  0.
        -24    2    5    5    0    0  0.16024183044E+02 -0.64150234053E+02  0.12773315509E+03  0.16429726042E+03  0.79409092058E+02 0.  0.
          5    1    3    3  501    0 -0.28327965562E+02  0.14491397779E+02  0.19273350083E+02  0.37497016760E+02  0.47000000000E+01 0. -1.
        -11    1    4    4    0    0  0.37435355662E+02  0.73451213641E+02 -0.12463182064E+03  0.14943084473E+03  0.00000000000E+00 0.  1.
         12    1    4    4    0    0  0.47817499572E+02  0.30699158629E+02 -0.11260144223E+02  0.57928770518E+02  0.00000000000E+00 0. -1.
         -5    1    5    5    0  502 -0.72949072716E+02 -0.54491535996E+02  0.99065886474E+01  0.91712186780E+02  0.47000000000E+01 0.  1.
         11    1    6    6    0    0  0.38697630326E+02 -0.16187249619E+02  0.25421544689E+02  0.49048838696E+02  0.00000000000E+00 0. -1.
        -12    1    6    6    0    0 -0.22673447281E+02 -0.47962984435E+02  0.10231161040E+03  0.11524842173E+03  0.00000000000E+00 0.  1.
</event>
<event>
12    1  0.1032880E+000  0.2120326E+03  0.7818608E-02  0.1142299E+00
         21   -1    0    0  501  502  0.00000000000E+00  0.00000000000E+00  0.37829596851E+03  0.37829596851E+03  0.00000000000E+00 0.  1.
         21   -1    0    0  502  503 -0.00000000000E+00 -0.00000000000E+00 -0.12031120989E+03  0.12031120989E+03  0.00000000000E+00 0.  1.
         -6    2    1    2    0  503 -0.97914768804E+02  0.31550863075E+02  0.18934042132E+03  0.27573979492E+03  0.17204615790E+03 0.  0.
        -24    2    3    3    0    0 -0.67661504886E+02  0.55677148807E+02  0.20260981486E+03  0.23456329136E+03  0.79316936603E+02 0.  0.
          6    2    1    2  501    0  0.97914768804E+02 -0.31550863075E+02  0.68644337303E+02  0.22286738348E+03  0.18540514195E+03 0.  0.
         24    2    5    5    0    0  0.12623269984E+02 -0.10597024641E+02  0.10089162236E+03  0.12918878128E+03  0.78987200679E+02 0.  0.
          5    1    5    5  501    0  0.85291498821E+02 -0.20953838433E+02 -0.32247285052E+02  0.93678602196E+02  0.47000000000E+01 0. -1.
        -13    1    6    6    0    0  0.33203305075E+02  0.13224121167E+02  0.88345434476E+02  0.95300853309E+02  0.00000000000E+00 0.  1.
         14    1    6    6    0    0 -0.20580035091E+02 -0.23821145808E+02  0.12546187879E+02  0.33887927972E+02  0.00000000000E+00 0. -1.
         -5    1    3    3    0  503 -0.30253263918E+02 -0.24126285733E+02 -0.13269393541E+02  0.41176503566E+02  0.47000000000E+01 0.  1.
         11    1    4    4    0    0 -0.66162369170E+02  0.73798554005E+02  0.15965841808E+03  0.18792151588E+03  0.00000000000E+00 0. -1.
        -12    1    4    4    0    0 -0.14991357160E+01 -0.18121405197E+02  0.42951396779E+02  0.46641775475E+02  0.00000000000E+00 0.  1.
</event>
<event>
12    1  0.1032880E+000  0.3661464E+03  0.7818608E-02  0.1056182E+00
         21   -1    0    0  503  502  0.00000000000E+00  0.00000000000E+00  0.23771223346E+03  0.23771223346E+03  0.00000000000E+00 0. -1.
         21   -1    0    0  501  503 -0.00000000000E+00 -0.00000000000E+00 -0.56575683736E+03  0.56575683736E+03  0.00000000000E+00 0. -1.
          6    2    1    2  501    0 -0.17891903024E+03  0.26845674541E+03 -0.14088110474E+03  0.39231448888E+03  0.17315348387E+03 0.  0.
         24    2    3    3    0    0 -0.17972897325E+03  0.15722461422E+03 -0.70274659535E+02  0.26047897349E+03  0.76737765881E+02 0.  0.
         -6    2    1    2    0  502  0.17891903024E+03 -0.26845674541E+03 -0.18716349916E+03  0.41115458193E+03  0.17302274787E+03 0.  0.
        -24    2    5    5    0    0  0.55650916877E+02 -0.97718268163E+02 -0.13757364714E+03  0.19475703386E+03  0.79736499599E+02 0.  0.
          5    1    3    3  501    0  0.80994300685E+00  0.11123213119E+03 -0.70606445202E+02  0.13183551540E+03  0.47000000000E+01 0. -1.
        -11    1    4    4    0    0 -0.13926367808E+03  0.14777172689E+03 -0.35161750742E+02  0.20607572399E+03  0.00000000000E+00 0.  1.
         12    1    4    4    0    0 -0.40465295167E+02  0.94528873274E+01 -0.35112908793E+02  0.54403249495E+02  0.00000000000E+00 0. -1.
         -5    1    5    5    0  502  0.12326811337E+03 -0.17073847725E+03 -0.49589852018E+02  0.21639754807E+03  0.47000000000E+01 0.  1.
         11    1    6    6    0    0 -0.18150121024E+02 -0.12405986767E+02 -0.91145365383E+01  0.23799373461E+02  0.00000000000E+00 0. -1.
        -12    1    6    6    0    0  0.73801037901E+02 -0.85312281397E+02 -0.12845911060E+03  0.17095766040E+03  0.00000000000E+00 0.  1.
</event>
<event>
12    1  0.1421047E+000  0.2769623E+03  0.7818608E-02  0.1097479E+00
         21   -1    0    0  503  502  0.00000000000E+00  0.00000000000E+00  0.55920943378E+03  0.55920943378E+03  0.00000000000E+00 0. -1.
         21   -1    0    0  501  503 -0.00000000000E+00 -0.00000000000E+00 -0.34740561427E+03  0.34740561427E+03  0.00000000000E+00 0. -1.
          6    2    1    2  501    0 -0.17866705362E+03  0.12190999773E+03  0.45882957815E+03  0.53549531057E+03  0.17160035625E+03 0.  0.
         24    2    3    3    0    0 -0.10414026134E+03  0.12419919008E+02  0.15105135222E+03  0.20039555458E+03  0.79639304804E+02 0.  0.
         -6    2    1    2    0  502  0.17866705362E+03 -0.12190999773E+03 -0.24702575863E+03  0.37111973748E+03  0.17298604142E+03 0.  0.
        -24    2    5    5    0    0  0.80372883747E+02 -0.13611225089E+03 -0.13541474703E+03  0.22164547302E+03  0.76178846891E+02 0.  0.
          5    1    3    3  501    0 -0.74526792278E+02  0.10949007872E+03  0.30777822593E+03  0.33509975599E+03  0.47000000000E+01 0. -1.
        -11    1    4    4    0    0 -0.78073663851E+02  0.92268407462E+01  0.15503960635E+03  0.17383299777E+03  0.00000000000E+00 0.  1.
         12    1    4    4    0    0 -0.26066597488E+02  0.31930782616E+01 -0.39882541304E+01  0.26562556812E+02  0.00000000000E+00 0. -1.
         -5    1    5    5    0  502  0.98294169871E+02  0.14202253159E+02 -0.11161101160E+03  0.14947426446E+03  0.47000000000E+01 0.  1.
         11    1    6    6    0    0 -0.48627146696E+01 -0.32521872786E+02 -0.58237266993E+02  0.66879723910E+02  0.00000000000E+00 0. -1.
        -12    1    6    6    0    0  0.85235598416E+02 -0.10359037810E+03 -0.77177480037E+02  0.15476574911E+03  0.00000000000E+00 0.  1.
</event>
<event>
12    1  0.1032880E+000  0.3801371E+03  0.7818608E-02  0.1051017E+00
         21   -1    0    0  501  502  0.00000000000E+00  0.00000000000E+00  0.34681186685E+03  0.34681186685E+03  0.00000000000E+00 0. -1.
         21   -1    0    0  502  503 -0.00000000000E+00 -0.00000000000E+00 -0.45228249888E+03  0.45228249888E+03  0.00000000000E+00 0.  1.
         -6    2    1    2    0  503 -0.29186101992E+03  0.16989659170E+03 -0.16742728344E+03  0.41537468139E+03  0.17451797583E+03 0.  0.
        -24    2    3    3    0    0 -0.23385519692E+03  0.14062427401E+03 -0.61463490344E+02  0.29098834963E+03  0.80206105782E+02 0.  0.
          6    2    1    2  501    0  0.29186101992E+03 -0.16989659170E+03  0.61956651413E+02  0.38371968434E+03  0.17133144101E+03 0.  0.
         24    2    5    5    0    0  0.93163214797E+02 -0.39001440662E+02 -0.21826548161E+02  0.13141813291E+03  0.81202404441E+02 0.  0.
          5    1    5    5  501    0  0.19869780512E+03 -0.13089515104E+03  0.83783199573E+02  0.25230155143E+03  0.47000000000E+01 0. -1.
        -11    1    6    6    0    0 -0.57530435137E+01  0.14551142573E+02 -0.93944488550E+01  0.18250724071E+02  0.00000000000E+00 0.  1.
         12    1    6    6    0    0  0.98916258310E+02 -0.53552583235E+02 -0.12432099306E+02  0.11316740883E+03  0.00000000000E+00 0. -1.
         -5    1    3    3    0  503 -0.58005822994E+02  0.29272317691E+02 -0.10596379309E+03  0.12438633177E+03  0.47000000000E+01 0.  1.
         11    1    4    4    0    0 -0.11085627498E+03  0.10708900381E+03 -0.53860750565E+02  0.16327323385E+03  0.00000000000E+00 0. -1.
        -12    1    4    4    0    0 -0.12299892194E+03  0.33535270197E+02 -0.76027397791E+01  0.12771511578E+03  0.00000000000E+00 0.  1.
</event>
<event>
12    1  0.1032880E+000  0.2086272E+03  0.7818608E-02  0.1142663E+00
         21   -1    0    0  503  502  0.00000000000E+00  0.00000000000E+00  0.50241043968E+03  0.50241043968E+03  0.00000000000E+00 0.  1.
         21   -1    0    0  501  503 -0.00000000000E+00 -0.00000000000E+00 -0.98973241676E+02  0.98973241676E+02  0.00000000000E+00 0.  1.
          6    2    1    2  501    0 -0.11888063212E+03  0.60132785836E+01  0.30792796905E+03  0.37193360279E+03  0.17130734528E+03 0.  0.
         24    2    3    3    0    0 -0.11576951445E+02 -0.37770876433E+02  0.83729207200E+02  0.11950874876E+03  0.75571793549E+02 0.  0.
         -6    2    1    2    0  502  0.11888063212E+03 -0.60132785836E+01  0.95509228959E+02  0.22945007857E+03  0.17133756602E+03 0.  0.
        -24    2    5    5    0    0  0.10645222064E+03  0.24236954796E+02  0.12579594560E+03  0.18462913218E+03  0.79647920639E+02 0.  0.
          5    1    3    3  501    0 -0.10730368067E+03  0.43784155016E+02  0.22419876185E+03  0.25242485403E+03  0.47000000000E+01 0. -1.
        -11    1    4    4    0    0 -0.31595141557E+02 -0.31966314172E+02  0.14525417010E+02  0.47234372559E+02  0.00000000000E+00 0.  1.
         12    1    4    4    0    0  0.20018190112E+02 -0.58045622610E+01  0.69203790190E+02  0.72274376200E+02  0.00000000000E+00 0. -1.
         -5    1    5    5    0  502  0.12428411474E+02 -0.30250233380E+02 -0.30286716637E+02  0.44820946397E+02  0.47000000000E+01 0.  1.
         11    1    6    6    0    0 -0.72994323586E+01 -0.21851277058E+01 -0.51328395533E+01  0.91870853772E+01  0.00000000000E+00 0. -1.
        -12    1    6    6    0    0  0.11375165300E+03  0.26422082502E+02  0.13092878515E+03  0.17544204680E+03  0.00000000000E+00 0.  1.
</event>
<event>
12    1  0.1032880E+000  0.2140633E+03  0.7818608E-02  0.1138837E+00
         21   -1    0    0  503  502  0.00000000000E+00  0.00000000000E+00  0.18431159359E+03  0.18431159359E+03  0.00000000000E+00 0.  1.
         21   -1    0    0  501  503 -0.00000000000E+00 -0.00000000000E+00 -0.30220146491E+03  0.30220146491E+03  0.00000000000E+00 0.  1.
          6    2    1    2  501    0  0.12008209748E+03 -0.35536808361E+02  0.46272550071E+02  0.21674944901E+03  0.17075303766E+03 0.  0.
         24    2    3    3    0    0  0.12654833605E+03 -0.58517774741E+02 -0.42838770680E+01  0.16064259219E+03  0.79679856336E+02 0.  0.
         -6    2    1    2    0  502 -0.12008209748E+03  0.35536808361E+02 -0.16416242139E+03  0.26976360949E+03  0.17361028060E+03 0.  0.
        -24    2    5    5    0    0 -0.12805499156E+03  0.74278970456E+02 -0.10980382478E+03  0.20237318593E+03  0.83561834180E+02 0.  0.
          5    1    3    3  501    0 -0.64662385670E+01  0.22980966380E+02  0.50556427139E+02  0.56106856818E+02  0.47000000000E+01 0. -1.
        -13    1    4    4    0    0  0.43293278619E+02  0.88338825178E+01  0.23449950875E+02  0.50022451459E+02  0.00000000000E+00 0.  1.
         14    1    4    4    0    0  0.83255057426E+02 -0.67351657259E+02 -0.27733827943E+02  0.11062014073E+03  0.00000000000E+00 0. -1.
         -5    1    5    5    0  502  0.79728940776E+01 -0.38742162095E+02 -0.54358596603E+02  0.67390423566E+02  0.47000000000E+01 0.  1.
         13    1    6    6    0    0 -0.89470595349E+02  0.33807139804E+02 -0.11089785219E+03  0.14644536099E+03  0.00000000000E+00 0. -1.
        -14    1    6    6    0    0 -0.38584396207E+02  0.40471830652E+02  0.10940274061E+01  0.55927824944E+02  0.00000000000E+00 0.  1.
</event>
<event>
12    1  0.1032880E+000  0.2688497E+03  0.7818608E-02  0.1102331E+00
         21   -1    0    0  501  502  0.00000000000E+00  0.00000000000E+00  0.61054702026E+03  0.61054702026E+03  0.00000000000E+00 0.  1.
         21   -1    0    0  502  503 -0.00000000000E+00 -0.00000000000E+00 -0.15483589147E+03  0.15483589147E+03  0.00000000000E+00 0.  1.
         -6    2    1    2    0  503 -0.11539273640E+03 -0.16741353888E+03  0.41740543140E+03  0.49649516518E+03  0.17589024497E+03 0.  0.
        -24    2    3    3    0    0 -0.11937590716E+03 -0.11944897515E+03  0.19959794598E+03  0.27338385725E+03  0.79879462259E+02 0.  0.
          6    2    1    2  501    0  0.11539273640E+03  0.16741353888E+03  0.38305697388E+02  0.26888774654E+03  0.17172803258E+03 0.  0.
         24    2    5    5    0    0  0.31985358293E+02  0.10847705057E+03 -0.35168682426E+02  0.14298748893E+03  0.80113994542E+02 0.  0.
          5    1    5    5  501    0  0.83407378108E+02  0.58936488307E+02  0.73474379814E+02  0.12590025761E+03  0.47000000000E+01 0. -1.
        -11    1    6    6    0    0  0.54539004319E+02  0.54258386410E+02 -0.53226921073E+01  0.77115540192E+02  0.00000000000E+00 0.  1.
         12    1    6    6    0    0 -0.22553646026E+02  0.54218664165E+02 -0.29845990319E+02  0.65871948741E+02  0.00000000000E+00 0. -1.
         -5    1    3    3    0  503  0.39831707632E+01 -0.47964563736E+02  0.21780748542E+03  0.22311130794E+03  0.47000000000E+01 0.  1.
         13    1    4    4    0    0 -0.99311992990E+02 -0.90270661371E+02  0.19633682425E+03  0.23782307040E+03  0.00000000000E+00 0. -1.
        -14    1    4    4    0    0 -0.20063914174E+02 -0.29178313775E+02  0.32611217294E+01  0.35560786854E+02  0.00000000000E+00 0.  1.
</event>
<event>
12    1  0.1032880E+000  0.3965479E+03  0.7818608E-02  0.1045034E+00
         21   -1    0    0  501  502  0.00000000000E+00  0.00000000000E+00  0.15549954931E+04  0.15549954931E+04  0.00000000000E+00 0. -1.
         21   -1    0    0  502  503 -0.00000000000E+00 -0.00000000000E+00 -0.11918875506E+03  0.11918875506E+03  0.00000000000E+00 0. -1.
         -6    2    1    2    0  503 -0.14678228816E+03  0.32535970392E+03  0.10446946925E+04  0.11172113011E+04  0.17137710950E+03 0.  0.
        -24    2    3    3    0    0 -0.25430647819E+02  0.89552760777E+02  0.45220217178E+03  0.46805753489E+03  0.76971663553E+02 0.  0.
          6    2    1    2  501    0  0.14678228816E+03 -0.32535970392E+03  0.39111204553E+03  0.55697294707E+03  0.17276068581E+03 0.  0.
         24    2    5    5    0    0  0.14891861686E+03 -0.22654251877E+03  0.34903298909E+03  0.44944556930E+03  0.81725302252E+02 0.  0.
          5    1    5    5  501    0 -0.21363287045E+01 -0.98817185146E+02  0.42079056446E+02  0.10752737778E+03  0.47000000000E+01 0. -1.
        -11    1    6    6    0    0  0.15357335587E+03 -0.19194009382E+03  0.28380426686E+03  0.37546056668E+03  0.00000000000E+00 0.  1.
         12    1    6    6    0    0 -0.46547390036E+01 -0.34602424951E+02  0.65228722230E+02  0.73985002611E+02  0.00000000000E+00 0. -1.
         -5    1    3    3    0  503 -0.12135164034E+03  0.23580694314E+03  0.59249252072E+03  0.64915376619E+03  0.47000000000E+01 0.  1.
         13    1    4    4    0    0 -0.50648857955E+02  0.76131976986E+02  0.36577804605E+03  0.37703443305E+03  0.00000000000E+00 0. -1.
        -14    1    4    4    0    0  0.25218210136E+02  0.13420783790E+02  0.86424125729E+02  0.91023101837E+02  0.00000000000E+00 0.  1.
</event>
<event>
12    1  0.1032880E+000  0.2176056E+03  0.7818608E-02  0.1136972E+00
         21   -1    0    0  501  502  0.00000000000E+00  0.00000000000E+00  0.26197350871E+02  0.26197350871E+02  0.00000000000E+00 0.  1.
         21   -1    0    0  502  503 -0.00000000000E+00 -0.00000000000E+00 -0.18661494643E+04  0.18661494643E+04  0.00000000000E+00 0.  1.
         -6    2    1    2    0  503 -0.95850469233E+02 -0.82870004787E+02 -0.69969019515E+03  0.73274726542E+03  0.17691081268E+03 0.  0.
        -24    2    3    3    0    0 -0.12034899261E+03 -0.94003304136E+02 -0.45664834357E+03  0.48817506827E+03  0.80415709783E+02 0.  0.
          6    2    1    2  501    0  0.95850469233E+02  0.82870004787E+02 -0.11402619183E+04  0.11595995498E+04  0.16857972405E+03 0.  0.
         24    2    5    5    0    0  0.40330320342E+02 -0.21727444719E+02 -0.50010863862E+03  0.50856850223E+03  0.80216297889E+02 0.  0.
          5    1    5    5  501    0  0.55520148891E+02  0.10459744951E+03 -0.64015327967E+03  0.65103104753E+03  0.47000000000E+01 0. -1.
        -13    1    6    6    0    0  0.13917533664E+02  0.22414398639E+02 -0.32476687519E+03  0.32583680920E+03  0.00000000000E+00 0.  1.
         14    1    6    6    0    0  0.26412786678E+02 -0.44141843359E+02 -0.17534176343E+03  0.18273169303E+03  0.00000000000E+00 0. -1.
         -5    1    3    3    0  503  0.24498523372E+02  0.11133299349E+02 -0.24304185158E+03  0.24457219716E+03  0.47000000000E+01 0.  1.
         11    1    4    4    0    0 -0.57830011593E+01  0.77255102399E+01 -0.93944780849E+02  0.94439125682E+02  0.00000000000E+00 0. -1.
        -12    1    4    4    0    0 -0.11456599145E+03 -0.10172881438E+03 -0.36270356272E+03  0.39373594258E+03  0.00000000000E+00 0.  1.
</event>
<event>
12    1  0.1032880E+000  0.2781255E+03  0.7818608E-02  0.1096724E+00
         21   -1    0    0  501  502  0.00000000000E+00  0.00000000000E+00  0.48533022304E+03  0.48533022304E+03  0.00000000000E+00 0.  1.
         21   -1    0    0  502  503 -0.00000000000E+00 -0.00000000000E+00 -0.17624016441E+03  0.17624016441E+03  0.00000000000E+00 0. -1.
         -6    2    1    2    0  503 -0.15081970336E+03  0.15835640195E+03  0.25691370694E+03  0.37859303609E+03  0.17176932555E+03 0.  0.
        -24    2    3    3    0    0 -0.27723763086E+02  0.11803318768E+03  0.15720312026E+03  0.21506058299E+03  0.82690948118E+02 0.  0.
          6    2    1    2  501    0  0.15081970336E+03 -0.15835640195E+03  0.52176351685E+02  0.28297735137E+03  0.17184433873E+03 0.  0.
         24    2    5    5    0    0  0.22520677991E+02 -0.34278813105E+02 -0.18220659164E+02  0.91056229293E+02  0.79227687759E+02 0.  0.
          5    1    5    5  501    0  0.12829902537E+03 -0.12407758884E+03  0.70397010849E+02  0.19192112208E+03  0.47000000000E+01 0. -1.
        -13    1    6    6    0    0 -0.17944192686E+02 -0.22064219379E+02 -0.35418297064E+02  0.45423337558E+02  0.00000000000E+00 0.  1.
         14    1    6    6    0    0  0.40464870676E+02 -0.12214593726E+02  0.17197637900E+02  0.45632891735E+02  0.00000000000E+00 0. -1.
         -5    1    3    3    0  503 -0.12309594027E+03  0.40323214266E+02  0.99710586684E+02  0.16353245310E+03  0.47000000000E+01 0.  1.
         13    1    4    4    0    0 -0.55793123228E+02  0.69918052213E+02  0.11190935375E+03  0.14326587201E+03  0.00000000000E+00 0. -1.
        -14    1    4    4    0    0  0.28069360142E+02  0.48115135471E+02  0.45293766510E+02  0.71794710981E+02  0.00000000000E+00 0.  1.
</event>
<event>
12    1  0.1032880E+000  0.1988411E+03  0.7818608E-02  0.1151021E+00
         21   -1    0    0  501  502  0.00000000000E+00  0.00000000000E+00  0.14374148835E+03  0.14374148835E+03  0.00000000000E+00 0. -1.
         21   -1    0    0  502  503 -0.00000000000E+00 -0.00000000000E+00 -0.28046831985E+03  0.28046831985E+03  0.00000000000E+00 0. -1.
         -6    2    1    2    0  503 -0.84271116232E+02 -0.51537698118E+02 -0.10293479184E+03  0.22390479547E+03  0.17256891581E+03 0.  0.
        -24    2    3    3    0    0 -0.42866787389E+02 -0.54758049936E+02 -0.13478748403E+03  0.17135602658E+03  0.79744695751E+02 0.  0.
          6    2    1    2  501    0  0.84271116232E+02  0.51537698118E+02 -0.33792039653E+02  0.20030501273E+03  0.17094572479E+03 0.  0.
         24    2    5    5    0    0  0.93367059814E+02  0.75886748258E+02  0.15330988329E+02  0.14453069686E+03  0.78599470186E+02 0.  0.
          5    1    5    5  501    0 -0.90959435811E+01 -0.24349050140E+02 -0.49123027982E+02  0.55774315867E+02  0.47000000000E+01 0. -1.
        -13    1    6    6    0    0  0.15823583420E+02  0.59675089053E+01 -0.27004731271E+02  0.31863026626E+02  0.00000000000E+00 0.  1.
         14    1    6    6    0    0  0.77543476393E+02  0.69919239353E+02  0.42335719600E+02  0.11266767024E+03  0.00000000000E+00 0. -1.
         -5    1    3    3    0  503 -0.41404328843E+02  0.32203518174E+01  0.31852692183E+02  0.52548768892E+02  0.47000000000E+01 0.  1.
         13    1    4    4    0    0  0.17033982585E+02  0.17109965141E+01 -0.53098603335E+01  0.17924248618E+02  0.00000000000E+00 0. -1.
        -14    1    4    4    0    0 -0.59900769974E+02 -0.56469046450E+02 -0.12947762369E+03  0.15343177796E+03  0.00000000000E+00 0.  1.
</event>
<event>
12    1  0.1032880E+000  0.1906242E+03  0.7818608E-02  0.1158708E+00
         21   -1    0    0  501  502  0.00000000000E+00  0.00000000000E+00  0.12075708765E+03  0.12075708765E+03  0.00000000000E+00 0. -1.
         21   -1    0    0  502  503 -0.00000000000E+00 -0.00000000000E+00 -0.30369111140E+03  0.30369111140E+03  0.00000000000E+00 0. -1.
         -6    2    1    2    0  503 -0.61697665547E+00 -0.83777366105E+02 -0.55387665763E+02  0.19508896853E+03  0.16725096230E+03 0.  0.
        -24    2    3    3    0    0 -0.64433885918E+01 -0.57580569228E+02  0.31583505742E+02  0.10395009693E+03  0.80318525934E+02 0.  0.
          6    2    1    2  501    0  0.61697665547E+00  0.83777366105E+02 -0.12754635799E+03  0.22935923053E+03  0.17122662019E+03 0.  0.
         24    2    5    5    0    0  0.68448525396E+02  0.46342029408E+02 -0.64615293033E+02  0.12943459705E+03  0.75798380606E+02 0.  0.
          5    1    5    5  501    0 -0.67831548740E+02  0.37435336697E+02 -0.62931064953E+02  0.99924633471E+02  0.47000000000E+01 0. -1.
        -13    1    6    6    0    0  0.32556072428E+02 -0.17683451100E+02 -0.32627047774E+02  0.49367261836E+02  0.00000000000E+00 0.  1.
         14    1    6    6    0    0  0.35892452967E+02  0.64025480508E+02 -0.31988245259E+02  0.80067335219E+02  0.00000000000E+00 0. -1.
         -5    1    3    3    0  503  0.58264119364E+01 -0.26196796877E+02 -0.86971171505E+02  0.91138871595E+02  0.47000000000E+01 0.  1.
         11    1    4    4    0    0 -0.11861969105E+02  0.12722919785E+02 -0.11929856028E+02  0.21092663743E+02  0.00000000000E+00 0. -1.
        -12    1    4    4    0    0  0.54185805136E+01 -0.70303489014E+02  0.43513361770E+02  0.82857433190E+02  0.00000000000E+00 0.  1.
</event>
<event>
12    1  0.1032880E+000  0.2009052E+03  0.7818608E-02  0.1149235E+00
         21   -1    0    0  503  502  0.00000000000E+00  0.00000000000E+00  0.32047720811E+03  0.32047720811E+03  0.00000000000E+00 0. -1.
         21   -1    0    0  501  503 -0.00000000000E+00 -0.00000000000E+00 -0.28192125048E+03  0.28192125048E+03  0.00000000000E+00 0. -1.
          6    2    1    2  501    0 -0.10179086507E+03  0.70596827466E+01  0.24383671779E+03  0.31516494715E+03  0.17164317534E+03 0.  0.
         24    2    3    3    0    0 -0.12269222967E+03  0.17310918322E+02  0.12215876885E+03  0.19119088482E+03  0.79234705254E+02 0.  0.
         -6    2    1    2    0  502  0.10179086507E+03 -0.70596827466E+01 -0.20528076016E+03  0.28723351143E+03  0.17306553748E+03 0.  0.
        -24    2    5    5    0    0  0.58841139311E+02  0.71479182200E+01 -0.26904801608E+02  0.10315035778E+03  0.80017220336E+02 0.  0.
          5    1    3    3  501    0  0.20901364603E+02 -0.10251235575E+02  0.12167794894E+03  0.12397406234E+03  0.47000000000E+01 0. -1.
        -13    1    4    4    0    0 -0.26471012999E+02 -0.26472747927E+02  0.52908982362E+02  0.64814206210E+02  0.00000000000E+00 0.  1.
         14    1    4    4    0    0 -0.96221216672E+02  0.43783666248E+02  0.69249786484E+02  0.12637667861E+03  0.00000000000E+00 0. -1.
         -5    1    5    5    0  502  0.42949725757E+02 -0.14207600967E+02 -0.17837595855E+03  0.18408315365E+03  0.47000000000E+01 0.  1.
         13    1    6    6    0    0 -0.19999952745E+02 -0.22050422319E+01 -0.69439225660E+01  0.21285637919E+02  0.00000000000E+00 0. -1.
        -14    1    6    6    0    0  0.78841092056E+02  0.93529604519E+01 -0.19960879042E+02  0.81864719861E+02  0.00000000000E+00 0.  1.
</event>
<event>
12    1  0.1032880E+000  0.4837674E+03  0.7818608E-02  0.1018182E+00
         21   -1    0    0  501  502  0.00000000000E+00  0.00000000000E+00  0.74801305058E+03  0.74801305058E+03  0.00000000000E+00 0.  1.
         21   -1    0    0  502  503 -0.00000000000E+00 -0.00000000000E+00 -0.31214455353E+03  0.31214455353E+03  0.00000000000E+00 0. -1.
         -6    2    1    2    0  503  0.38625432414E+02 -0.45018743175E+03  0.22050872081E+03  0.53061937408E+03  0.16962363178E+03 0.  0.
        -24    2    3    3    0    0 -0.43861999319E+01 -0.37157273914E+03  0.12703404408E+03  0.40104362171E+03  0.81319117925E+02 0.  0.
          6    2    1    2  501    0 -0.38625432414E+02  0.45018743175E+03  0.21535977624E+03  0.52953823003E+03  0.17283013654E+03 0.  0.
         24    2    5    5    0    0 -0.27723160079E+02  0.10703936743E+03  0.89354356714E+02  0.16379390766E+03  0.81352586551E+02 0.  0.
          5    1    5    5  501    0 -0.10902272335E+02  0.34314806432E+03  0.12600541953E+03  0.36574432236E+03  0.47000000000E+01 0. -1.
        -11    1    6    6    0    0 -0.28860031082E+02 -0.91726962165E+00  0.24356854276E+02  0.37775641991E+02  0.00000000000E+00 0.  1.
         12    1    6    6    0    0  0.11368710030E+01  0.10795663705E+03  0.64997502438E+02  0.12601826567E+03  0.00000000000E+00 0. -1.
         -5    1    3    3    0  503  0.43011632346E+02 -0.78614692618E+02  0.93474676735E+02  0.12957575237E+03  0.47000000000E+01 0.  1.
         13    1    4    4    0    0 -0.34103665582E+02 -0.14749055143E+03  0.26640960202E+02  0.15370837169E+03  0.00000000000E+00 0. -1.
        -14    1    4    4    0    0  0.29717465650E+02 -0.22408218771E+03  0.10039308388E+03  0.24733525002E+03  0.00000000000E+00 0.  1.
</event>
<event>
12    1  0.1032880E+000  0.2994846E+03  0.7818608E-02  0.1085693E+00
         21   -1    0    0  501  502  0.00000000000E+00  0.00000000000E+00  0.81760152205E+02  0.81760152205E+02  0.00000000000E+00 0.  1.
         21   -1    0    0  502  503 -0.00000000000E+00 -0.00000000000E+00 -0.11319487693E+04  0.11319487693E+04  0.00000000000E+00 0.  1.
         -6    2    1    2    0  503 -0.14814999225E+03 -0.19550844121E+03 -0.40882401071E+03  0.50586741438E+03  0.16909405197E+03 0.  0.
        -24    2    3    3    0    0 -0.15600852066E+03 -0.18442113184E+03 -0.41758273918E+03  0.48903024650E+03  0.80158752100E+02 0.  0.
          6    2    1    2  501    0  0.14814999225E+03  0.19550844121E+03 -0.64136460638E+03  0.70784150712E+03  0.17181114660E+03 0.  0.
         24    2    5    5    0    0  0.12782958357E+02  0.10448014313E+03 -0.35123407237E+03  0.37496284802E+03  0.78436340251E+02 0.  0.
          5    1    5    5  501    0  0.13536703389E+03  0.91028298080E+02 -0.29013053401E+03  0.33287865910E+03  0.47000000000E+01 0. -1.
        -13    1    6    6    0    0 -0.15391714125E+02  0.63949224717E+02 -0.10553595624E+03  0.12435532263E+03  0.00000000000E+00 0.  1.
         14    1    6    6    0    0  0.28174672482E+02  0.40530918409E+02 -0.24569811613E+03  0.25060752540E+03  0.00000000000E+00 0. -1.
         -5    1    3    3    0  503  0.78585284126E+01 -0.11087309368E+02  0.87587284733E+01  0.16837167883E+02  0.47000000000E+01 0.  1.
         11    1    4    4    0    0  0.22449124053E+01 -0.33115225707E-01  0.27300644727E+01  0.35346824964E+01  0.00000000000E+00 0. -1.
        -12    1    4    4    0    0 -0.15825343307E+03 -0.18438801661E+03 -0.42031280365E+03  0.48549556400E+03  0.00000000000E+00 0.  1.
</event>
<event>
12    1  0.1032880E+000  0.1997320E+03  0.7818608E-02  0.1150046E+00
         21   -1    0    0  503  502  0.00000000000E+00  0.00000000000E+00  0.18850878153E+04  0.18850878153E+04  0.00000000000E+00 0.  1.
         21   -1    0    0  501  503 -0.00000000000E+00 -0.00000000000E+00 -0.21941748335E+02  0.21941748335E+02  0.00000000000E+00 0.  1.
          6    2    1    2  501    0  0.75536600978E+02  0.65183820887E+02  0.74811711661E+03  0.77432040972E+03  0.17302649551E+03 0.  0.
         24    2    3    3    0    0  0.38592901358E+02  0.45449042694E+01  0.63170229566E+03  0.63787842320E+03  0.79567733679E+02 0.  0.
         -6    2    1    2    0  502 -0.75536600978E+02 -0.65183820887E+02  0.11150289504E+04  0.11327091540E+04  0.17258551111E+03 0.  0.
        -24    2    5    5    0    0 -0.65713463923E+02 -0.21871622393E+02  0.33279873432E+03  0.34920507516E+03  0.79953484861E+02 0.  0.
          5    1    3    3  501    0  0.36943699621E+02  0.60638916617E+02  0.11641482095E+03  0.13644198652E+03  0.47000000000E+01 0. -1.
        -11    1    4    4    0    0  0.47322100013E+02  0.20183254981E+02  0.22602778269E+03  0.23180876489E+03  0.00000000000E+00 0.  1.
         12    1    4    4    0    0 -0.87291986553E+01 -0.15638350712E+02  0.40567451297E+03  0.40606965831E+03  0.00000000000E+00 0. -1.
         -5    1    5    5    0  502 -0.98231370555E+01 -0.43312198494E+02  0.78223021606E+03  0.78350407879E+03  0.47000000000E+01 0.  1.
         13    1    6    6    0    0 -0.84275930432E+02 -0.13480264326E+02  0.27321931215E+03  0.28623930986E+03  0.00000000000E+00 0. -1.
        -14    1    6    6    0    0  0.18562466509E+02 -0.83913580677E+01  0.59579422178E+02  0.62965765303E+02  0.00000000000E+00 0.  1.
</event>
<event>
12    1  0.1032880E+000  0.2305685E+03  0.7818608E-02  0.1126284E+00
         21   -1    0    0  503  502  0.00000000000E+00  0.00000000000E+00  0.65798914995E+03  0.65798914995E+03  0.00000000000E+00 0.  1.
         21   -1    0    0  501  503 -0.00000000000E+00 -0.00000000000E+00 -0.89925961882E+02  0.89925961882E+02  0.00000000000E+00 0.  1.
          6    2    1    2  501    0  0.40268730923E+02  0.14647287141E+03  0.16415398293E+03  0.28282968251E+03  0.17311911058E+03 0.  0.
         24    2    3    3    0    0  0.71900609388E+02  0.46212948803E+02  0.49500498577E+02  0.12720147398E+03  0.80153486231E+02 0.  0.
         -6    2    1    2    0  502 -0.40268730923E+02 -0.14647287141E+03  0.40390920515E+03  0.46508542933E+03  0.17345298448E+03 0.  0.
        -24    2    5    5    0    0 -0.85979590370E+02 -0.95949932098E+02  0.33667161653E+03  0.36924684946E+03  0.79978616082E+02 0.  0.
          5    1    3    3  501    0 -0.31631878465E+02  0.10025992261E+03  0.11465348435E+03  0.15562820853E+03  0.47000000000E+01 0. -1.
        -11    1    4    4    0    0  0.18787057020E+02  0.87873145095E+01  0.58071136953E+02  0.61663825334E+02  0.00000000000E+00 0.  1.
         12    1    4    4    0    0  0.53113552368E+02  0.37425634293E+02 -0.85706383766E+01  0.65537648643E+02  0.00000000000E+00 0. -1.
         -5    1    5    5    0  502  0.45710859447E+02 -0.50522939313E+02  0.67237588615E+02  0.95838579867E+02  0.47000000000E+01 0.  1.
         13    1    6    6    0    0 -0.82180923254E+02 -0.10369166903E+03  0.33537012807E+03  0.36052571222E+03  0.00000000000E+00 0. -1.
        -14    1    6    6    0    0 -0.37986671165E+01  0.77417369308E+01  0.13014884648E+01  0.87211372419E+01  0.00000000000E+00 0.  1.
</event>
<event>
12    1  0.1032880E+000  0.2142305E+03  0.7818608E-02  0.1141283E+00
         21   -1    0    0  501  502  0.00000000000E+00  0.00000000000E+00  0.12914589368E+04  0.12914589368E+04  0.00000000000E+00 0.  1.
         21   -1    0    0  502  503 -0.00000000000E+00 -0.00000000000E+00 -0.34242574353E+02  0.34242574353E+02  0.00000000000E+00 0.  1.
         -6    2    1    2    0  503  0.89250818593E+02  0.86059383194E+02  0.48440904424E+03  0.52375023037E+03  0.15585331445E+03 0.  0.
        -24    2    3    3    0    0  0.87741506218E+02  0.43724196378E+02  0.45441692753E+03  0.47163340841E+03  0.79579838188E+02 0.  0.
          6    2    1    2  501    0 -0.89250818593E+02 -0.86059383194E+02  0.77280731825E+03  0.80195128082E+03  0.17470769763E+03 0.  0.
         24    2    5    5    0    0 -0.68997314525E+02 -0.31815027659E+02  0.21273404331E+03  0.23887329524E+03  0.77665002428E+02 0.  0.
          5    1    5    5  501    0 -0.20253504068E+02 -0.54244355535E+02  0.56007327494E+03  0.56307798557E+03  0.47000000000E+01 0. -1.
        -13    1    6    6    0    0 -0.75009380235E+01  0.23085313639E+02  0.31467549415E+02  0.39741696532E+02  0.00000000000E+00 0.  1.
         14    1    6    6    0    0 -0.61496376502E+02 -0.54900341298E+02  0.18126649389E+03  0.19913159871E+03  0.00000000000E+00 0. -1.
         -5    1    3    3    0  503  0.15093123748E+01  0.42335186816E+02  0.29992116710E+02  0.52116821961E+02  0.47000000000E+01 0.  1.
         13    1    4    4    0    0  0.54587247565E+02  0.61832438561E+02  0.37104801898E+03  0.38010478877E+03  0.00000000000E+00 0. -1.
        -14    1    4    4    0    0  0.33154258654E+02 -0.18108242183E+02  0.83368908543E+02  0.91528619641E+02  0.00000000000E+00 0.  1.
</event>
<event>
12    1  0.1032880E+000  0.2072376E+03  0.7818608E-02  0.1144057E+00
         21   -1    0    0  503  502  0.00000000000E+00  0.00000000000E+00  0.14774818785E+03  0.14774818785E+03  0.00000000000E+00 0.  1.
         21   -1    0    0  501  503 -0.00000000000E+00 -0.00000000000E+00 -0.37052858855E+03  0.37052858855E+03  0.00000000000E+00 0.  1.
          6    2    1    2  501    0  0.11361892447E+03 -0.20563143421E+01  0.10678959002E+02  0.20610582479E+03  0.17161609021E+03 0.  0.
         24    2    3    3    0    0  0.26564854437E+02 -0.47813561871E+02  0.32179440184E+02  0.10532637499E+03  0.84061291376E+02 0.  0.
         -6    2    1    2    0  502 -0.11361892447E+03  0.20563143421E+01 -0.23345935970E+03  0.31217095161E+03  0.17330303508E+03 0.  0.
        -24    2    5    5    0    0  0.10752257927E+02  0.35365922306E+01 -0.11227737907E+03  0.13845409962E+03  0.80219756397E+02 0.  0.
          5    1    3    3  501    0  0.87054070037E+02  0.45757247529E+02 -0.21500481182E+02  0.10077944980E+03  0.47000000000E+01 0. -1.
        -11    1    4    4    0    0  0.46571987696E+02 -0.56355235773E+01  0.35044019271E+02  0.58555891682E+02  0.00000000000E+00 0.  1.
         12    1    4    4    0    0 -0.20007133259E+02 -0.42178038294E+02 -0.28645790869E+01  0.46770483308E+02  0.00000000000E+00 0. -1.
         -5    1    5    5    0  502 -0.12437118240E+03 -0.14802778886E+01 -0.12118198063E+03  0.17371685199E+03  0.47000000000E+01 0.  1.
         13    1    6    6    0    0  0.15719068067E+02  0.40171068490E+02 -0.70668300855E+02  0.82793795603E+02  0.00000000000E+00 0. -1.
        -14    1    6    6    0    0 -0.49668101398E+01 -0.36634476259E+02 -0.41609078215E+02  0.55660304021E+02  0.00000000000E+00 0.  1.
</event>
<event>
12    1  0.1032880E+000  0.2273073E+03  0.7818608E-02  0.1128592E+00
         21   -1    0    0  501  502  0.00000000000E+00  0.00000000000E+00  0.43703316009E+03  0.43703316009E+03  0.00000000000E+00 0. -1.
         21   -1    0    0  502  503 -0.00000000000E+00 -0.00000000000E+00 -0.16421230069E+03  0.16421230069E+03  0.00000000000E+00 0. -1.
         -6    2    1    2    0  503 -0.87222407677E+02  0.11986422692E+03 -0.22840338036E+02  0.22845195624E+03  0.17231782837E+03 0.  0.
        -24    2    3    3    0    0  0.18342795284E+02  0.46256766841E+02 -0.22240680253E+02  0.99671057643E+02  0.83447739671E+02 0.  0.
          6    2    1    2  501    0  0.87222407677E+02 -0.11986422692E+03  0.29566119744E+03  0.37279350453E+03  0.17200079085E+03 0.  0.
         24    2    5    5    0    0  0.31022636818E+02 -0.48093640674E+02  0.45751188777E+02  0.10673611650E+03  0.77614592850E+02 0.  0.
          5    1    5    5  501    0  0.56199770858E+02 -0.71770586244E+02  0.24991000866E+03  0.26605738803E+03  0.47000000000E+01 0. -1.
        -13    1    6    6    0    0  0.57042362616E+02 -0.37617161572E+02  0.34057718595E+02  0.76346644808E+02  0.00000000000E+00 0.  1.
         14    1    6    6    0    0 -0.26019725798E+02 -0.10476479102E+02  0.11693470182E+02  0.30389471695E+02  0.00000000000E+00 0. -1.
         -5    1    3    3    0  503 -0.10556520296E+03  0.73607460077E+02 -0.59965778261E+00  0.12878089860E+03  0.47000000000E+01 0.  1.
         11    1    4    4    0    0  0.17539138559E+02 -0.21707635174E+02 -0.13944015630E+02  0.31197409798E+02  0.00000000000E+00 0. -1.
        -12    1    4    4    0    0  0.80365672496E+00  0.67964402014E+02 -0.82966646228E+01  0.68473647845E+02  0.00000000000E+00 0.  1.
</event>
<event>
12    1  0.1032880E+000  0.2407845E+03  0.7818608E-02  0.1119571E+00
         21   -1    0    0  503  502  0.00000000000E+00  0.00000000000E+00  0.43337952290E+03  0.43337952290E+03  0.00000000000E+00 0.  1.
         21   -1    0    0  501  503 -0.00000000000E+00 -0.00000000000E+00 -0.16830503186E+03  0.16830503186E+03  0.00000000000E+00 0.  1.
          6    2    1    2  501    0 -0.75639054002E+02 -0.15082118066E+03  0.27114578825E+03  0.36262547465E+03  0.17178155127E+03 0.  0.
         24    2    3    3    0    0 -0.77639790035E+02 -0.12923170630E+03  0.28804290122E+03  0.33473800839E+03  0.79699751605E+02 0.  0.
         -6    2    1    2    0  502  0.75639054002E+02  0.15082118066E+03 -0.60712972124E+01  0.23905908011E+03  0.16924564428E+03 0.  0.
        -24    2    5    5    0    0  0.70222817826E+01  0.95432392086E+02  0.49888439806E+02  0.13451358046E+03  0.80301886666E+02 0.  0.
          5    1    3    3  501    0  0.20007360331E+01 -0.21589474360E+02 -0.16897112973E+02  0.27887466264E+02  0.47000000000E+01 0. -1.
        -11    1    4    4    0    0 -0.56022785056E+02 -0.34797899800E+02  0.16799662050E+03  0.18047800635E+03  0.00000000000E+00 0.  1.
         12    1    4    4    0    0 -0.21617004979E+02 -0.94433806499E+02  0.12004628072E+03  0.15426000204E+03  0.00000000000E+00 0. -1.
         -5    1    5    5    0  502  0.68616772220E+02  0.55388788574E+02 -0.55959737019E+02  0.10454549965E+03  0.47000000000E+01 0.  1.
         13    1    6    6    0    0  0.29991198973E+02  0.78065873285E+02  0.84526165335E+01  0.84054739984E+02  0.00000000000E+00 0. -1.
        -14    1    6    6    0    0 -0.22968917191E+02  0.17366518801E+02  0.41435823273E+02  0.50458840479E+02  0.00000000000E+00 0.  1.
</event>
<event>
12    1  0.1032880E+000  0.2637990E+03  0.7818608E-02  0.1104961E+00
         21   -1    0    0  501  502  0.00000000000E+00  0.00000000000E+00  0.20550354837E+03  0.20550354837E+03  0.00000000000E+00 0. -1.
         21   -1    0    0  502  503 -0.00000000000E+00 -0.00000000000E+00 -0.41680996924E+03  0.41680996924E+03  0.00000000000E+00 0. -1.
         -6    2    1    2    0  503 -0.15971981892E+03  0.11899197139E+03  0.29611370128E+02  0.26545569141E+03  0.17297508794E+03 0.  0.
        -24    2    3    3    0    0 -0.11568765383E+03  0.15115418430E+03  0.42939495133E+02  0.20912658332E+03  0.75225706560E+02 0.  0.
          6    2    1    2  501    0  0.15971981892E+03 -0.11899197139E+03 -0.24091779100E+03  0.35685782621E+03  0.17215288640E+03 0.  0.
         24    2    5    5    0    0  0.18745221123E+03 -0.99188645932E+02 -0.22327681036E+03  0.31819839683E+03  0.80130934852E+02 0.  0.
          5    1    5    5  501    0 -0.27732392310E+02 -0.19803325457E+02 -0.17640980635E+02  0.38659429382E+02  0.47000000000E+01 0. -1.
        -11    1    6    6    0    0  0.10695009539E+03 -0.73080147242E+02 -0.18368613422E+03  0.22476571521E+03  0.00000000000E+00 0.  1.
         12    1    6    6    0    0  0.80502115835E+02 -0.26108498690E+02 -0.39590676141E+02  0.93432681622E+02  0.00000000000E+00 0. -1.
         -5    1    3    3    0  503 -0.44032165092E+02 -0.32162212913E+02 -0.13328125005E+02  0.56329108091E+02  0.47000000000E+01 0.  1.
         11    1    4    4    0    0  0.10258988822E+02  0.15129453621E+02 -0.19699870902E+01  0.18385539634E+02  0.00000000000E+00 0. -1.
        -12    1    4    4    0    0 -0.12594664265E+03  0.13602473068E+03  0.44909482224E+02  0.19074104368E+03  0.00000000000E+00 0.  1.
</event>
<event>
12    1  0.1032880E+000  0.1919227E+03  0.7818608E-02  0.1157170E+00
         21   -1    0    0  501  502  0.00000000000E+00  0.00000000000E+00  0.11015498440E+03  0.11015498440E+03  0.00000000000E+00 0. -1.
         21   -1    0    0  502  503 -0.00000000000E+00 -0.00000000000E+00 -0.33810847351E+03  0.33810847351E+03  0.00000000000E+00 0. -1.
         -6    2    1    2    0  503  0.25090301769E+02  0.74741165717E+02 -0.82114323418E+02  0.20875124560E+03  0.17498158570E+03 0.  0.
        -24    2    3    3    0    0  0.60578498541E+02  0.55001373940E+02  0.41029829119E+01  0.11333329446E+03  0.78311528807E+02 0.  0.
          6    2    1    2  501    0 -0.25090301769E+02 -0.74741165717E+02 -0.14583916569E+03  0.23951221230E+03  0.17286200420E+03 0.  0.
         24    2    5    5    0    0  0.84181263370E+01 -0.39281094642E+01 -0.13927399430E+03  0.16075629084E+03  0.79743618309E+02 0.  0.
          5    1    5    5  501    0 -0.33508428106E+02 -0.70813056253E+02 -0.65651713946E+01  0.78755921462E+02  0.47000000000E+01 0. -1.
        -11    1    6    6    0    0  0.43221618809E+02  0.48655786328E+01 -0.64265477014E+02  0.77600475023E+02  0.00000000000E+00 0.  1.
         12    1    6    6    0    0 -0.34803492472E+02 -0.87936880970E+01 -0.75008517284E+02  0.83155815814E+02  0.00000000000E+00 0. -1.
         -5    1    3    3    0  503 -0.35488196772E+02  0.19739791776E+02 -0.86217306330E+02  0.95417951143E+02  0.47000000000E+01 0.  1.
         13    1    4    4    0    0  0.53235532829E+02 -0.38548661072E+01 -0.37334176788E+01  0.53505330163E+02  0.00000000000E+00 0. -1.
        -14    1    4    4    0    0  0.73429657118E+01  0.58856240048E+02  0.78364005907E+01  0.59827964299E+02  0.00000000000E+00 0.  1.
</event>
<event>
12    1  0.1032880E+000  0.3543371E+03  0.7818608E-02  0.1060925E+00
         21   -1    0    0  503  502  0.00000000000E+00  0.00000000000E+00  0.15778161466E+03  0.15778161466E+03  0.00000000000E+00 0.  1.
         21   -1    0    0  501  503 -0.00000000000E+00 -0.00000000000E+00 -0.80860439834E+03  0.80860439834E+03  0.00000000000E+00 0.  1.
          6    2    1    2  501    0 -0.73565898101E+02 -0.30066942001E+03 -0.39056601569E+03  0.52734865931E+03  0.17245507927E+03 0.  0.
         24    2    3    3    0    0 -0.11572444033E+03 -0.20659241138E+03 -0.25919832367E+03  0.36029361825E+03  0.80963879769E+02 0.  0.
         -6    2    1    2    0  502  0.73565898101E+02  0.30066942001E+03 -0.26025676799E+03  0.43903735369E+03  0.17089813095E+03 0.  0.
        -24    2    5    5    0    0 -0.23921996530E+01  0.13691809010E+03 -0.17920376651E+03  0.24110855409E+03  0.85247046349E+02 0.  0.
          5    1    3    3  501    0  0.42158542232E+02 -0.94077008629E+02 -0.13136769202E+03  0.16705504106E+03  0.47000000000E+01 0. -1.
        -13    1    4    4    0    0 -0.99279136993E+02 -0.19358212800E+03 -0.19290298428E+03  0.29076098202E+03  0.00000000000E+00 0.  1.
         14    1    4    4    0    0 -0.16445303341E+02 -0.13010283381E+02 -0.66295339393E+02  0.69532636228E+02  0.00000000000E+00 0. -1.
         -5    1    5    5    0  502  0.75958097754E+02  0.16375132991E+03 -0.81053001480E+02  0.19792879960E+03  0.47000000000E+01 0.  1.
         13    1    6    6    0    0 -0.36341855084E+02  0.71397089618E+02 -0.56891523180E+02  0.98259453727E+02  0.00000000000E+00 0. -1.
        -14    1    6    6    0    0  0.33949655431E+02  0.65521000477E+02 -0.12231224333E+03  0.14284910036E+03  0.00000000000E+00 0.  1.
</event>
<event>
12    1  0.1032880E+000  0.2682775E+03  0.7818608E-02  0.1103391E+00
         21   -1    0    0  503  502  0.00000000000E+00  0.00000000000E+00  0.22485696359E+03  0.22485696359E+03  0.00000000000E+00 0.  1.
         21   -1    0    0  501  503 -0.00000000000E+00 -0.00000000000E+00 -0.51367840361E+03  0.51367840361E+03  0.00000000000E+00 0.  1.
          6    2    1    2  501    0 -0.65738383736E+02 -0.18473307799E+03  0.88784240448E+02  0.27533038178E+03  0.17168672802E+03 0.  0.
         24    2    3    3    0    0 -0.57770969204E+02 -0.76659140757E+02  0.10729941964E+03  0.16529239986E+03  0.81205315421E+02 0.  0.
         -6    2    1    2    0  502  0.65738383736E+02  0.18473307799E+03 -0.37760568047E+03  0.46320498542E+03  0.18309823429E+03 0.  0.
        -24    2    5    5    0    0  0.39499773036E+00  0.31862919259E+02 -0.61705223920E+02  0.10619765781E+03  0.80343053326E+02 0.  0.
          5    1    3    3  501    0 -0.79674145322E+01 -0.10807393724E+03 -0.18515179189E+02  0.11003798192E+03  0.47000000000E+01 0. -1.
        -13    1    4    4    0    0 -0.58538002052E+01  0.96875828308E+01 -0.66982357806E+01  0.13152284992E+02  0.00000000000E+00 0.  1.
         14    1    4    4    0    0 -0.51917168999E+02 -0.86346723588E+02  0.11399765542E+03  0.15214011487E+03  0.00000000000E+00 0. -1.
         -5    1    5    5    0  502  0.65343386006E+02  0.15287015873E+03 -0.31590045655E+03  0.35700732762E+03  0.47000000000E+01 0.  1.
         11    1    6    6    0    0  0.31696787320E+02  0.15482368071E+02 -0.20985138909E+00  0.35276537317E+02  0.00000000000E+00 0. -1.
        -12    1    6    6    0    0 -0.31301789590E+02  0.16380551188E+02 -0.61495372531E+02  0.70921120489E+02  0.00000000000E+00 0.  1.
</event>
<event>
12    1  0.1032880E+000  0.2687597E+03  0.7818608E-02  0.1102204E+00
         21   -1    0    0  503  502  0.00000000000E+00  0.00000000000E+00  0.51829938949E+03  0.51829938949E+03  0.00000000000E+00 0. -1.
         21   -1    0    0  501  503 -0.00000000000E+00 -0.00000000000E+00 -0.16316079570E+03  0.16316079570E+03  0.00000000000E+00 0. -1.
          6    2    1    2  501    0 -0.18605540302E+03 -0.90634913536E+02  0.45787675895E+02  0.27263214664E+03  0.17146566880E+03 0.  0.
         24    2    3    3    0    0 -0.20765019972E+03 -0.82706963107E+02  0.60272831204E+02  0.24504415347E+03  0.80341619223E+02 0.  0.
         -6    2    1    2    0  502  0.18605540302E+03  0.90634913536E+02  0.30935091789E+03  0.40882803854E+03  0.16914808351E+03 0.  0.
        -24    2    5    5    0    0  0.67540488008E+02  0.10398954974E+03  0.16823156116E+03  0.22400137858E+03  0.80617711837E+02 0.  0.
          5    1    3    3  501    0  0.21594796706E+02 -0.79279504290E+01 -0.14485155309E+02  0.27587993169E+02  0.47000000000E+01 0. -1.
        -13    1    4    4    0    0 -0.67488571549E+02 -0.56061584872E+02 -0.55685074367E+01  0.87912552363E+02  0.00000000000E+00 0.  1.
         14    1    4    4    0    0 -0.14016162817E+03 -0.26645378236E+02  0.65841338641E+02  0.15713160111E+03  0.00000000000E+00 0. -1.
         -5    1    5    5    0  502  0.11851491501E+03 -0.13354636204E+02  0.14111935673E+03  0.18482665996E+03  0.47000000000E+01 0.  1.
         11    1    6    6    0    0  0.30756125564E+01 -0.55462708141E+01  0.50043637048E+02  0.50443890824E+02  0.00000000000E+00 0. -1.
        -12    1    6    6    0    0  0.64464875451E+02  0.10953582055E+03  0.11818792411E+03  0.17355748776E+03  0.00000000000E+00 0.  1.
</event>
<event>
12    1  0.1032880E+000  0.1936805E+03  0.7818608E-02  0.1155553E+00
         21   -1    0    0  503  502  0.00000000000E+00  0.00000000000E+00  0.92311295090E+03  0.92311295090E+03  0.00000000000E+00 0. -1.
         21   -1    0    0  501  503 -0.00000000000E+00 -0.00000000000E+00 -0.50451077074E+02  0.50451077074E+02  0.00000000000E+00 0. -1.
          6    2    1    2  501    0 -0.75500192694E+02 -0.44484873165E+02  0.21934073072E+03  0.29261321525E+03  0.17272218892E+03 0.  0.
         24    2    3    3    0    0 -0.53773659001E+01  0.29925610119E+02  0.60054391671E+02  0.10327658734E+03  0.78326657835E+02 0.  0.
         -6    2    1    2    0  502  0.75500192694E+02  0.44484873165E+02  0.65332114310E+03  0.68095081273E+03  0.17084001373E+03 0.  0.
        -24    2    5    5    0    0  0.76165470941E+02  0.71584339457E+02  0.31426352806E+03  0.34077882683E+03  0.80269216582E+02 0.  0.
          5    1    3    3  501    0 -0.70122826794E+02 -0.74410483284E+02  0.15928633905E+03  0.18933662791E+03  0.47000000000E+01 0. -1.
        -13    1    4    4    0    0  0.34370898685E+02  0.25768497638E+02  0.22766790683E+02  0.48617907245E+02  0.00000000000E+00 0.  1.
         14    1    4    4    0    0 -0.39748264585E+02  0.41571124811E+01  0.37287600988E+02  0.54658680090E+02  0.00000000000E+00 0. -1.
         -5    1    5    5    0  502 -0.66527824711E+00 -0.27099466291E+02  0.33905761505E+03  0.34017198590E+03  0.47000000000E+01 0.  1.
         11    1    6    6    0    0  0.65154091106E+01  0.50982076890E+02  0.19015535035E+03  0.19697888209E+03  0.00000000000E+00 0. -1.
        -12    1    6    6    0    0  0.69650061831E+02  0.20602262567E+02  0.12410817771E+03  0.14379994475E+03  0.00000000000E+00 0.  1.
</event>
<event>
12    1  0.1032880E+000  0.2400558E+03  0.7818608E-02  0.1120445E+00
         21   -1    0    0  503  502  0.00000000000E+00  0.00000000000E+00  0.23879482637E+03  0.23879482637E+03  0.00000000000E+00 0.  1.
         21   -1    0    0  501  503 -0.00000000000E+00 -0.00000000000E+00 -0.30725478579E+03  0.30725478579E+03  0.00000000000E+00 0.  1.
          6    2    1    2  501    0 -0.16299460845E+03 -0.11206461225E+02  0.95891386972E+02  0.25849944305E+03  0.17588057540E+03 0.  0.
         24    2    3    3    0    0 -0.10005804649E+03  0.59673356071E+02  0.32796268740E+02  0.14453434630E+03  0.79006708108E+02 0.  0.
         -6    2    1    2    0  502  0.16299460845E+03  0.11206461225E+02 -0.16435134639E+03  0.28755016911E+03  0.17023779703E+03 0.  0.
        -24    2    5    5    0    0  0.18105223258E+03 -0.18553858060E+02 -0.15496184120E+03  0.25119075216E+03  0.77197572337E+02 0.  0.
          5    1    3    3  501    0 -0.62936561963E+02 -0.70879817296E+02  0.63095118231E+02  0.11396509675E+03  0.47000000000E+01 0. -1.
        -13    1    4    4    0    0  0.13118437810E+02  0.10215461030E+02  0.84336342493E+01  0.18643369901E+02  0.00000000000E+00 0.  1.
         14    1    4    4    0    0 -0.11317648430E+03  0.49457895041E+02  0.24362634491E+02  0.12589097640E+03  0.00000000000E+00 0. -1.
         -5    1    5    5    0  502 -0.18057624127E+02  0.29760319285E+02 -0.93895051878E+01  0.36359416947E+02  0.47000000000E+01 0.  1.
         13    1    6    6    0    0  0.11114641524E+03 -0.33270119804E+02 -0.13291530342E+03  0.17642818476E+03  0.00000000000E+00 0. -1.
        -14    1    6    6    0    0  0.69905817338E+02  0.14716261745E+02 -0.22046537775E+02  0.74762567407E+02  0.00000000000E+00 0.  1.
</event>
<event>
12    1  0.1032880E+000  0.3362976E+03  0.7818608E-02  0.1068430E+00
         21   -1    0    0  503  502  0.00000000000E+00  0.00000000000E+00  0.52331138344E+03  0.52331138344E+03  0.00000000000E+00 0.  1.
         21   -1    0    0  501  503 -0.00000000000E+00 -0.00000000000E+00 -0.21991295545E+03  0.21991295545E+03  0.00000000000E+00 0. -1.
          6    2    1    2  501    0 -0.28762799410E+03 -0.21351124258E+02  0.10105863185E+03  0.35074824410E+03  0.17212132399E+03 0.  0.
         24    2    3    3    0    0 -0.85118176503E+02 -0.33236475829E+02 -0.62138244869E+01  0.12122491698E+03  0.79417262513E+02 0.  0.
         -6    2    1    2    0  502  0.28762799410E+03  0.21351124258E+02  0.20233979614E+03  0.39247609478E+03  0.17294611408E+03 0.  0.
        -24    2    5    5    0    0  0.21584180351E+03 -0.41089677833E+02  0.17815817515E+03  0.29419612877E+03  0.80839229610E+02 0.  0.
          5    1    3    3  501    0 -0.20250981760E+03  0.11885351571E+02  0.10727245634E+03  0.22952332713E+03  0.47000000000E+01 0. -1.
        -11    1    4    4    0    0 -0.39425704792E+02  0.90405609723E+01 -0.34203046079E+02  0.52971372477E+02  0.00000000000E+00 0.  1.
         12    1    4    4    0    0 -0.45692471711E+02 -0.42277036802E+02  0.27989221592E+02  0.68253544502E+02  0.00000000000E+00 0. -1.
         -5    1    5    5    0  502  0.71786190592E+02  0.62440802091E+02  0.24181620989E+02  0.98279966011E+02  0.47000000000E+01 0.  1.
         11    1    6    6    0    0  0.83290222740E+02 -0.50896532758E+02  0.50471775319E+02  0.10988684341E+03  0.00000000000E+00 0. -1.
        -12    1    6    6    0    0  0.13255158077E+03  0.98068549249E+01  0.12768639983E+03  0.18430928536E+03  0.00000000000E+00 0.  1.
</event>
<event>
12    1  0.1032880E+000  0.2456175E+03  0.7818608E-02  0.1116377E+00
         21   -1    0    0  501  502  0.00000000000E+00  0.00000000000E+00  0.62454234596E+03  0.62454234596E+03  0.00000000000E+00 0.  1.
         21   -1    0    0  502  503 -0.00000000000E+00 -0.00000000000E+00 -0.10508615789E+03  0.10508615789E+03  0.00000000000E+00 0.  1.
         -6    2    1    2    0  503 -0.16755536831E+03  0.42005144166E+02  0.15291039235E+03  0.28932600896E+03  0.17461018809E+03 0.  0.
        -24    2    3    3    0    0 -0.11693699207E+03  0.87581747159E+02  0.60878746312E+02  0.17473385990E+03  0.74032948706E+02 0.  0.
          6    2    1    2  501    0  0.16755536831E+03 -0.42005144166E+02  0.36654579573E+03  0.44030249489E+03  0.17225339781E+03 0.  0.
         24    2    5    5    0    0  0.10193679666E+03  0.37589836348E+02  0.25596073979E+03  0.28900047090E+03  0.78748114619E+02 0.  0.
          5    1    5    5  501    0  0.65618571645E+02 -0.79594980514E+02  0.11058505593E+03  0.15130202399E+03  0.47000000000E+01 0. -1.
        -13    1    6    6    0    0 -0.83290068416E+00  0.26538226257E+02  0.86706188950E+02  0.90680396882E+02  0.00000000000E+00 0.  1.
         14    1    6    6    0    0  0.10276969735E+03  0.11051610090E+02  0.16925455084E+03  0.19832007402E+03  0.00000000000E+00 0. -1.
         -5    1    3    3    0  503 -0.50618376243E+02 -0.45576602993E+02  0.92031646035E+02  0.11459214906E+03  0.47000000000E+01 0.  1.
         13    1    4    4    0    0 -0.93814835616E+02  0.36487405510E+02  0.62754370537E+02  0.11861983461E+03  0.00000000000E+00 0. -1.
        -14    1    4    4    0    0 -0.23122156450E+02  0.51094341650E+02 -0.18756242242E+01  0.56114025285E+02  0.00000000000E+00 0.  1.
</event>
<event>
12    1  0.1032880E+000  0.1817725E+03  0.7818608E-02  0.1166500E+00
         21   -1    0    0  503  502  0.00000000000E+00  0.00000000000E+00  0.63901944585E+02  0.63901944585E+02  0.00000000000E+00 0.  1.
         21   -1    0    0  501  503 -0.00000000000E+00 -0.00000000000E+00 -0.64678000279E+03  0.64678000279E+03  0.00000000000E+00 0.  1.
          6    2    1    2  501    0  0.44157063169E+02  0.36914008305E+02 -0.45239078552E+03  0.48692276087E+03  0.17065714748E+03 0.  0.
         24    2    3    3    0    0  0.66920818436E+02 -0.16184827358E+02 -0.25000731760E+03  0.27640237470E+03  0.95677945787E+02 0.  0.
         -6    2    1    2    0  502 -0.44157063169E+02 -0.36914008305E+02 -0.13048727268E+03  0.22375918651E+03  0.17242028587E+03 0.  0.
        -24    2    5    5    0    0 -0.18899202546E+02 -0.17853404819E+02 -0.15878427637E+03  0.18104997736E+03  0.83010384637E+02 0.  0.
          5    1    3    3  501    0 -0.22763755267E+02  0.53098835663E+02 -0.20238346793E+03  0.21052038617E+03  0.47000000000E+01 0. -1.
        -11    1    4    4    0    0 -0.23151299122E+02 -0.15357650991E+02 -0.60973573148E+02  0.67004602211E+02  0.00000000000E+00 0.  1.
         12    1    4    4    0    0  0.90072117558E+02 -0.82717636644E+00 -0.18903374445E+03  0.20939777249E+03  0.00000000000E+00 0. -1.
         -5    1    5    5    0  502 -0.25257860623E+02 -0.19060603486E+02  0.28297003691E+02  0.42709209152E+02  0.47000000000E+01 0.  1.
         13    1    6    6    0    0  0.41675051120E+01  0.23037875844E+02 -0.11325871538E+03  0.11565313844E+03  0.00000000000E+00 0. -1.
        -14    1    6    6    0    0 -0.23066707658E+02 -0.40891280663E+02 -0.45525560997E+02  0.65396838918E+02  0.00000000000E+00 0.  1.
</event>
<event>
12    1  0.1032880E+000  0.1932124E+03  0.7818608E-02  0.1156052E+00
         21   -1    0    0  503  502  0.00000000000E+00  0.00000000000E+00  0.36799264192E+02  0.36799264192E+02  0.00000000000E+00 0. -1.
         21   -1    0    0  501  503 -0.00000000000E+00 -0.00000000000E+00 -0.18520255048E+04  0.18520255048E+04  0.00000000000E+00 0. -1.
          6    2    1    2  501    0  0.35045338096E+02  0.75480744934E+02 -0.15494196549E+04  0.15614199562E+04  0.17437171215E+03 0.  0.
         24    2    3    3    0    0  0.18579213476E+02  0.41583363142E+02 -0.14752433081E+04  0.14780869724E+04  0.79523058248E+02 0.  0.
         -6    2    1    2    0  502 -0.35045338096E+02 -0.75480744934E+02 -0.26580658576E+03  0.32740481286E+03  0.17209082449E+03 0.  0.
        -24    2    5    5    0    0 -0.70986147038E+02 -0.52141560876E+02 -0.25560033491E+03  0.28310225293E+03  0.84009398085E+02 0.  0.
          5    1    3    3  501    0  0.16466124620E+02  0.33897381792E+02 -0.74176346828E+02  0.83332983753E+02  0.47000000000E+01 0. -1.
        -13    1    4    4    0    0 -0.23030370971E+00  0.43525628085E+02 -0.35151294840E+03  0.35419752432E+03  0.00000000000E+00 0.  1.
         14    1    4    4    0    0  0.18809517186E+02 -0.19422649430E+01 -0.11237303597E+04  0.11238894481E+04  0.00000000000E+00 0. -1.
         -5    1    5    5    0  502  0.35940808942E+02 -0.23339184058E+02 -0.10206250850E+02  0.44302559929E+02  0.47000000000E+01 0.  1.
         11    1    6    6    0    0 -0.86936230233E+01  0.18655848739E+02 -0.91959899761E+02  0.94235040922E+02  0.00000000000E+00 0. -1.
        -12    1    6    6    0    0 -0.62292524015E+02 -0.70797409615E+02 -0.16364043515E+03  0.18886721201E+03  0.00000000000E+00 0.  1.
</event>
<event>
12    1  0.1032880E+000  0.3966350E+03  0.7818608E-02  0.1044962E+00
         21   -1    0    0  503  502  0.00000000000E+00  0.00000000000E+00  0.10490735954E+04  0.10490735954E+04  0.00000000000E+00 0.  1.
         21   -1    0    0  501  503 -0.00000000000E+00 -0.00000000000E+00 -0.16291031303E+03  0.16291031303E+03  0.00000000000E+00 0.  1.
          6    2    1    2  501    0  0.31226549947E+03  0.17350547699E+03  0.61417436297E+03  0.73105015303E+03  0.17207639412E+03 0.  0.
         24    2    3    3    0    0  0.19586042958E+03  0.45217964457E+02  0.40204789126E+03  0.45713856845E+03  0.83229752562E+02 0.  0.
         -6    2    1    2    0  502 -0.31226549947E+03 -0.17350547699E+03  0.27198891943E+03  0.48093375544E+03  0.17235258085E+03 0.  0.
        -24    2    5    5    0    0 -0.67789084499E+02 -0.22250562651E+02  0.94326910364E+02  0.14295055163E+03  0.80292257899E+02 0.  0.
          5    1    3    3  501    0  0.11640506989E+03  0.12828751254E+03  0.21212647171E+03  0.27391158458E+03  0.47000000000E+01 0. -1.
        -13    1    4    4    0    0  0.56201073961E+02 -0.17690847437E+02  0.70226630485E+02  0.91669550161E+02  0.00000000000E+00 0.  1.
         14    1    4    4    0    0  0.13965935562E+03  0.62908811894E+02  0.33182126078E+03  0.36546901829E+03  0.00000000000E+00 0. -1.
         -5    1    5    5    0  502 -0.24447641497E+03 -0.15125491434E+03  0.17766200907E+03  0.33798320381E+03  0.47000000000E+01 0.  1.
         13    1    6    6    0    0 -0.29576830277E+02 -0.51279299741E+02  0.56686465232E+02  0.81961642320E+02  0.00000000000E+00 0. -1.
        -14    1    6    6    0    0 -0.38212254222E+02  0.29028737091E+02  0.37640445131E+02  0.60988909315E+02  0.00000000000E+00 0.  1.
</event>
<event>
12    1  0.1032880E+000  0.1745629E+03  0.7818608E-02  0.1175170E+00
         21   -1    0    0  501  502  0.00000000000E+00  0.00000000000E+00  0.36581335162E+03  0.36581335162E+03  0.00000000000E+00 0.  1.
         21   -1    0    0  502  503 -0.00000000000E+00 -0.00000000000E+00 -0.21322997766E+03  0.21322997766E+03  0.00000000000E+00 0.  1.
         -6    2    1    2    0  503  0.17441217517E+02 -0.16048533879E+02  0.30607556093E+03  0.35235558055E+03  0.17294639237E+03 0.  0.
        -24    2    3    3    0    0  0.32476208067E+02 -0.39415690559E+00  0.31632774858E+03  0.32789524917E+03  0.79982438415E+02 0.  0.
          6    2    1    2  501    0 -0.17441217517E+02  0.16048533879E+02 -0.15349218698E+03  0.22668774873E+03  0.16512338555E+03 0.  0.
         24    2    5    5    0    0 -0.32181322188E+02  0.61678370425E+02 -0.69998234363E+02  0.13028918655E+03  0.85062685361E+02 0.  0.
          5    1    5    5  501    0  0.14740104671E+02 -0.45629836546E+02 -0.83493952613E+02  0.96398562188E+02  0.47000000000E+01 0. -1.
        -13    1    6    6    0    0  0.14966208169E+02 -0.67235421589E+01  0.62198669389E+01  0.17546513924E+02  0.00000000000E+00 0.  1.
         14    1    6    6    0    0 -0.47147530357E+02  0.68401912584E+02 -0.76218101302E+02  0.11274267262E+03  0.00000000000E+00 0. -1.
         -5    1    3    3    0  503 -0.15034990550E+02 -0.15654376973E+02 -0.10252187653E+02  0.24460331374E+02  0.47000000000E+01 0.  1.
         11    1    4    4    0    0  0.56328595702E+02  0.10317251910E+02  0.17386738791E+03  0.18305525111E+03  0.00000000000E+00 0. -1.
        -12    1    4    4    0    0 -0.23852387635E+02 -0.10711408816E+02  0.14246036067E+03  0.14483999806E+03  0.00000000000E+00 0.  1.
</event>
<event>
12    1  0.1032880E+000  0.2581129E+03  0.7818608E-02  0.1108419E+00
         21   -1    0    0  501  502  0.00000000000E+00  0.00000000000E+00  0.10664362060E+04  0.10664362060E+04  0.00000000000E+00 0.  1.
         21   -1    0    0  502  503 -0.00000000000E+00 -0.00000000000E+00 -0.94867319585E+02  0.94867319585E+02  0.00000000000E+00 0.  1.
         -6    2    1    2    0  503 -0.14828024161E+03  0.12105962966E+03  0.14589087220E+03  0.29649017267E+03  0.17314679296E+03 0.  0.
        -24    2    3    3    0    0 -0.48709210377E+02  0.75583116554E+02  0.84046673902E+01  0.12068616242E+03  0.80056958992E+02 0.  0.
          6    2    1    2  501    0  0.14828024161E+03 -0.12105962966E+03  0.82567801418E+03  0.86481335288E+03  0.17180072245E+03 0.  0.
         24    2    5    5    0    0  0.12207666883E+03 -0.12355073443E+03  0.81421330290E+03  0.83572104403E+03  0.72930540696E+02 0.  0.
          5    1    5    5  501    0  0.26203572783E+02  0.24911047684E+01  0.11464711281E+02  0.29092308851E+02  0.47000000000E+01 0. -1.
        -11    1    6    6    0    0  0.25897801086E+02  0.24105160230E+01  0.18675867464E+03  0.18856115518E+03  0.00000000000E+00 0.  1.
         12    1    6    6    0    0  0.96178867746E+02 -0.12596125045E+03  0.62745462826E+03  0.64715988885E+03  0.00000000000E+00 0. -1.
         -5    1    3    3    0  503 -0.99571031237E+02  0.45476513103E+02  0.13748620481E+03  0.17580401025E+03  0.47000000000E+01 0.  1.
         13    1    4    4    0    0 -0.11346902103E+02 -0.13500311317E+02  0.15966397370E+02  0.23789418613E+02  0.00000000000E+00 0. -1.
        -14    1    4    4    0    0 -0.37362308274E+02  0.89083427871E+02 -0.75617299795E+01  0.96896743810E+02  0.00000000000E+00 0.  1.
</event>
<event>
12    1  0.1032880E+000  0.1837386E+03  0.7818608E-02  0.1164321E+00
         21   -1    0    0  501  502  0.00000000000E+00  0.00000000000E+00  0.34178221238E+03  0.34178221238E+03  0.00000000000E+00 0. -1.
         21   -1    0    0  502  503 -0.00000000000E+00 -0.00000000000E+00 -0.10490609844E+03  0.10490609844E+03  0.00000000000E+00 0. -1.
         -6    2    1    2    0  503  0.11819647022E+02  0.64026573058E+02  0.63462453485E+02  0.19403799100E+03  0.17141806449E+03 0.  0.
        -24    2    3    3    0    0 -0.70777079380E+01 -0.27279580029E+02  0.48287718644E+02  0.99453181470E+02  0.82249389641E+02 0.  0.
          6    2    1    2  501    0 -0.11819647022E+02 -0.64026573058E+02  0.17341366046E+03  0.25265031983E+03  0.17181612369E+03 0.  0.
         24    2    5    5    0    0  0.26655444915E+02 -0.76261865892E+02  0.53618320998E+02  0.12614716395E+03  0.80695710498E+02 0.  0.
          5    1    5    5  501    0 -0.38475091937E+02  0.12235292834E+02  0.11979533946E+03  0.12650315588E+03  0.47000000000E+01 0. -1.
        -13    1    6    6    0    0  0.29609307395E+01  0.17359667281E+02  0.80706138648E+01  0.19371627890E+02  0.00000000000E+00 0.  1.
         14    1    6    6    0    0  0.23694514176E+02 -0.93621533173E+02  0.45547707133E+02  0.10677553606E+03  0.00000000000E+00 0. -1.
         -5    1    3    3    0  503  0.18897354960E+02  0.91306153087E+02  0.15174734841E+02  0.94584809528E+02  0.47000000000E+01 0.  1.
         13    1    4    4    0    0  0.20564797087E+02 -0.17988478017E+02  0.61606656217E+02  0.67393444123E+02  0.00000000000E+00 0. -1.
        -14    1    4    4    0    0 -0.27642505025E+02 -0.92911020118E+01 -0.13318937573E+02  0.32059737346E+02  0.00000000000E+00 0.  1.
</event>
<event>
12    1  0.1032880E+000  0.2782733E+03  0.7818608E-02  0.1096737E+00
         21   -1    0    0  503  502  0.00000000000E+00  0.00000000000E+00  0.50137817915E+03  0.50137817915E+03  0.00000000000E+00 0. -1.
         21   -1    0    0  501  503 -0.00000000000E+00 -0.00000000000E+00 -0.27196091044E+03  0.27196091044E+03  0.00000000000E+00 0. -1.
          6    2    1    2  501    0 -0.89549510402E+01  0.21779496976E+03  0.36923892781E+03  0.46191310843E+03  0.17178909724E+03 0.  0.
         24    2    3    3    0    0  0.35670161930E+02  0.20371436594E+03  0.28936741397E+03  0.36922431281E+03  0.99101915006E+02 0.  0.
         -6    2    1    2    0  502  0.89549510402E+01 -0.21779496976E+03 -0.13982165910E+03  0.31142598116E+03  0.17297747075E+03 0.  0.
        -24    2    5    5    0    0  0.11502610505E+02 -0.24113381834E+03 -0.12570414069E+03  0.28363053643E+03  0.79792993515E+02 0.  0.
          5    1    3    3  501    0 -0.44625112970E+02  0.14080603823E+02  0.79871513836E+02  0.92688795623E+02  0.47000000000E+01 0. -1.
        -13    1    4    4    0    0 -0.31263118253E+02  0.97574432040E+02  0.11006017906E+03  0.15037085943E+03  0.00000000000E+00 0.  1.
         14    1    4    4    0    0  0.66933280183E+02  0.10613993390E+03  0.17930723491E+03  0.21885345338E+03  0.00000000000E+00 0. -1.
         -5    1    5    5    0  502 -0.25476594650E+01  0.23338848577E+02 -0.14117518404E+02  0.27795444726E+02  0.47000000000E+01 0.  1.
         11    1    6    6    0    0 -0.22017376953E+02 -0.17565705618E+02 -0.15062085616E+02  0.31940340087E+02  0.00000000000E+00 0. -1.
        -12    1    6    6    0    0  0.33519987458E+02 -0.22356811272E+03 -0.11064205508E+03  0.25169019634E+03  0.00000000000E+00 0.  1.
</event>
<event>
12    1  0.1032880E+000  0.1820441E+03  0.7818608E-02  0.1165930E+00
         21   -1    0    0  503  502  0.00000000000E+00  0.00000000000E+00  0.81772894302E+03  0.81772894302E+03  0.00000000000E+00 0. -1.
         21   -1    0    0  501  503 -0.00000000000E+00 -0.00000000000E+00 -0.45757598865E+02  0.45757598865E+02  0.00000000000E+00 0. -1.
          6    2    1    2  501    0  0.23116365522E+02 -0.52816584049E+02  0.53349670034E+03  0.56370096513E+03  0.17267336478E+03 0.  0.
         24    2    3    3    0    0 -0.53335281309E+01 -0.98543846681E+02  0.40327864887E+03  0.42270731305E+03  0.79425862493E+02 0.  0.
         -6    2    1    2    0  502 -0.23116365522E+02  0.52816584049E+02  0.23847464382E+03  0.29978557676E+03  0.17227094469E+03 0.  0.
        -24    2    5    5    0    0  0.33010715542E+02  0.74053331615E+02  0.11247987876E+03  0.16015026784E+03  0.80142260381E+02 0.  0.
          5    1    3    3  501    0  0.28449893653E+02  0.45727262632E+02  0.13021805148E+03  0.14099365208E+03  0.47000000000E+01 0. -1.
        -13    1    4    4    0    0 -0.16797832100E+02  0.13483222230E+01  0.18571904647E+02  0.25077894216E+02  0.00000000000E+00 0.  1.
         14    1    4    4    0    0  0.11464303969E+02 -0.99892168904E+02  0.38470674422E+03  0.39762941883E+03  0.00000000000E+00 0. -1.
         -5    1    5    5    0  502 -0.56127081064E+02 -0.21236747567E+02  0.12599476505E+03  0.13963530892E+03  0.47000000000E+01 0.  1.
         11    1    6    6    0    0  0.46385460868E+02  0.14203677809E+02  0.28839835541E+02  0.56436615395E+02  0.00000000000E+00 0. -1.
        -12    1    6    6    0    0 -0.13374745326E+02  0.59849653806E+02  0.83640043224E+02  0.10371365245E+03  0.00000000000E+00 0.  1.
</event>
<event>
12    1  0.1032880E+000  0.1740767E+03  0.7818608E-02  0.1173748E+00
         21   -1    0    0  501  502  0.00000000000E+00  0.00000000000E+00  0.16040215404E+03  0.16040215404E+03  0.00000000000E+00 0.  1.
         21   -1    0    0  502  503 -0.00000000000E+00 -0.00000000000E+00 -0.57815467312E+03  0.57815467312E+03  0.00000000000E+00 0.  1.
         -6    2    1    2    0  503  0.17056152918E+02 -0.21852962348E+02 -0.51195083929E+03  0.54062748625E+03  0.17151079477E+03 0.  0.
        -24    2    3    3    0    0  0.56497125119E+02 -0.17347870479E+02 -0.47838217444E+03  0.48842756862E+03  0.78861341658E+02 0.  0.
          6    2    1    2  501    0 -0.17056152918E+02  0.21852962348E+02  0.94198320209E+02  0.19792934091E+03  0.17185527676E+03 0.  0.
         24    2    5    5    0    0 -0.29366711671E+02  0.76825942417E+02  0.80652845028E+02  0.13979889887E+03  0.79209983785E+02 0.  0.
          5    1    5    5  501    0  0.12310558753E+02 -0.54972980070E+02  0.13545475182E+02  0.58130442046E+02  0.47000000000E+01 0. -1.
        -11    1    6    6    0    0 -0.13418535494E+02  0.51583438568E+02 -0.52629091452E+00  0.53302769266E+02  0.00000000000E+00 0.  1.
         12    1    6    6    0    0 -0.15948176177E+02  0.25242503849E+02  0.81179135942E+02  0.86496129603E+02  0.00000000000E+00 0. -1.
         -5    1    3    3    0  503 -0.39440972201E+02 -0.45050918685E+01 -0.33568664853E+02  0.52199917633E+02  0.47000000000E+01 0.  1.
         11    1    4    4    0    0 -0.11433658026E+02 -0.25458436697E+02 -0.19017606016E+03  0.19221288821E+03  0.00000000000E+00 0. -1.
        -12    1    4    4    0    0  0.67930783145E+02  0.81105662177E+01 -0.28820611427E+03  0.29621468041E+03  0.00000000000E+00 0.  1.
</event>
<event>
12    1  0.1032880E+000  0.2939993E+03  0.7818608E-02  0.1088532E+00
         21   -1    0    0  503  502  0.00000000000E+00  0.00000000000E+00  0.11294697690E+03  0.11294697690E+03  0.00000000000E+00 0. -1.
         21   -1    0    0  501  503 -0.00000000000E+00 -0.00000000000E+00 -0.76546458535E+03  0.76546458535E+03  0.00000000000E+00 0. -1.
          6    2    1    2  501    0  0.18766883759E+03 -0.14314287752E+03 -0.36170915784E+03  0.46488389410E+03  0.17197105611E+03 0.  0.
         24    2    3    3    0    0 -0.59095774614E+01 -0.48232804500E+02 -0.74696705291E+02  0.10588701019E+03  0.57193833677E+02 0.  0.
         -6    2    1    2    0  502 -0.18766883759E+03  0.14314287752E+03 -0.29080845060E+03  0.41352766815E+03  0.17528862314E+03 0.  0.
        -24    2    5    5    0    0 -0.10440636529E+02  0.35314108704E+02 -0.90985100491E+02  0.12545069947E+03  0.78124876462E+02 0.  0.
          5    1    3    3  501    0  0.19357841505E+03 -0.94910073022E+02 -0.28701245255E+03  0.35899688390E+03  0.47000000000E+01 0. -1.
        -13    1    4    4    0    0  0.23467336493E+02 -0.17995562770E+02 -0.16012707304E+02  0.33629792694E+02  0.00000000000E+00 0.  1.
         14    1    4    4    0    0 -0.29376913954E+02 -0.30237241730E+02 -0.58683997988E+02  0.72257217499E+02  0.00000000000E+00 0. -1.
         -5    1    5    5    0  502 -0.17722820106E+03  0.10782876882E+03 -0.19982335011E+03  0.28807696868E+03  0.47000000000E+01 0.  1.
         11    1    6    6    0    0  0.63257248980E+01 -0.88843332269E+00 -0.84844179392E+02  0.85084304581E+02  0.00000000000E+00 0. -1.
        -12    1    6    6    0    0 -0.16766361427E+02  0.36202542026E+02 -0.61409210990E+01  0.40366394892E+02  0.00000000000E+00 0.  1.
</event>
<event>
12    1  0.1032880E+000  0.1723619E+03  0.7818608E-02  0.1175429E+00
         21   -1    0    0  501  502  0.00000000000E+00  0.00000000000E+00  0.84858788196E+02  0.84858788196E+02  0.00000000000E+00 0.  1.
         21   -1    0    0  502  503 -0.00000000000E+00 -0.00000000000E+00 -0.35027370556E+03  0.35027370556E+03  0.00000000000E+00 0.  1.
         -6    2    1    2    0  503 -0.58549723481E+01 -0.21706446071E+01 -0.13966832065E+03  0.22184646774E+03  0.17224872439E+03 0.  0.
        -24    2    3    3    0    0  0.34117771049E+02  0.55052936273E+02 -0.86022676653E+02  0.13368579882E+03  0.79228428072E+02 0.  0.
          6    2    1    2  501    0  0.58549723481E+01  0.21706446071E+01 -0.12574659671E+03  0.21328602602E+03  0.17216192933E+03 0.  0.
         24    2    5    5    0    0  0.19997506460E+02  0.36609871509E+02 -0.14502525562E+03  0.17109801456E+03  0.80635121768E+02 0.  0.
          5    1    5    5  501    0 -0.14142534112E+02 -0.34439226902E+02  0.19278658915E+02  0.42188011452E+02  0.47000000000E+01 0. -1.
        -11    1    6    6    0    0 -0.19064928855E+02  0.35957003714E+02 -0.32811397180E+02  0.52277771694E+02  0.00000000000E+00 0.  1.
         12    1    6    6    0    0  0.39062435315E+02  0.65286779510E+00 -0.11221385844E+03  0.11882024287E+03  0.00000000000E+00 0. -1.
         -5    1    3    3    0  503 -0.39972743397E+02 -0.57223580880E+02 -0.53645644001E+02  0.88160668916E+02  0.47000000000E+01 0.  1.
         13    1    4    4    0    0 -0.22663385884E+02  0.27332885353E+02 -0.14780701441E+02  0.38460171822E+02  0.00000000000E+00 0. -1.
        -14    1    4    4    0    0  0.56781156933E+02  0.27720050920E+02 -0.71241975212E+02  0.95225627001E+02  0.00000000000E+00 0.  1.
</event>
<event>
12    1  0.1032880E+000  0.1871588E+03  0.7818608E-02  0.1161120E+00
         21   -1    0    0  503  502  0.00000000000E+00  0.00000000000E+00  0.43311639635E+03  0.43311639635E+03  0.00000000000E+00 0.  1.
         21   -1    0    0  501  503 -0.00000000000E+00 -0.00000000000E+00 -0.81109461332E+02  0.81109461332E+02  0.00000000000E+00 0.  1.
          6    2    1    2  501    0 -0.71371931035E+02  0.20435257981E+02  0.15855715113E+03  0.24505822106E+03  0.17146897453E+03 0.  0.
         24    2    3    3    0    0  0.49575361001E+01 -0.11923122296E+02  0.12697665196E+02  0.77218023362E+02  0.75064335214E+02 0.  0.
         -6    2    1    2    0  502  0.71371931035E+02 -0.20435257981E+02  0.19344978389E+03  0.26916763662E+03  0.17180467225E+03 0.  0.
        -24    2    5    5    0    0  0.77849722725E+02 -0.69956779370E+02  0.16423980418E+03  0.21111890037E+03  0.81498138059E+02 0.  0.
          5    1    3    3  501    0 -0.76329467135E+02  0.32358380277E+02  0.14585948593E+03  0.16784019770E+03  0.47000000000E+01 0. -1.
        -13    1    4    4    0    0 -0.13112037594E+02 -0.39897070407E+02  0.12839463792E+02  0.43915300152E+02  0.00000000000E+00 0.  1.
         14    1    4    4    0    0  0.18069573694E+02  0.27973948111E+02 -0.14179859581E+00  0.33302723211E+02  0.00000000000E+00 0. -1.
         -5    1    5    5    0  502 -0.64777916892E+01  0.49521521389E+02  0.29209979705E+02  0.58048736250E+02  0.47000000000E+01 0.  1.
         13    1    6    6    0    0  0.72958234621E+02 -0.28092450825E+02  0.59593014331E+02  0.98302681293E+02  0.00000000000E+00 0. -1.
        -14    1    6    6    0    0  0.48914881037E+01 -0.41864328544E+02  0.10464678985E+03  0.11281621908E+03  0.00000000000E+00 0.  1.
</event>
<event>
12    1  0.1032880E+000  0.2285540E+03  0.7818608E-02  0.1128515E+00
         21   -1    0    0  501  502  0.00000000000E+00  0.00000000000E+00  0.14741121472E+04  0.14741121472E+04  0.00000000000E+00 0.  1.
         21   -1    0    0  502  503 -0.00000000000E+00 -0.00000000000E+00 -0.35006362618E+02  0.35006362618E+02  0.00000000000E+00 0.  1.
         -6    2    1    2    0  503 -0.13785501092E+03 -0.59644075217E+02  0.64175631728E+03  0.67965899802E+03  0.16590287243E+03 0.  0.
        -24    2    3    3    0    0 -0.17627298435E+01 -0.18054015602E+02  0.23189353248E+03  0.24576911062E+03  0.79364920670E+02 0.  0.
          6    2    1    2  501    0  0.13785501092E+03  0.59644075217E+02  0.79734946727E+03  0.82945951176E+03  0.17226575096E+03 0.  0.
         24    2    5    5    0    0  0.17004232237E+03  0.47486760077E+02  0.65763368891E+03  0.68549280710E+03  0.79050211948E+02 0.  0.
          5    1    5    5  501    0 -0.32187311455E+02  0.12157315140E+02  0.13971577836E+03  0.14396670467E+03  0.47000000000E+01 0. -1.
        -13    1    6    6    0    0  0.71608130381E+02 -0.19681793715E+02  0.25530628201E+03  0.26588793688E+03  0.00000000000E+00 0.  1.
         14    1    6    6    0    0  0.98434191990E+02  0.67168553792E+02  0.40232740690E+03  0.41960487022E+03  0.00000000000E+00 0. -1.
         -5    1    3    3    0  503 -0.13609228107E+03 -0.41590059615E+02  0.40986278480E+03  0.43388988740E+03  0.47000000000E+01 0.  1.
         13    1    4    4    0    0 -0.35697448103E+02  0.10237618666E+02  0.11180281816E+03  0.11780911164E+03  0.00000000000E+00 0. -1.
        -14    1    4    4    0    0  0.33934718259E+02 -0.28291634268E+02  0.12009071432E+03  0.12795999898E+03  0.00000000000E+00 0.  1.
</event>
<event>
12    1  0.1032880E+000  0.2172149E+03  0.7818608E-02  0.1137641E+00
         21   -1    0    0  501  502  0.00000000000E+00  0.00000000000E+00  0.55646157129E+03  0.55646157129E+03  0.00000000000E+00 0. -1.
         21   -1    0    0  502  503 -0.00000000000E+00 -0.00000000000E+00 -0.83125769083E+02  0.83125769083E+02  0.00000000000E+00 0. -1.
         -6    2    1    2    0  503  0.33740218763E+02  0.11383230159E+03  0.19619967585E+03  0.29270570126E+03  0.18189590292E+03 0.  0.
        -24    2    3    3    0    0  0.55498202017E+02  0.31942754848E+02  0.30824474161E+02  0.10682844328E+03  0.79760755212E+02 0.  0.
          6    2    1    2  501    0 -0.33740218763E+02 -0.11383230159E+03  0.27713612636E+03  0.34688163912E+03  0.17154079333E+03 0.  0.
         24    2    5    5    0    0 -0.26362656890E+02 -0.14855239322E+03  0.21416867716E+03  0.27444613096E+03  0.81790300853E+02 0.  0.
          5    1    5    5  501    0 -0.73775618735E+01  0.34720091639E+02  0.62967449206E+02  0.72435508158E+02  0.47000000000E+01 0. -1.
        -11    1    6    6    0    0  0.27578206267E+02 -0.27172261154E+02  0.44980787586E+02  0.59347792621E+02  0.00000000000E+00 0.  1.
         12    1    6    6    0    0 -0.53940863157E+02 -0.12138013207E+03  0.16918788957E+03  0.21509833834E+03  0.00000000000E+00 0. -1.
         -5    1    3    3    0  503 -0.21757983253E+02  0.81889546737E+02  0.16537520169E+03  0.18587725798E+03  0.47000000000E+01 0.  1.
         11    1    4    4    0    0  0.11621542091E+02  0.15214738326E+01  0.49035599565E+02  0.50416913312E+02  0.00000000000E+00 0. -1.
        -12    1    4    4    0    0  0.43876659926E+02  0.30421281016E+02 -0.18211125404E+02  0.56411529968E+02  0.00000000000E+00 0.  1.
</event>
<event>
12    1  0.1032880E+000  0.2138219E+03  0.7818608E-02  0.1138633E+00
         21   -1    0    0  503  502  0.00000000000E+00  0.00000000000E+00  0.21921704856E+03  0.21921704856E+03  0.00000000000E+00 0. -1.
         21   -1    0    0  501  503 -0.00000000000E+00 -0.00000000000E+00 -0.63833650780E+03  0.63833650780E+03  0.00000000000E+00 0. -1.
          6    2    1    2  501    0  0.41667101196E+02 -0.12028942564E+03 -0.56145789608E+03  0.60068775317E+03  0.17142086950E+03 0.  0.
         24    2    3    3    0    0 -0.25091098337E+01 -0.13978369428E+03 -0.37521731423E+03  0.40823202201E+03  0.79495748810E+02 0.  0.
         -6    2    1    2    0  502 -0.41667101196E+02  0.12028942564E+03  0.14233843684E+03  0.25686580319E+03  0.17179673165E+03 0.  0.
        -24    2    5    5    0    0  0.22067870078E+02  0.11161366744E+03  0.57063674653E+02  0.14994859032E+03  0.79269887876E+02 0.  0.
          5    1    3    3  501    0  0.44176211030E+02  0.19494268635E+02 -0.18624058185E+03  0.19245573117E+03  0.47000000000E+01 0. -1.
        -13    1    4    4    0    0  0.23827872998E+02 -0.13063664099E+03 -0.31666228513E+03  0.34337836612E+03  0.00000000000E+00 0.  1.
         14    1    4    4    0    0 -0.26336982832E+02 -0.91470532895E+01 -0.58555029099E+02  0.64853655883E+02  0.00000000000E+00 0. -1.
         -5    1    5    5    0  502 -0.63734971274E+02  0.86757581995E+01  0.85274762183E+02  0.10691721288E+03  0.47000000000E+01 0.  1.
         13    1    6    6    0    0  0.35022546161E+02  0.46154835373E+02  0.59668203470E+02  0.83169357778E+02  0.00000000000E+00 0. -1.
        -14    1    6    6    0    0 -0.12954676083E+02  0.65458832070E+02 -0.26045288170E+01  0.66779232541E+02  0.00000000000E+00 0.  1.
</event>
<event>
12    1  0.1032880E+000  0.2267895E+03  0.7818608E-02  0.1129103E+00
         21   -1    0    0  503  502  0.00000000000E+00  0.00000000000E+00  0.43558277454E+03  0.43558277454E+03  0.00000000000E+00 0.  1.
         21   -1    0    0  501  503 -0.00000000000E+00 -0.00000000000E+00 -0.11769032704E+03  0.11769032704E+03  0.00000000000E+00 0.  1.
          6    2    1    2  501    0  0.49493526476E+02 -0.14062792706E+03  0.14971417167E+03  0.27174953366E+03  0.17090246578E+03 0.  0.
         24    2    3    3    0    0 -0.32746524722E+02 -0.72776257420E+02  0.11039341420E+03  0.15801525095E+03  0.80083675670E+02 0.  0.
         -6    2    1    2    0  502 -0.49493526476E+02  0.14062792706E+03  0.16817827582E+03  0.28152356792E+03  0.16954575726E+03 0.  0.
        -24    2    5    5    0    0 -0.76135285670E+02  0.10144090961E+03  0.17884730749E+03  0.23272475741E+03  0.78023159711E+02 0.  0.
          5    1    3    3  501    0  0.82240051197E+02 -0.67851669644E+02  0.39320757477E+02  0.11373428271E+03  0.47000000000E+01 0. -1.
        -13    1    4    4    0    0  0.48008120928E+01  0.14313817756E+02  0.30409924526E+02  0.33951387088E+02  0.00000000000E+00 0.  1.
         14    1    4    4    0    0 -0.37547336814E+02 -0.87090075176E+02  0.79983489671E+02  0.12406386386E+03  0.00000000000E+00 0. -1.
         -5    1    5    5    0  502  0.26641759194E+02  0.39187017456E+02 -0.10669031669E+02  0.48798810506E+02  0.47000000000E+01 0.  1.
         13    1    6    6    0    0 -0.44485403463E+02  0.52740723507E+02  0.34522518236E+02  0.77151405060E+02  0.00000000000E+00 0. -1.
        -14    1    6    6    0    0 -0.31649882207E+02  0.48700186101E+02  0.14432478925E+03  0.15557335235E+03  0.00000000000E+00 0.  1.
</event>
<event>
12    1  0.1032880E+000  0.2087401E+03  0.7818608E-02  0.1143835E+00
         21   -1    0    0  503  502  0.00000000000E+00  0.00000000000E+00  0.15377252298E+04  0.15377252298E+04  0.00000000000E+00 0. -1.
         21   -1    0    0  501  503 -0.00000000000E+00 -0.00000000000E+00 -0.31512290520E+02  0.31512290520E+02  0.00000000000E+00 0. -1.
          6    2    1    2  501    0  0.11761269531E+03  0.20445845715E+02  0.10432464999E+04  0.10639246639E+04  0.17123566248E+03 0.  0.
         24    2    3    3    0    0  0.79715380478E+02 -0.16571211819E+02  0.34034391520E+03  0.35901289449E+03  0.80169388468E+02 0.  0.
         -6    2    1    2    0  502 -0.11761269531E+03 -0.20445845715E+02  0.46296643935E+03  0.50531285644E+03  0.16356154868E+03 0.  0.
        -24    2    5    5    0    0 -0.14142590292E+03  0.10215982640E+02  0.37829155147E+03  0.41204365888E+03  0.81054466831E+02 0.  0.
          5    1    3    3  501    0  0.37897314831E+02  0.37017057534E+02  0.70290258471E+03  0.70491176938E+03  0.47000000000E+01 0. -1.
        -11    1    4    4    0    0  0.28153769880E+02 -0.46539592422E+02  0.17382756051E+03  0.18213892833E+03  0.00000000000E+00 0.  1.
         12    1    4    4    0    0  0.51561610598E+02  0.29968380603E+02  0.16651635469E+03  0.17687396615E+03  0.00000000000E+00 0. -1.
         -5    1    5    5    0  502  0.23813207608E+02 -0.30661828355E+02  0.84674887885E+02  0.93269197557E+02  0.47000000000E+01 0.  1.
         13    1    6    6    0    0 -0.14926538353E+02 -0.19624455136E+02  0.12438350283E+03  0.12680369302E+03  0.00000000000E+00 0. -1.
        -14    1    6    6    0    0 -0.12649936456E+03  0.29840437776E+02  0.25390804864E+03  0.28523996586E+03  0.00000000000E+00 0.  1.
</event>
<event>
12    1  0.1032880E+000  0.1858869E+03  0.7818608E-02  0.1165048E+00
         21   -1    0    0  501  502  0.00000000000E+00  0.00000000000E+00  0.32497016696E+03  0.32497016696E+03  0.00000000000E+00 0. -1.
         21   -1    0    0  502  503 -0.00000000000E+00 -0.00000000000E+00 -0.10365744421E+03  0.10365744421E+03  0.00000000000E+00 0. -1.
         -6    2    1    2    0  503 -0.98403956199E+00  0.70676753349E+02  0.14896405756E+03  0.22915765216E+03  0.15914385725E+03 0.  0.
        -24    2    3    3    0    0 -0.78611414962E+01  0.10887811674E+03  0.12356935565E+03  0.18253555888E+03  0.78317320895E+02 0.  0.
          6    2    1    2  501    0  0.98403956199E+00 -0.70676753349E+02  0.72348665186E+02  0.19946995901E+03  0.17192371389E+03 0.  0.
         24    2    5    5    0    0 -0.36682807383E+02  0.89768401875E+01  0.49049957023E+01  0.88410403480E+02  0.79788021930E+02 0.  0.
          5    1    5    5  501    0  0.37666846945E+02 -0.79653593536E+02  0.67443669483E+02  0.11105955553E+03  0.47000000000E+01 0. -1.
        -13    1    6    6    0    0  0.19653952073E+02 -0.15717702289E+02  0.90888525138E+01  0.26756891399E+02  0.00000000000E+00 0.  1.
         14    1    6    6    0    0 -0.56336759455E+02  0.24694542477E+02 -0.41838568115E+01  0.61653512081E+02  0.00000000000E+00 0. -1.
         -5    1    3    3    0  503  0.68771019342E+01 -0.38201363389E+02  0.25394701915E+02  0.46622093273E+02  0.47000000000E+01 0.  1.
         13    1    4    4    0    0 -0.14918619081E+02  0.58386821508E+02  0.14267675179E+02  0.61928609512E+02  0.00000000000E+00 0. -1.
        -14    1    4    4    0    0  0.70574775846E+01  0.50491295230E+02  0.10930168047E+03  0.12060694937E+03  0.00000000000E+00 0.  1.
</event>
<event>
12    1  0.1032880E+000  0.1776555E+03  0.7818608E-02  0.1171094E+00
         21   -1    0    0  501  502  0.00000000000E+00  0.00000000000E+00  0.45345908384E+03  0.45345908384E+03  0.00000000000E+00 0.  1.
         21   -1    0    0  502  503 -0.00000000000E+00 -0.00000000000E+00 -0.91298815255E+02  0.91298815255E+02  0.00000000000E+00 0.  1.
         -6    2    1    2    0  503  0.15676503267E+02 -0.43647593495E+02  0.32011216442E+03  0.36610555587E+03  0.17149523334E+03 0.  0.
        -24    2    3    3    0    0  0.44213022939E+02 -0.84925382634E+02  0.24824305431E+03  0.27832487565E+03  0.81688496024E+02 0.  0.
          6    2    1    2  501    0 -0.15676503267E+02  0.43647593495E+02  0.42048104163E+02  0.17865234322E+03  0.16732528650E+03 0.  0.
         24    2    5    5    0    0 -0.52390579093E+02  0.39015370548E+02 -0.20769391982E+02  0.10559408787E+03  0.80322922213E+02 0.  0.
          5    1    5    5  501    0  0.36714075826E+02  0.46322229465E+01  0.62817496145E+02  0.73058255352E+02  0.47000000000E+01 0. -1.
        -13    1    6    6    0    0  0.26583183627E+01 -0.56795168812E+01 -0.33041646035E+02  0.33631442747E+02  0.00000000000E+00 0.  1.
         14    1    6    6    0    0 -0.55048897456E+02  0.44694887429E+02  0.12272254053E+02  0.71962645122E+02  0.00000000000E+00 0. -1.
         -5    1    3    3    0  503 -0.28536519672E+02  0.41277789140E+02  0.71869110111E+02  0.87780680217E+02  0.47000000000E+01 0.  1.
         11    1    4    4    0    0  0.13919490999E+02 -0.60204216347E+02  0.60233002587E+02  0.86292030317E+02  0.00000000000E+00 0. -1.
        -12    1    4    4    0    0  0.30293531940E+02 -0.24721166287E+02  0.18801005172E+03  0.19203284534E+03  0.00000000000E+00 0.  1.
</event>
<event>
12    1  0.1032880E+000  0.1929372E+03  0.7818608E-02  0.1156166E+00
         21   -1    0    0  503  502  0.00000000000E+00  0.00000000000E+00  0.20786943006E+03  0.20786943006E+03  0.00000000000E+00 0.  1.
         21   -1    0    0  501  503 -0.00000000000E+00 -0.00000000000E+00 -0.18601851700E+03  0.18601851700E+03  0.00000000000E+00 0.  1.
          6    2    1    2  501    0 -0.17405148063E+02 -0.85590596890E+02  0.52585451895E+02  0.19997498012E+03  0.17203509372E+03 0.  0.
         24    2    3    3    0    0 -0.24970253033E+02 -0.30791955942E+01 -0.24066525770E+02  0.87001630006E+02  0.79731367598E+02 0.  0.
         -6    2    1    2    0  502  0.17405148063E+02  0.85590596890E+02 -0.30734538837E+02  0.19391296694E+03  0.17037880565E+03 0.  0.
        -24    2    5    5    0    0  0.61697062837E+02  0.59809443549E+01 -0.12522191192E+02  0.10089011976E+03  0.78611142556E+02 0.  0.
          5    1    3    3  501    0  0.75651049700E+01 -0.82511401295E+02  0.76651977665E+02  0.11297335012E+03  0.47000000000E+01 0. -1.
        -13    1    4    4    0    0 -0.53546042460E+02 -0.55342271488E+01 -0.89151825223E+01  0.54564519724E+02  0.00000000000E+00 0.  1.
         14    1    4    4    0    0  0.28575789427E+02  0.24550315545E+01 -0.15151343247E+02  0.32437110283E+02  0.00000000000E+00 0. -1.
         -5    1    5    5    0  502 -0.44291914774E+02  0.79609652535E+02 -0.18212347645E+02  0.93022847182E+02  0.47000000000E+01 0.  1.
         11    1    6    6    0    0  0.57312085586E+02 -0.10759516610E+02  0.21958351920E+02  0.62310605605E+02  0.00000000000E+00 0. -1.
        -12    1    6    6    0    0  0.43849772516E+01  0.16740460965E+02 -0.34480543112E+02  0.38579514150E+02  0.00000000000E+00 0.  1.
</event>
<event>
12    1  0.1032880E+000  0.2120019E+03  0.7818608E-02  0.1140401E+00
         21   -1    0    0  503  502  0.00000000000E+00  0.00000000000E+00  0.15776228908E+03  0.15776228908E+03  0.00000000000E+00 0.  1.
         21   -1    0    0  501  503 -0.00000000000E+00 -0.00000000000E+00 -0.29066503268E+03  0.29066503268E+03  0.00000000000E+00 0.  1.
          6    2    1    2  501    0 -0.13724419851E+02 -0.12186253022E+03 -0.27618132773E+02  0.21172151903E+03  0.17036550235E+03 0.  0.
         24    2    3    3    0    0  0.87022019183E+00 -0.11850585687E+03  0.40542310374E+02  0.14177720701E+03  0.66428172492E+02 0.  0.
         -6    2    1    2    0  502  0.13724419851E+02  0.12186253022E+03 -0.10528461082E+03  0.23670580273E+03  0.17293337387E+03 0.  0.
        -24    2    5    5    0    0 -0.46047665894E+02  0.73975705815E+02 -0.10969032736E+03  0.15984651231E+03  0.76981471767E+02 0.  0.
          5    1    3    3  501    0 -0.14594640043E+02 -0.33566733481E+01 -0.68160443147E+02  0.69944312020E+02  0.47000000000E+01 0. -1.
        -11    1    4    4    0    0  0.12552346887E+02 -0.17246871791E+02  0.33356187401E+02  0.39593575702E+02  0.00000000000E+00 0.  1.
         12    1    4    4    0    0 -0.11682126696E+02 -0.10125898508E+03  0.71861229735E+01  0.10218363131E+03  0.00000000000E+00 0. -1.
         -5    1    5    5    0  502  0.59772085745E+02  0.47886824404E+02  0.44057165374E+01  0.76859290421E+02  0.47000000000E+01 0.  1.
         13    1    6    6    0    0  0.18591523708E+02  0.29724080571E+02 -0.51334196939E+02  0.62164020904E+02  0.00000000000E+00 0. -1.
        -14    1    6    6    0    0 -0.64639189602E+02  0.44251625244E+02 -0.58356130422E+02  0.97682491404E+02  0.00000000000E+00 0.  1.
</event>
<event>
12    1  0.1032880E+000  0.1720652E+03  0.7818608E-02  0.1175863E+00
         21   -1    0    0  501  502  0.00000000000E+00  0.00000000000E+00  0.27186917833E+03  0.27186917833E+03  0.00000000000E+00 0. -1.
         21   -1    0    0  502  503 -0.00000000000E+00 -0.00000000000E+00 -0.13745814114E+03  0.13745814114E+03  0.00000000000E+00 0. -1.
         -6    2    1    2    0  503 -0.10751148125E+02  0.35500731771E+01 -0.26781217549E+02  0.17355335656E+03  0.17110039087E+03 0.  0.
        -24    2    3    3    0    0  0.14890028537E+02  0.36695502091E+02  0.39311935948E+02  0.95153839105E+02  0.77074976257E+02 0.  0.
          6    2    1    2  501    0  0.10751148125E+02 -0.35500731771E+01  0.16119225474E+03  0.23577396290E+03  0.17169224906E+03 0.  0.
         24    2    5    5    0    0 -0.26964917341E+02  0.56140295391E+02  0.10370409561E+03  0.14460148825E+03  0.79222543657E+02 0.  0.
          5    1    5    5  501    0  0.37716065466E+02 -0.59690368568E+02  0.57488159134E+02  0.91172474655E+02  0.47000000000E+01 0. -1.
        -13    1    6    6    0    0 -0.66747673274E+01  0.59770755024E+02  0.28368864596E+02  0.66497279294E+02  0.00000000000E+00 0.  1.
         14    1    6    6    0    0 -0.20290150014E+02 -0.36304596325E+01  0.75335231009E+02  0.78104208952E+02  0.00000000000E+00 0. -1.
         -5    1    3    3    0  503 -0.25641176662E+02 -0.33145428914E+02 -0.66093153496E+02  0.78399517457E+02  0.47000000000E+01 0.  1.
         11    1    4    4    0    0  0.13821682886E+01  0.58335266205E+02  0.37952034918E+02  0.69607978184E+02  0.00000000000E+00 0. -1.
        -12    1    4    4    0    0  0.13507860248E+02 -0.21639764114E+02  0.13599010297E+01  0.25545860922E+02  0.00000000000E+00 0.  1.
</event>
<event>
12    1  0.1032880E+000  0.2668171E+03  0.7818608E-02  0.1103129E+00
         21   -1    0    0  501  502  0.00000000000E+00  0.00000000000E+00  0.41004070660E+03  0.41004070660E+03  0.00000000000E+00 0.  1.
         21   -1    0    0  502  503 -0.00000000000E+00 -0.00000000000E+00 -0.19051708578E+03  0.19051708578E+03  0.00000000000E+00 0.  1.
         -6    2    1    2    0  503  0.19217826905E+03  0.70177754556E+02  0.19933366374E+03  0.33297786660E+03  0.17112260463E+03 0.  0.
        -24    2    3    3    0    0  0.11505992281E+03  0.18000374830E+02  0.37422855867E+02  0.14614393503E+03  0.79967370044E+02 0.  0.
          6    2    1    2  501    0 -0.19217826905E+03 -0.70177754556E+02  0.20189957081E+02  0.26757992577E+03  0.17127164967E+03 0.  0.
         24    2    5    5    0    0 -0.13370228616E+03 -0.74136222048E+02 -0.48042014415E+02  0.17750883177E+03  0.76347033108E+02 0.  0.
          5    1    5    5  501    0 -0.58475982894E+02  0.39584674912E+01  0.68231971496E+02  0.90071094001E+02  0.47000000000E+01 0. -1.
        -13    1    6    6    0    0 -0.72476949422E+02  0.39221028624E+00 -0.74389830087E+01  0.72858770883E+02  0.00000000000E+00 0.  1.
         14    1    6    6    0    0 -0.61225336739E+02 -0.74528432334E+02 -0.40603031406E+02  0.10465006089E+03  0.00000000000E+00 0. -1.
         -5    1    3    3    0  503  0.77118346241E+02  0.52177379726E+02  0.16191080787E+03  0.18683393158E+03  0.47000000000E+01 0.  1.
         11    1    4    4    0    0  0.96026497022E+02  0.36758833382E+02  0.52511825618E+02  0.11545471749E+03  0.00000000000E+00 0. -1.
        -12    1    4    4    0    0  0.19033425792E+02 -0.18758458552E+02 -0.15088969751E+02  0.30689217532E+02  0.00000000000E+00 0.  1.
</event>
<event>
12    1  0.1032880E+000  0.4367808E+03  0.7818608E-02  0.1031749E+00
         21   -1    0    0  501  502  0.00000000000E+00  0.00000000000E+00  0.32046118499E+03  0.32046118499E+03  0.00000000000E+00 0. -1.
         21   -1    0    0  502  503 -0.00000000000E+00 -0.00000000000E+00 -0.59565519103E+03  0.59565519103E+03  0.00000000000E+00 0. -1.
         -6    2    1    2    0  503 -0.34435937045E+03 -0.20612704927E+03 -0.15105600990E+03  0.46203739945E+03  0.17201425494E+03 0.  0.
        -24    2    3    3    0    0 -0.19187531269E+03 -0.40894832549E+02 -0.78262341092E+02  0.22566040917E+03  0.79429863929E+02 0.  0.
          6    2    1    2  501    0  0.34435937045E+03  0.20612704927E+03 -0.12413799614E+03  0.45407897657E+03  0.17235352745E+03 0.  0.
         24    2    5    5    0    0  0.11606979904E+03  0.88648950465E+02 -0.10454805551E+03  0.19654628372E+03  0.79807963679E+02 0.  0.
          5    1    5    5  501    0  0.22828957141E+03  0.11747809881E+03 -0.19589940633E+02  0.25753269285E+03  0.47000000000E+01 0. -1.
        -11    1    6    6    0    0  0.70623842022E+02  0.20952166611E+02 -0.85417418469E+02  0.11279563700E+03  0.00000000000E+00 0.  1.
         12    1    6    6    0    0  0.45445957017E+02  0.67696783854E+02 -0.19130637043E+02  0.83750646726E+02  0.00000000000E+00 0. -1.
         -5    1    3    3    0  503 -0.15248405775E+03 -0.16523221672E+03 -0.72793668807E+02  0.23637699027E+03  0.47000000000E+01 0.  1.
         11    1    4    4    0    0 -0.71116365348E+02  0.16566891840E+01 -0.66000830369E+02  0.97038093802E+02  0.00000000000E+00 0. -1.
        -12    1    4    4    0    0 -0.12075894735E+03 -0.42551521733E+02 -0.12261510723E+02  0.12862231537E+03  0.00000000000E+00 0.  1.
</event>
<event>
12    1  0.1032880E+000  0.1816483E+03  0.7818608E-02  0.1166307E+00
         21   -1    0    0  501  502  0.00000000000E+00  0.00000000000E+00  0.16519817972E+02  0.16519817972E+02  0.00000000000E+00 0. -1.
         21   -1    0    0  502  503 -0.00000000000E+00 -0.00000000000E+00 -0.20459781294E+04  0.20459781294E+04  0.00000000000E+00 0. -1.
         -6    2    1    2    0  503  0.54737839611E+02  0.19613006615E+02 -0.84812230026E+03  0.86727792860E+03  0.17169352964E+03 0.  0.
        -24    2    3    3    0    0 -0.14533671520E+02 -0.31719127738E+02 -0.27612637431E+03  0.28880151631E+03  0.77092221135E+02 0.  0.
          6    2    1    2  501    0 -0.54737839611E+02 -0.19613006615E+02 -0.11813360112E+04  0.11952200188E+04  0.17209073446E+03 0.  0.
         24    2    5    5    0    0 -0.10088349287E+03 -0.22694230194E+02 -0.98626272696E+03  0.99468425771E+03  0.77395728148E+02 0.  0.
          5    1    5    5  501    0  0.46145653256E+02  0.30812235793E+01 -0.19507328423E+03  0.20053576108E+03  0.47000000000E+01 0. -1.
        -11    1    6    6    0    0 -0.57591260750E+02 -0.29782848899E+02 -0.29547366361E+03  0.30250364839E+03  0.00000000000E+00 0.  1.
         12    1    6    6    0    0 -0.43292232116E+02  0.70886187050E+01 -0.69078906335E+03  0.69218060933E+03  0.00000000000E+00 0. -1.
         -5    1    3    3    0  503  0.69271511131E+02  0.51332134352E+02 -0.57199592595E+03  0.57847641229E+03  0.47000000000E+01 0.  1.
         13    1    4    4    0    0 -0.10397014161E+02 -0.16037609745E+02 -0.27117053213E+03  0.27184326426E+03  0.00000000000E+00 0. -1.
        -14    1    4    4    0    0 -0.41366573595E+01 -0.15681517992E+02 -0.49558421795E+01  0.16958252043E+02  0.00000000000E+00 0.  1.
</event>
<event>
12    1  0.1032880E+000  0.2284218E+03  0.7818608E-02  0.1129698E+00
         21   -1    0    0  503  502  0.00000000000E+00  0.00000000000E+00  0.18142919945E+03  0.18142919945E+03  0.00000000000E+00 0.  1.
         21   -1    0    0  501  503 -0.00000000000E+00 -0.00000000000E+00 -0.48179946689E+03  0.48179946689E+03  0.00000000000E+00 0.  1.
          6    2    1    2  501    0  0.10792635635E+03 -0.69058991263E+02 -0.36572341878E+03  0.42564175743E+03  0.17606829343E+03 0.  0.
         24    2    3    3    0    0  0.13807483839E+03 -0.32509510936E+02 -0.32477965982E+03  0.36284624103E+03  0.77807698170E+02 0.  0.
         -6    2    1    2    0  502 -0.10792635635E+03  0.69058991263E+02  0.65353151339E+02  0.23758690891E+03  0.18910119574E+03 0.  0.
        -24    2    5    5    0    0 -0.97210183886E+02  0.95295209068E+01  0.10560143923E+03  0.16478162840E+03  0.80378414209E+02 0.  0.
          5    1    3    3  501    0 -0.30148482048E+02 -0.36549480327E+02 -0.40943758961E+02  0.62795516399E+02  0.47000000000E+01 0. -1.
        -11    1    4    4    0    0  0.28084214568E+02  0.22595925663E+02 -0.10449233084E+03  0.11053481881E+03  0.00000000000E+00 0.  1.
         12    1    4    4    0    0  0.10999062383E+03 -0.55105436599E+02 -0.22028732898E+03  0.25231142222E+03  0.00000000000E+00 0. -1.
         -5    1    5    5    0  502 -0.10716172461E+02  0.59529470356E+02 -0.40248287889E+02  0.72805280517E+02  0.47000000000E+01 0.  1.
         11    1    6    6    0    0 -0.75474404654E+02  0.42676366152E+02  0.68649486027E+02  0.11059118372E+03  0.00000000000E+00 0. -1.
        -12    1    6    6    0    0 -0.21735779232E+02 -0.33146845246E+02  0.36951953201E+02  0.54190444674E+02  0.00000000000E+00 0.  1.
</event>
<event>
12    1  0.1032880E+000  0.1935676E+03  0.7818608E-02  0.1155559E+00
         21   -1    0    0  503  502  0.00000000000E+00  0.00000000000E+00  0.12218404128E+04  0.12218404128E+04  0.00000000000E+00 0. -1.
         21   -1    0    0  501  503 -0.00000000000E+00 -0.00000000000E+00 -0.42690470432E+02  0.42690470432E+02  0.00000000000E+00 0. -1.
          6    2    1    2  501    0 -0.70472544487E+01  0.88466758509E+02  0.92652256154E+03  0.94627155142E+03  0.17061582822E+03 0.  0.
         24    2    3    3    0    0 -0.22186140470E+02 -0.17001802624E+02  0.45421398775E+03  0.46207088834E+03  0.80111628757E+02 0.  0.
         -6    2    1    2    0  502  0.70472544487E+01 -0.88466758509E+02  0.25262738079E+03  0.31825933177E+03  0.17202435169E+03 0.  0.
        -24    2    5    5    0    0  0.50587091113E+02 -0.38057291338E+02  0.66502392911E+02  0.12051850930E+03  0.78068762061E+02 0.  0.
          5    1    3    3  501    0  0.15138886022E+02  0.10546856113E+03  0.47230857378E+03  0.48420066308E+03  0.47000000000E+01 0. -1.
        -13    1    4    4    0    0 -0.29819178764E+01 -0.29534201231E+02  0.57641768098E+02  0.64836211379E+02  0.00000000000E+00 0.  1.
         14    1    4    4    0    0 -0.19204222594E+02  0.12532398607E+02  0.39657221966E+03  0.39723467696E+03  0.00000000000E+00 0. -1.
         -5    1    5    5    0  502 -0.43539836665E+02 -0.50409467171E+02  0.18612498788E+03  0.19774082247E+03  0.47000000000E+01 0.  1.
         13    1    6    6    0    0 -0.11275823054E+02 -0.14600442836E+02 -0.86652983190E+01  0.20381474714E+02  0.00000000000E+00 0. -1.
        -14    1    6    6    0    0  0.61862914167E+02 -0.23456848501E+02  0.75167691230E+02  0.10013703459E+03  0.00000000000E+00 0.  1.
</event>
<event>
12    1  0.1032880E+000  0.4004789E+03  0.7818608E-02  0.1043624E+00
         21   -1    0    0  503  502  0.00000000000E+00  0.00000000000E+00  0.31092277299E+03  0.31092277299E+03  0.00000000000E+00 0.  1.
         21   -1    0    0  501  503 -0.00000000000E+00 -0.00000000000E+00 -0.59312913898E+03  0.59312913898E+03  0.00000000000E+00 0. -1.
          6    2    1    2  501    0  0.35950618772E+03 -0.24726732356E+02 -0.30446781604E+03  0.50307452098E+03  0.17472038334E+03 0.  0.
         24    2    3    3    0    0  0.10066371566E+03 -0.50668429276E+02 -0.81064758065E+02  0.16014098035E+03  0.79832106386E+02 0.  0.
         -6    2    1    2    0  502 -0.35950618772E+03  0.24726732356E+02  0.22261450051E+02  0.40097739099E+03  0.17444536573E+03 0.  0.
        -24    2    5    5    0    0 -0.18124077885E+03 -0.51482802746E+02 -0.86005037392E+01  0.20460784286E+03  0.79320248359E+02 0.  0.
          5    1    3    3  501    0  0.25884247206E+03  0.25941696920E+02 -0.22340305797E+03  0.34293354063E+03  0.47000000000E+01 0. -1.
        -13    1    4    4    0    0  0.11151931378E+03 -0.36550058794E+02 -0.57731067562E+02  0.13078738588E+03  0.00000000000E+00 0.  1.
         14    1    4    4    0    0 -0.10855598117E+02 -0.14118370482E+02 -0.23333690503E+02  0.29353594465E+02  0.00000000000E+00 0. -1.
         -5    1    5    5    0  502 -0.17826540887E+03  0.76209535102E+02  0.30861953791E+02  0.19636954813E+03  0.47000000000E+01 0.  1.
         13    1    6    6    0    0 -0.11558356316E+03 -0.47807347490E+02  0.29630590238E+02  0.12854211149E+03  0.00000000000E+00 0. -1.
        -14    1    6    6    0    0 -0.65657215686E+02 -0.36754552555E+01 -0.38231093978E+02  0.76065731375E+02  0.00000000000E+00 0.  1.
</event>
<event>
12    1  0.1032880E+000  0.2402092E+03  0.7818608E-02  0.1119817E+00
         21   -1    0    0  501  502  0.00000000000E+00  0.00000000000E+00  0.34530728293E+03  0.34530728293E+03  0.00000000000E+00 0. -1.
         21   -1    0    0  502  503 -0.00000000000E+00 -0.00000000000E+00 -0.16859939930E+03  0.16859939930E+03  0.00000000000E+00 0. -1.
         -6    2    1    2    0  503 -0.15483270728E+03  0.61398777226E+02  0.59291027795E+02  0.24741845015E+03  0.17308231109E+03 0.  0.
        -24    2    3    3    0    0 -0.25596621352E+02 -0.21462858346E+02  0.13813001466E+02  0.87236186985E+02  0.79394659753E+02 0.  0.
          6    2    1    2  501    0  0.15483270728E+03 -0.61398777226E+02  0.11741685583E+03  0.26648823207E+03  0.17171570316E+03 0.  0.
         24    2    5    5    0    0  0.12799953124E+03 -0.99931668218E+02  0.54168679093E+02  0.18757546450E+03  0.76681749965E+02 0.  0.
          5    1    5    5  501    0  0.26833176033E+02  0.38532890992E+02  0.63248176739E+02  0.78912767566E+02  0.47000000000E+01 0. -1.
        -11    1    6    6    0    0  0.13499239366E+03 -0.76606804886E+02  0.47744060685E+02  0.16239163843E+03  0.00000000000E+00 0.  1.
         12    1    6    6    0    0 -0.69928624137E+01 -0.23324863331E+02  0.64246184075E+01  0.25183826076E+02  0.00000000000E+00 0. -1.
         -5    1    3    3    0  503 -0.12923608593E+03  0.82861635572E+02  0.45478026329E+02  0.16018226317E+03  0.47000000000E+01 0.  1.
         13    1    4    4    0    0 -0.18735235414E+00 -0.19105756641E+01 -0.31593272791E+02  0.31651544763E+02  0.00000000000E+00 0. -1.
        -14    1    4    4    0    0 -0.25409268997E+02 -0.19552282682E+02  0.45406274257E+02  0.55584642222E+02  0.00000000000E+00 0.  1.
</event>
<event>
12    1  0.1032880E+000  0.3053770E+03  0.7818608E-02  0.1083226E+00
         21   -1    0    0  501  502  0.00000000000E+00  0.00000000000E+00  0.43520068729E+03  0.43520068729E+03  0.00000000000E+00 0.  1.
         21   -1    0    0  502  503 -0.00000000000E+00 -0.00000000000E+00 -0.21598483966E+03  0.21598483966E+03  0.00000000000E+00 0.  1.
         -6    2    1    2    0  503  0.34538947519E+02 -0.24943583826E+03  0.16174657648E+03  0.34556778593E+03  0.17275405456E+03 0.  0.
        -24    2    3    3    0    0  0.46314992996E+02 -0.15162248503E+03  0.28920021237E+02  0.18012561751E+03  0.80463742831E+02 0.  0.
          6    2    1    2  501    0 -0.34538947519E+02  0.24943583826E+03  0.57469271153E+02  0.30561774101E+03  0.16336557223E+03 0.  0.
         24    2    5    5    0    0 -0.77400631530E+02  0.21948359890E+03  0.60044600897E+02  0.25305365706E+03  0.79163699411E+02 0.  0.
          5    1    5    5  501    0  0.42861684011E+02  0.29952239357E+02 -0.25753297440E+01  0.52564083955E+02  0.47000000000E+01 0. -1.
        -13    1    6    6    0    0 -0.23498253421E+02  0.72270657260E+01  0.16946135958E+02  0.29859168052E+02  0.00000000000E+00 0.  1.
         14    1    6    6    0    0 -0.53902378109E+02  0.21225653318E+03  0.43098464939E+02  0.22319448900E+03  0.00000000000E+00 0. -1.
         -5    1    3    3    0  503 -0.11776045477E+02 -0.97813353228E+02  0.13282655524E+03  0.16544216843E+03  0.47000000000E+01 0.  1.
         11    1    4    4    0    0  0.40119990532E+02 -0.91762886274E+02  0.55316858957E+02  0.11441151962E+03  0.00000000000E+00 0. -1.
        -12    1    4    4    0    0  0.61950024635E+01 -0.59859598758E+02 -0.26396837720E+02  0.65714097883E+02  0.00000000000E+00 0.  1.
</event>
<event>
12    1  0.1032880E+000  0.3119064E+03  0.7818608E-02  0.1079530E+00
         21   -1    0    0  501  502  0.00000000000E+00  0.00000000000E+00  0.17644259530E+03  0.17644259530E+03  0.00000000000E+00 0.  1.
         21   -1    0    0  502  503 -0.00000000000E+00 -0.00000000000E+00 -0.56147770971E+03  0.56147770971E+03  0.00000000000E+00 0. -1.
         -6    2    1    2    0  503 -0.50794867289E+02 -0.25450404389E+03 -0.13994849406E+03  0.34186428084E+03  0.17301207654E+03 0.  0.
        -24    2    3    3    0    0 -0.23891267139E+02 -0.62388561388E+02 -0.10273491139E+03  0.14428112606E+03  0.76154159984E+02 0.  0.
          6    2    1    2  501    0  0.50794867289E+02  0.25450404389E+03 -0.24508662035E+03  0.39605602417E+03  0.17158232982E+03 0.  0.
         24    2    5    5    0    0 -0.13976050177E+02  0.21608875778E+03 -0.15010352170E+03  0.27475109852E+03  0.77893630649E+02 0.  0.
          5    1    5    5  501    0  0.64770917465E+02  0.38415286110E+02 -0.94983098648E+02  0.12130492564E+03  0.47000000000E+01 0. -1.
        -13    1    6    6    0    0  0.65429008067E+01  0.18517388886E+03 -0.14876910378E+03  0.23762244192E+03  0.00000000000E+00 0.  1.
         14    1    6    6    0    0 -0.20518950983E+02  0.30914868923E+02 -0.13344179232E+01  0.37128656604E+02  0.00000000000E+00 0. -1.
         -5    1    3    3    0  503 -0.26903600149E+02 -0.19211548250E+03 -0.37213582678E+02  0.19758315478E+03  0.47000000000E+01 0.  1.
         13    1    4    4    0    0 -0.15827609116E+02 -0.38213537615E+02 -0.11021587745E+03  0.11772139699E+03  0.00000000000E+00 0. -1.
        -14    1    4    4    0    0 -0.80636580231E+01 -0.24175023772E+02  0.74809660638E+01  0.26559729072E+02  0.00000000000E+00 0.  1.
</event>
<event>
12    1  0.1032880E+000  0.2062253E+03  0.7818608E-02  0.1144594E+00
         21   -1    0    0  503  502  0.00000000000E+00  0.00000000000E+00  0.35936279923E+02  0.35936279923E+02  0.00000000000E+00 0. -1.
         21   -1    0    0  501  503 -0.00000000000E+00 -0.00000000000E+00 -0.21436251736E+04  0.21436251736E+04  0.00000000000E+00 0. -1.
          6    2    1    2  501    0 -0.54936415025E+02 -0.98594007575E+02 -0.32443419902E+03  0.38442184981E+03  0.17257989770E+03 0.  0.
         24    2    3    3    0    0  0.65378465879E+01 -0.97078901810E+02 -0.13222049768E+03  0.18255660424E+03  0.79859859307E+02 0.  0.
         -6    2    1    2    0  502  0.54936415025E+02  0.98594007575E+02 -0.17832546947E+04  0.17951396038E+04  0.17259809615E+03 0.  0.
        -24    2    5    5    0    0  0.22730395555E+02 -0.83556052892E+01 -0.10141745574E+04  0.10179769470E+04  0.84501744621E+02 0.  0.
          5    1    3    3  501    0 -0.61474261613E+02 -0.15151057649E+01 -0.19221370135E+03  0.20186524558E+03  0.47000000000E+01 0. -1.
        -13    1    4    4    0    0 -0.33878215509E+02 -0.22988604636E+02 -0.51290450502E+02  0.65627126570E+02  0.00000000000E+00 0.  1.
         14    1    4    4    0    0  0.40416062097E+02 -0.74090297174E+02 -0.80930047177E+02  0.11692947766E+03  0.00000000000E+00 0. -1.
         -5    1    5    5    0  502  0.32206019470E+02  0.10694961286E+03 -0.76908013733E+03  0.77716265674E+03  0.47000000000E+01 0.  1.
         11    1    6    6    0    0  0.40952632703E+02 -0.19574032686E+02 -0.93060301766E+03  0.93170930948E+03  0.00000000000E+00 0. -1.
        -12    1    6    6    0    0 -0.18222237148E+02  0.11218427397E+02 -0.83571539700E+02  0.86267637546E+02  0.00000000000E+00 0.  1.
</event>
<event>
12    1  0.1032880E+000  0.2058102E+03  0.7818608E-02  0.1145485E+00
         21   -1    0    0  503  502  0.00000000000E+00  0.00000000000E+00  0.19288146749E+02  0.19288146749E+02  0.00000000000E+00 0.  1.
         21   -1    0    0  501  503 -0.00000000000E+00 -0.00000000000E+00 -0.23999414880E+04  0.23999414880E+04  0.00000000000E+00 0.  1.
          6    2    1    2  501    0 -0.10877244773E+03  0.19024488399E+02 -0.15599527148E+04  0.15731165396E+04  0.17044001372E+03 0.  0.
         24    2    3    3    0    0  0.14899617272E+01  0.20148010466E+02 -0.41520296069E+03  0.42305864944E+03  0.78593638330E+02 0.  0.
         -6    2    1    2    0  502  0.10877244773E+03 -0.19024488399E+02 -0.82070062642E+03  0.84611309510E+03  0.17367923002E+03 0.  0.
        -24    2    5    5    0    0  0.55693354000E+02 -0.64741238622E+01 -0.75433288139E+03  0.76008013965E+03  0.74565801766E+02 0.  0.
          5    1    3    3  501    0 -0.11026240946E+03 -0.11235220674E+01 -0.11447497541E+04  0.11500578902E+04  0.47000000000E+01 0. -1.
        -13    1    4    4    0    0  0.23234897309E+02  0.43452483347E+02 -0.25278000757E+03  0.25753778556E+03  0.00000000000E+00 0.  1.
         14    1    4    4    0    0 -0.21744935582E+02 -0.23304472880E+02 -0.16242295311E+03  0.16552086388E+03  0.00000000000E+00 0. -1.
         -5    1    5    5    0  502  0.53079093734E+02 -0.12550364537E+02 -0.66367745035E+02  0.86032955445E+02  0.47000000000E+01 0.  1.
         11    1    6    6    0    0  0.29788377106E+02  0.33208780609E+02 -0.42910304163E+03  0.43141579811E+03  0.00000000000E+00 0. -1.
        -12    1    6    6    0    0  0.25904976894E+02 -0.39682904472E+02 -0.32522983976E+03  0.32866434154E+03  0.00000000000E+00 0.  1.
</event>
<event>
12    1  0.1032880E+000  0.2349689E+03  0.7818608E-02  0.1123608E+00
         21   -1    0    0  501  502  0.00000000000E+00  0.00000000000E+00  0.49682054927E+02  0.49682054927E+02  0.00000000000E+00 0.  1.
         21   -1    0    0  502  503 -0.00000000000E+00 -0.00000000000E+00 -0.14917276954E+04  0.14917276954E+04  0.00000000000E+00 0.  1.
         -6    2    1    2    0  503 -0.13993752829E+03  0.71091200968E+02 -0.32875916920E+03  0.40409525900E+03  0.17485398575E+03 0.  0.
        -24    2    3    3    0    0 -0.35804091347E+02  0.77445365795E+02 -0.23980258854E+03  0.26691103489E+03  0.80352358018E+02 0.  0.
          6    2    1    2  501    0  0.13993752829E+03 -0.71091200968E+02 -0.11132864712E+04  0.11373144913E+04  0.17158384072E+03 0.  0.
         24    2    5    5    0    0  0.13025774485E+03 -0.83485548314E+02 -0.62219090661E+03  0.64594471033E+03  0.78651939965E+02 0.  0.
          5    1    5    5  501    0  0.96797834343E+01  0.12394347346E+02 -0.49109556463E+03  0.49136978097E+03  0.47000000000E+01 0. -1.
        -13    1    6    6    0    0  0.13492315343E+03 -0.90177274929E+02 -0.61041651736E+03  0.63162055295E+03  0.00000000000E+00 0.  1.
         14    1    6    6    0    0 -0.46654085809E+01  0.66917266143E+01 -0.11774389255E+02  0.14324157379E+02  0.00000000000E+00 0. -1.
         -5    1    3    3    0  503 -0.10413343694E+03 -0.63541648263E+01 -0.88956580668E+02  0.13718422411E+03  0.47000000000E+01 0.  1.
         11    1    4    4    0    0 -0.36435790307E+02  0.60624534674E+01 -0.13603287752E+03  0.14095837656E+03  0.00000000000E+00 0. -1.
        -12    1    4    4    0    0  0.63169895981E+00  0.71382912327E+02 -0.10376971102E+03  0.12595265833E+03  0.00000000000E+00 0.  1.
</event>
<event>
12    1  0.1032880E+000  0.1738426E+03  0.7818608E-02  0.1174597E+00
         21   -1    0    0  503  502  0.00000000000E+00  0.00000000000E+00  0.43632864946E+02  0.43632864946E+02  0.00000000000E+00 0.  1.
         21   -1    0    0  501  503 -0.00000000000E+00 -0.00000000000E+00 -0.76494820236E+03  0.76494820236E+03  0.00000000000E+00 0.  1.
          6    2    1    2  501    0 -0.12980616862E+02  0.17074850546E+02 -0.49141895471E+03  0.52035615086E+03  0.16975832159E+03 0.  0.
         24    2    3    3    0    0  0.57912774235E+02  0.21166328508E+01 -0.31346485165E+03  0.32815996470E+03  0.77912641178E+02 0.  0.
         -6    2    1    2    0  502  0.12980616862E+02 -0.17074850546E+02 -0.22989638270E+03  0.28822491645E+03  0.17251437258E+03 0.  0.
        -24    2    5    5    0    0  0.64655059274E+02  0.15776080759E+02 -0.18550664371E+03  0.21244912471E+03  0.79326882679E+02 0.  0.
          5    1    3    3  501    0 -0.70893391097E+02  0.14958217696E+02 -0.17795410306E+03  0.19219618616E+03  0.47000000000E+01 0. -1.
        -11    1    4    4    0    0  0.54652059598E+02  0.32494843458E+02 -0.24626379997E+03  0.25433957939E+03  0.00000000000E+00 0.  1.
         12    1    4    4    0    0  0.32607146375E+01 -0.30378210607E+02 -0.67201051683E+02  0.73820385308E+02  0.00000000000E+00 0. -1.
         -5    1    5    5    0  502 -0.51674442411E+02 -0.32850931305E+02 -0.44389738997E+02  0.75775791744E+02  0.47000000000E+01 0.  1.
         13    1    6    6    0    0 -0.23546676680E+01 -0.69487354083E+01  0.52303887778E+01  0.90103468507E+01  0.00000000000E+00 0. -1.
        -14    1    6    6    0    0  0.67009726942E+02  0.22724816167E+02 -0.19073703249E+03  0.20343877786E+03  0.00000000000E+00 0.  1.
</event>
<event>
12    1  0.1032880E+000  0.1856715E+03  0.7818608E-02  0.1162727E+00
         21   -1    0    0  501  502  0.00000000000E+00  0.00000000000E+00  0.15972591787E+03  0.15972591787E+03  0.00000000000E+00 0. -1.
         21   -1    0    0  502  503 -0.00000000000E+00 -0.00000000000E+00 -0.23117799005E+03  0.23117799005E+03  0.00000000000E+00 0. -1.
         -6    2    1    2    0  503 -0.52880208171E+02 -0.43822444456E+02  0.16925628049E+02  0.18644136406E+03  0.17250270228E+03 0.  0.
        -24    2    3    3    0    0 -0.96778334917E+02 -0.59463365037E+02  0.13893621848E+02  0.13950558890E+03  0.79792472800E+02 0.  0.
          6    2    1    2  501    0  0.52880208171E+02  0.43822444456E+02 -0.88377700230E+02  0.20446254385E+03  0.17110695745E+03 0.  0.
         24    2    5    5    0    0  0.91371656945E+02  0.55026505082E+02 -0.93504828659E+02  0.16377470723E+03  0.81867611366E+02 0.  0.
          5    1    5    5  501    0 -0.38491448774E+02 -0.11204060626E+02  0.51271284297E+01  0.40687836625E+02  0.47000000000E+01 0. -1.
        -11    1    6    6    0    0  0.36372129118E+02  0.35288587281E+02  0.32085962671E+01  0.50779043501E+02  0.00000000000E+00 0.  1.
         12    1    6    6    0    0  0.54999527828E+02  0.19737917801E+02 -0.96713424926E+02  0.11299566373E+03  0.00000000000E+00 0. -1.
         -5    1    3    3    0  503  0.43898126745E+02  0.15640920581E+02  0.30320062014E+01  0.46935775161E+02  0.47000000000E+01 0.  1.
         11    1    4    4    0    0 -0.16677329673E+02 -0.22756363678E+02  0.38771090001E+02  0.47949794919E+02  0.00000000000E+00 0. -1.
        -12    1    4    4    0    0 -0.80101005244E+02 -0.36707001358E+02 -0.24877468153E+02  0.91555793981E+02  0.00000000000E+00 0.  1.
</event>
<event>
12    1  0.1032880E+000  0.2297307E+03  0.7818608E-02  0.1126953E+00
         21   -1    0    0  501  502  0.00000000000E+00  0.00000000000E+00  0.31678560698E+03  0.31678560698E+03  0.00000000000E+00 0. -1.
         21   -1    0    0  502  503 -0.00000000000E+00 -0.00000000000E+00 -0.16658506681E+03  0.16658506681E+03  0.00000000000E+00 0. -1.
         -6    2    1    2    0  503  0.12521391016E+03 -0.86307710686E+02  0.61836600762E+02  0.23723172667E+03  0.17125297873E+03 0.  0.
        -24    2    3    3    0    0  0.30597811527E+02  0.63461511409E+01 -0.14066088854E+01  0.90402786069E+02  0.84818544411E+02 0.  0.
          6    2    1    2  501    0 -0.12521391016E+03  0.86307710686E+02  0.88363939406E+02  0.24613894712E+03  0.17218783721E+03 0.  0.
         24    2    5    5    0    0 -0.15823025957E+03  0.75509610188E+02  0.59940779570E+02  0.20100975127E+03  0.77932706716E+02 0.  0.
          5    1    5    5  501    0  0.33016349414E+02  0.10798100498E+02  0.28423159836E+02  0.45129195849E+02  0.47000000000E+01 0. -1.
        -13    1    6    6    0    0 -0.49049776563E+02  0.56635468369E+02 -0.23532027619E+00  0.74923375751E+02  0.00000000000E+00 0.  1.
         14    1    6    6    0    0 -0.10918048301E+03  0.18874141820E+02  0.60176099847E+02  0.12608637552E+03  0.00000000000E+00 0. -1.
         -5    1    3    3    0  503  0.94616098630E+02 -0.92653861827E+02  0.63243209647E+02  0.14682894060E+03  0.47000000000E+01 0.  1.
         13    1    4    4    0    0  0.75241844858E+01  0.31210677530E+02  0.30172266355E+02  0.44057750749E+02  0.00000000000E+00 0. -1.
        -14    1    4    4    0    0  0.23073627042E+02 -0.24864526389E+02 -0.31578875240E+02  0.46345035320E+02  0.00000000000E+00 0.  1.
</event>
<event>
12    1  0.1032880E+000  0.2400931E+03  0.7818608E-02  0.1120961E+00
         21   -1    0    0  501  502  0.00000000000E+00  0.00000000000E+00  0.28790657458E+03  0.28790657458E+03  0.00000000000E+00 0.  1.
         21   -1    0    0  502  503 -0.00000000000E+00 -0.00000000000E+00 -0.25249024324E+03  0.25249024324E+03  0.00000000000E+00 0.  1.
         -6    2    1    2    0  503  0.11955043007E+02  0.15704444231E+03  0.14730974601E+03  0.27551037280E+03  0.17146406136E+03 0.  0.
        -24    2    3    3    0    0  0.43063736513E+02  0.14524675088E+03  0.16466588098E+03  0.23769157118E+03  0.80195552299E+02 0.  0.
          6    2    1    2  501    0 -0.11955043007E+02 -0.15704444231E+03 -0.11189341467E+03  0.26488644501E+03  0.18121482443E+03 0.  0.
         24    2    5    5    0    0  0.83617028089E+01 -0.18137789291E+03 -0.11891141510E+03  0.23208051097E+03  0.82180172926E+02 0.  0.
          5    1    5    5  501    0 -0.20316745815E+02  0.24333450596E+02  0.70180004313E+01  0.32805934044E+02  0.47000000000E+01 0. -1.
        -13    1    6    6    0    0  0.26426343989E+02 -0.17915109689E+02 -0.57221149906E+01  0.32435249526E+02  0.00000000000E+00 0.  1.
         14    1    6    6    0    0 -0.18064641180E+02 -0.16346278322E+03 -0.11318930011E+03  0.19964526145E+03  0.00000000000E+00 0. -1.
         -5    1    3    3    0  503 -0.31108693507E+02  0.11797691437E+02 -0.17356134972E+02  0.37818801622E+02  0.47000000000E+01 0.  1.
         13    1    4    4    0    0 -0.10452947716E+01  0.54062566735E+02  0.11004145532E+03  0.12260903577E+03  0.00000000000E+00 0. -1.
        -14    1    4    4    0    0  0.44109031285E+02  0.91184184141E+02  0.54624425664E+02  0.11508253542E+03  0.00000000000E+00 0.  1.
</event>
<event>
12    1  0.1032880E+000  0.3060429E+03  0.7818608E-02  0.1082412E+00
         21   -1    0    0  503  502  0.00000000000E+00  0.00000000000E+00  0.74870500881E+03  0.74870500881E+03  0.00000000000E+00 0.  1.
         21   -1    0    0  501  503 -0.00000000000E+00 -0.00000000000E+00 -0.12529573369E+03  0.12529573369E+03  0.00000000000E+00 0.  1.
          6    2    1    2  501    0  0.21906922228E+03  0.12408432999E+03  0.27818072445E+03  0.41264948154E+03  0.17177553395E+03 0.  0.
         24    2    3    3    0    0  0.15209940856E+03  0.17402719194E+02  0.11900094955E+03  0.20960708999E+03  0.79604154800E+02 0.  0.
         -6    2    1    2    0  502 -0.21906922228E+03 -0.12408432999E+03  0.34522855067E+03  0.46135126095E+03  0.17399422026E+03 0.  0.
        -24    2    5    5    0    0 -0.41820180629E+02 -0.82773923701E+02  0.18425621574E+03  0.21833283563E+03  0.71543162650E+02 0.  0.
          5    1    3    3  501    0  0.66969813728E+02  0.10668161079E+03  0.15917977489E+03  0.20304239155E+03  0.47000000000E+01 0. -1.
        -11    1    4    4    0    0  0.61091815841E+02 -0.20242351778E+01  0.95901302568E+02  0.11372496351E+03  0.00000000000E+00 0.  1.
         12    1    4    4    0    0  0.91007592715E+02  0.19426954371E+02  0.23099646986E+02  0.95882126483E+02  0.00000000000E+00 0. -1.
         -5    1    5    5    0  502 -0.17724904165E+03 -0.41310406286E+02  0.16097233493E+03  0.24301842533E+03  0.47000000000E+01 0.  1.
         11    1    6    6    0    0 -0.10308824700E+02  0.76279246310E+01  0.60629977028E+02  0.61971374160E+02  0.00000000000E+00 0. -1.
        -12    1    6    6    0    0 -0.31511355929E+02 -0.90401848332E+02  0.12362623871E+03  0.15636146147E+03  0.00000000000E+00 0.  1.
</event>
<event>
12    1  0.1032880E+000  0.2305107E+03  0.7818608E-02  0.1126639E+00
         21   -1    0    0  501  502  0.00000000000E+00  0.00000000000E+00  0.12796073996E+03  0.12796073996E+03  0.00000000000E+00 0. -1.
         21   -1    0    0  502  503 -0.00000000000E+00 -0.00000000000E+00 -0.45626693428E+03  0.45626693428E+03  0.00000000000E+00 0. -1.
         -6    2    1    2    0  503  0.12579342560E+03  0.86113990888E+02 -0.73403108489E+02  0.24191564445E+03  0.17290331791E+03 0.  0.
        -24    2    3    3    0    0  0.42719061081E+02  0.10873759511E+03 -0.15993809424E+02  0.13832464520E+03  0.72312673570E+02 0.  0.
          6    2    1    2  501    0 -0.12579342560E+03 -0.86113990888E+02 -0.25490308583E+03  0.34231202978E+03  0.17018324600E+03 0.  0.
         24    2    5    5    0    0 -0.20396365481E+02 -0.10301468900E+02 -0.16544045792E+03  0.18457259095E+03  0.78577122793E+02 0.  0.
          5    1    5    5  501    0 -0.10539706012E+03 -0.75812521988E+02 -0.89462627905E+02  0.15773943883E+03  0.47000000000E+01 0. -1.
        -13    1    6    6    0    0 -0.47940552124E+02  0.62826020617E+01 -0.11507325554E+03  0.12481835509E+03  0.00000000000E+00 0.  1.
         14    1    6    6    0    0  0.27544186643E+02 -0.16584070962E+02 -0.50367202376E+02  0.59754235856E+02  0.00000000000E+00 0. -1.
         -5    1    3    3    0  503  0.83074364518E+02 -0.22623604222E+02 -0.57409299066E+02  0.10359099926E+03  0.47000000000E+01 0.  1.
         13    1    4    4    0    0 -0.10397164818E+02 -0.50553396763E+01 -0.37302974323E+01  0.12147946922E+02  0.00000000000E+00 0. -1.
        -14    1    4    4    0    0  0.53116225899E+02  0.11379293479E+03 -0.12263511991E+02  0.12617669827E+03  0.00000000000E+00 0.  1.
</event>
<event>
12    1  0.1032880E+000  0.5480249E+03  0.7818608E-02  0.1001988E+00
         21   -1    0    0  501  502  0.00000000000E+00  0.00000000000E+00  0.57481782242E+03  0.57481782242E+03  0.00000000000E+00 0. -1.
         21   -1    0    0  502  503 -0.00000000000E+00 -0.00000000000E+00 -0.52734532791E+03  0.52734532791E+03  0.00000000000E+00 0. -1.
         -6    2    1    2    0  503 -0.40240562573E+03 -0.32903611272E+03  0.79794656987E+02  0.55380363472E+03  0.17359789012E+03 0.  0.
        -24    2    3    3    0    0 -0.28525254076E+03 -0.17769343403E+03 -0.33439831271E+01  0.34508474437E+03  0.78283651330E+02 0.  0.
          6    2    1    2  501    0  0.40240562573E+03  0.32903611272E+03 -0.32322162474E+02  0.54835951561E+03  0.17163445189E+03 0.  0.
         24    2    5    5    0    0  0.20773436772E+03  0.97311476615E+02  0.87780726042E+01  0.24290162163E+03  0.79379167392E+02 0.  0.
          5    1    5    5  501    0  0.19467125801E+03  0.23172463610E+03 -0.41100235079E+02  0.30545789398E+03  0.47000000000E+01 0. -1.
        -13    1    6    6    0    0  0.16553508079E+03  0.10946445952E+03  0.12373888147E+02  0.19884024738E+03  0.00000000000E+00 0.  1.
         14    1    6    6    0    0  0.42199286937E+02 -0.12152982904E+02 -0.35958155428E+01  0.44061374251E+02  0.00000000000E+00 0. -1.
         -5    1    3    3    0  503 -0.11715308497E+03 -0.15134267869E+03  0.83138640114E+02  0.20871889035E+03  0.47000000000E+01 0.  1.
         13    1    4    4    0    0 -0.20833258067E+03 -0.95396219959E+02 -0.24590542874E+02  0.23045085756E+03  0.00000000000E+00 0. -1.
        -14    1    4    4    0    0 -0.76919960092E+02 -0.82297214070E+02  0.21246559747E+02  0.11463388681E+03  0.00000000000E+00 0.  1.
</event>
<event>
12    1  0.1032880E+000  0.2947174E+03  0.7818608E-02  0.1089239E+00
         21   -1    0    0  501  502  0.00000000000E+00  0.00000000000E+00  0.21302325684E+03  0.21302325684E+03  0.00000000000E+00 0. -1.
         21   -1    0    0  502  503 -0.00000000000E+00 -0.00000000000E+00 -0.39902425422E+03  0.39902425422E+03  0.00000000000E+00 0. -1.
         -6    2    1    2    0  503 -0.21940726654E+03 -0.57103197421E+02 -0.12972513807E+03  0.32200454887E+03  0.18830293221E+03 0.  0.
        -24    2    3    3    0    0 -0.23059663580E+02 -0.48427607679E+02 -0.57875952340E+02  0.11269128475E+03  0.80453207083E+02 0.  0.
          6    2    1    2  501    0  0.21940726654E+03  0.57103197421E+02 -0.56275859316E+02  0.29004296219E+03  0.17192330792E+03 0.  0.
         24    2    5    5    0    0  0.67009072433E+02 -0.21050158061E+02  0.50072956604E+01  0.10807903273E+03  0.81991946940E+02 0.  0.
          5    1    5    5  501    0  0.15239819411E+03  0.78153355482E+02 -0.61283154976E+02  0.18196392946E+03  0.47000000000E+01 0. -1.
        -11    1    6    6    0    0  0.15672301219E+02 -0.46519957703E+02 -0.68291212413E+01  0.49561723004E+02  0.00000000000E+00 0.  1.
         12    1    6    6    0    0  0.51336771214E+02  0.25469799641E+02  0.11836416902E+02  0.58517309726E+02  0.00000000000E+00 0. -1.
         -5    1    3    3    0  503 -0.19634760296E+03 -0.86755897421E+01 -0.71849185727E+02  0.20931326412E+03  0.47000000000E+01 0.  1.
         13    1    4    4    0    0  0.26575864903E+02  0.10435879907E+01 -0.14946328285E+02  0.30508333295E+02  0.00000000000E+00 0. -1.
        -14    1    4    4    0    0 -0.49635528483E+02 -0.49471195670E+02 -0.42929624054E+02  0.82182951457E+02  0.00000000000E+00 0.  1.
</event>
<event>
12    1  0.1032880E+000  0.2084151E+03  0.7818608E-02  0.1142913E+00
         21   -1    0    0  501  502  0.00000000000E+00  0.00000000000E+00  0.11787745666E+03  0.11787745666E+03  0.00000000000E+00 0.  1.
         21   -1    0    0  502  503 -0.00000000000E+00 -0.00000000000E+00 -0.44008492192E+03  0.44008492192E+03  0.00000000000E+00 0.  1.
         -6    2    1    2    0  503 -0.11146596408E+03  0.37609377093E+02 -0.27436025880E+03  0.34454378839E+03  0.17203994917E+03 0.  0.
        -24    2    3    3    0    0 -0.75159804721E+02  0.27127582025E+02 -0.60546339967E+02  0.12736532002E+03  0.78556753416E+02 0.  0.
          6    2    1    2  501    0  0.11146596408E+03 -0.37609377093E+02 -0.47847206459E+02  0.21341859019E+03  0.17151971630E+03 0.  0.
         24    2    5    5    0    0  0.21381200824E+02  0.31016677235E+02 -0.47762530307E+02  0.10007443695E+03  0.79463473463E+02 0.  0.
          5    1    5    5  501    0  0.90084763255E+02 -0.68626054328E+02 -0.84676151880E-01  0.11334415324E+03  0.47000000000E+01 0. -1.
        -13    1    6    6    0    0  0.26644743872E+00  0.44509548065E+02 -0.57910589821E+02  0.73039765037E+02  0.00000000000E+00 0.  1.
         14    1    6    6    0    0  0.21114753385E+02 -0.13492870830E+02  0.10148059514E+02  0.27034671917E+02  0.00000000000E+00 0. -1.
         -5    1    3    3    0  503 -0.36306159358E+02  0.10481795068E+02 -0.21381391884E+03  0.21717846837E+03  0.47000000000E+01 0.  1.
         11    1    4    4    0    0 -0.62182280772E+02 -0.17467324846E+02 -0.43590313463E+02  0.77922133615E+02  0.00000000000E+00 0. -1.
        -12    1    4    4    0    0 -0.12977523949E+02  0.44594906871E+02 -0.16956026504E+02  0.49443186401E+02  0.00000000000E+00 0.  1.
</event>
<event>
12    1  0.1032880E+000  0.2074016E+03  0.7818608E-02  0.1143653E+00
         21   -1    0    0  501  502  0.00000000000E+00  0.00000000000E+00  0.84376412556E+03  0.84376412556E+03  0.00000000000E+00 0. -1.
         21   -1    0    0  502  503 -0.00000000000E+00 -0.00000000000E+00 -0.13737501244E+03  0.13737501244E+03  0.00000000000E+00 0. -1.
         -6    2    1    2    0  503 -0.87903672649E+02  0.73985700540E+02  0.74224548737E+03  0.77066085670E+03  0.17259447551E+03 0.  0.
        -24    2    3    3    0    0 -0.74495020183E+01 -0.43322294896E+01  0.11306694527E+03  0.13152526891E+03  0.66637068942E+02 0.  0.
          6    2    1    2  501    0  0.87903672649E+02 -0.73985700540E+02 -0.35856374250E+02  0.21047828130E+03  0.17266872263E+03 0.  0.
         24    2    5    5    0    0 -0.11136438714E+02 -0.25378974140E+02  0.40157428868E+01  0.93075414063E+02  0.88762570469E+02 0.  0.
          5    1    5    5  501    0  0.99040111364E+02 -0.48606726400E+02 -0.39872117137E+02  0.11740286724E+03  0.47000000000E+01 0. -1.
        -11    1    6    6    0    0  0.17662574602E+02 -0.44819203478E+02 -0.18574916119E+02  0.51630950512E+02  0.00000000000E+00 0.  1.
         12    1    6    6    0    0 -0.28799013317E+02  0.19440229337E+02  0.22590659005E+02  0.41444463551E+02  0.00000000000E+00 0. -1.
         -5    1    3    3    0  503 -0.80454170631E+02  0.78317930029E+02  0.62917854210E+03  0.63913558779E+03  0.47000000000E+01 0.  1.
         11    1    4    4    0    0 -0.28620056046E+02  0.19480942007E+02  0.49317110255E+02  0.60256054247E+02  0.00000000000E+00 0. -1.
        -12    1    4    4    0    0  0.21170554028E+02 -0.23813171497E+02  0.63749835011E+02  0.71269214662E+02  0.00000000000E+00 0.  1.
</event>
<event>
12    1  0.1032880E+000  0.1893384E+03  0.7818608E-02  0.1159949E+00
         21   -1    0    0  501  502  0.00000000000E+00  0.00000000000E+00  0.84657421183E+02  0.84657421183E+02  0.00000000000E+00 0. -1.
         21   -1    0    0  502  503 -0.00000000000E+00 -0.00000000000E+00 -0.93449338274E+03  0.93449338274E+03  0.00000000000E+00 0. -1.
         -6    2    1    2    0  503 -0.20411853354E+02 -0.67959590622E+02 -0.46879271346E+02  0.19505557714E+03  0.17553877741E+03 0.  0.
        -24    2    3    3    0    0  0.14340615166E+02 -0.68301148977E+02  0.28726490022E+02  0.11171187982E+03  0.82362811203E+02 0.  0.
          6    2    1    2  501    0  0.20411853354E+02  0.67959590622E+02 -0.80295669021E+03  0.82409522679E+03  0.17134277558E+03 0.  0.
         24    2    5    5    0    0  0.82595715708E+02  0.51999117035E+02 -0.38520346122E+03  0.40141163380E+03  0.56777044499E+02 0.  0.
          5    1    5    5  501    0 -0.62183862354E+02  0.15960473587E+02 -0.41775322899E+03  0.42268359299E+03  0.47000000000E+01 0. -1.
        -13    1    6    6    0    0  0.44938204791E+02  0.12413956461E+02 -0.26893310178E+03  0.27294424668E+03  0.00000000000E+00 0.  1.
         14    1    6    6    0    0  0.37657510917E+02  0.39585160575E+02 -0.11627035945E+03  0.12846738711E+03  0.00000000000E+00 0. -1.
         -5    1    3    3    0  503 -0.34752468520E+02  0.34155835453E+00 -0.75605761368E+02  0.83343697317E+02  0.47000000000E+01 0.  1.
         11    1    4    4    0    0 -0.88269724318E+01  0.16392114914E+02 -0.19108815643E+01  0.18715457302E+02  0.00000000000E+00 0. -1.
        -12    1    4    4    0    0  0.23167587597E+02 -0.84693263891E+02  0.30637371586E+02  0.92996422519E+02  0.00000000000E+00 0.  1.
</event>
<event>
12    1  0.1032880E+000  0.2029278E+03  0.7818608E-02  0.1150195E+00
         21   -1    0    0  501  502  0.00000000000E+00  0.00000000000E+00  0.79787809453E+02  0.79787809453E+02  0.00000000000E+00 0.  1.
         21   -1    0    0  502  503 -0.00000000000E+00 -0.00000000000E+00 -0.55876904931E+03  0.55876904931E+03  0.00000000000E+00 0.  1.
         -6    2    1    2    0  503  0.26781143024E+02  0.10557461914E+03 -0.36466053960E+03  0.41732120507E+03  0.17122046967E+03 0.  0.
        -24    2    3    3    0    0  0.15598606919E+02  0.14081959967E+03 -0.30313428459E+03  0.34538492896E+03  0.85597187257E+02 0.  0.
          6    2    1    2  501    0 -0.26781143024E+02 -0.10557461914E+03 -0.11432070026E+03  0.22123565369E+03  0.15496051796E+03 0.  0.
         24    2    5    5    0    0 -0.23087388041E+02 -0.14782859567E+01 -0.67143694409E+02  0.10679156127E+03  0.79755558075E+02 0.  0.
          5    1    5    5  501    0 -0.36937549837E+01 -0.10409633319E+03 -0.47177005850E+02  0.11444409242E+03  0.47000000000E+01 0. -1.
        -13    1    6    6    0    0  0.12911205560E+02 -0.30669917482E+02 -0.43480764783E+02  0.54753264500E+02  0.00000000000E+00 0.  1.
         14    1    6    6    0    0 -0.35998593600E+02  0.29191631525E+02 -0.23662929627E+02  0.52038296771E+02  0.00000000000E+00 0. -1.
         -5    1    3    3    0  503  0.11182536105E+02 -0.35244980529E+02 -0.61526255002E+02  0.71936276112E+02  0.47000000000E+01 0.  1.
         13    1    4    4    0    0 -0.73802094067E+01  0.56694539957E+02 -0.44517677339E+02  0.72460761433E+02  0.00000000000E+00 0. -1.
        -14    1    4    4    0    0  0.22978816326E+02  0.84125059715E+02 -0.25861660725E+03  0.27292416753E+03  0.00000000000E+00 0.  1.
</event>
<event>
12    1  0.1032880E+000  0.1781176E+03  0.7818608E-02  0.1170224E+00
         21   -1    0    0  501  502  0.00000000000E+00  0.00000000000E+00  0.77444055015E+03  0.77444055015E+03  0.00000000000E+00 0. -1.
         21   -1    0    0  502  503 -0.00000000000E+00 -0.00000000000E+00 -0.44983292164E+02  0.44983292164E+02  0.00000000000E+00 0. -1.
         -6    2    1    2    0  503  0.30774427810E+02  0.58258832267E+01  0.23645982144E+03  0.29603906331E+03  0.17534216130E+03 0.  0.
        -24    2    3    3    0    0 -0.45513368465E+02 -0.13502057239E+02  0.88001927533E+02  0.12794613245E+03  0.79825442684E+02 0.  0.
          6    2    1    2  501    0 -0.30774427810E+02 -0.58258832267E+01  0.49299743654E+03  0.52338477900E+03  0.17292815887E+03 0.  0.
         24    2    5    5    0    0 -0.68514476198E+02 -0.50291806884E+02  0.31840219371E+03  0.33924592259E+03  0.80525398160E+02 0.  0.
          5    1    5    5  501    0  0.37740048387E+02  0.44465923657E+02  0.17459524284E+03  0.18413885641E+03  0.47000000000E+01 0. -1.
        -13    1    6    6    0    0 -0.74093643651E+02 -0.52384245304E+02  0.32036836692E+03  0.33297127160E+03  0.00000000000E+00 0.  1.
         14    1    6    6    0    0  0.55791674539E+01  0.20924384195E+01 -0.19661732117E+01  0.62746509956E+01  0.00000000000E+00 0. -1.
         -5    1    3    3    0  503  0.76287796275E+02  0.19327940466E+02  0.14845789391E+03  0.16809293086E+03  0.47000000000E+01 0.  1.
         13    1    4    4    0    0 -0.39348674024E+02 -0.44150298657E+01  0.10242885460E+03  0.10981566779E+03  0.00000000000E+00 0. -1.
        -14    1    4    4    0    0 -0.61646944403E+01 -0.90870273737E+01 -0.14426927071E+02  0.18130464659E+02  0.00000000000E+00 0.  1.
</event>
<event>
12    1  0.1032880E+000  0.2247211E+03  0.7818608E-02  0.1130873E+00
         21   -1    0    0  501  502  0.00000000000E+00  0.00000000000E+00  0.19025753506E+03  0.19025753506E+03  0.00000000000E+00 0.  1.
         21   -1    0    0  502  503 -0.00000000000E+00 -0.00000000000E+00 -0.26612424964E+03  0.26612424964E+03  0.00000000000E+00 0.  1.
         -6    2    1    2    0  503  0.26428950180E+02  0.13857498556E+03 -0.11319958179E+02  0.22500602991E+03  0.17492300023E+03 0.  0.
        -24    2    3    3    0    0  0.13459848475E+02  0.15218158734E+02  0.43643192381E+02  0.89255736190E+02  0.75160483803E+02 0.  0.
          6    2    1    2  501    0 -0.26428950180E+02 -0.13857498556E+03 -0.64546756396E+02  0.23137575479E+03  0.17165937234E+03 0.  0.
         24    2    5    5    0    0  0.35951026022E+02 -0.20699079485E+02 -0.38759174513E+02  0.95460045456E+02  0.76742546909E+02 0.  0.
          5    1    5    5  501    0 -0.62379976202E+02 -0.11787590608E+03 -0.25787581883E+02  0.13591570934E+03  0.47000000000E+01 0. -1.
        -13    1    6    6    0    0  0.27088868628E+02 -0.45297949406E+02 -0.44093831887E+02  0.68774828494E+02  0.00000000000E+00 0.  1.
         14    1    6    6    0    0  0.88621573940E+01  0.24598869920E+02  0.53346573741E+01  0.26685216962E+02  0.00000000000E+00 0. -1.
         -5    1    3    3    0  503  0.12969101705E+02  0.12335682683E+03 -0.54963150560E+02  0.13575029372E+03  0.47000000000E+01 0.  1.
         13    1    4    4    0    0  0.39923321192E+02  0.24213001805E+02  0.14537536042E+02  0.48902770735E+02  0.00000000000E+00 0. -1.
        -14    1    4    4    0    0 -0.26463472717E+02 -0.89948430714E+01  0.29105656339E+02  0.40352965455E+02  0.00000000000E+00 0.  1.
</event>
<event>
12    1  0.1032880E+000  0.3607563E+03  0.7818608E-02  0.1058939E+00
         21   -1    0    0  501  502  0.00000000000E+00  0.00000000000E+00  0.66777624823E+02  0.66777624823E+02  0.00000000000E+00 0.  1.
         21   -1    0    0  502  503 -0.00000000000E+00 -0.00000000000E+00 -0.19565448474E+04  0.19565448474E+04  0.00000000000E+00 0.  1.
         -6    2    1    2    0  503 -0.11592160439E+03  0.28686654261E+03 -0.80358895209E+03  0.88085205094E+03  0.18551253353E+03 0.  0.
        -24    2    3    3    0    0 -0.12885375104E+03  0.28737722629E+03 -0.65219626483E+03  0.72883449613E+03  0.81552409811E+02 0.  0.
          6    2    1    2  501    0  0.11592160439E+03 -0.28686654261E+03 -0.10861782705E+04  0.11424704213E+04  0.17240996660E+03 0.  0.
         24    2    5    5    0    0  0.12815076989E+03 -0.29984743580E+03 -0.10251090314E+04  0.10786770200E+04  0.79777708423E+02 0.  0.
          5    1    5    5  501    0 -0.12229165496E+02  0.12980893191E+02 -0.61069239110E+02  0.63793401244E+02  0.47000000000E+01 0. -1.
        -11    1    6    6    0    0  0.49958457746E+02 -0.11860404756E+03 -0.28523425427E+03  0.31292386839E+03  0.00000000000E+00 0.  1.
         12    1    6    6    0    0  0.78192312142E+02 -0.18124338825E+03 -0.73987477709E+03  0.76575315164E+03  0.00000000000E+00 0. -1.
         -5    1    3    3    0  503  0.12932146646E+02 -0.51068368111E+00 -0.15139268726E+03  0.15201755482E+03  0.47000000000E+01 0.  1.
         11    1    4    4    0    0 -0.42274984719E+02  0.17608463461E+03 -0.41677899725E+03  0.45442018598E+03  0.00000000000E+00 0. -1.
        -12    1    4    4    0    0 -0.86578766319E+02  0.11129259168E+03 -0.23541726758E+03  0.27441431014E+03  0.00000000000E+00 0.  1.
</event>
<event>
12    1  0.1032880E+000  0.3031303E+03  0.7818608E-02  0.1083740E+00
         21   -1    0    0  501  502  0.00000000000E+00  0.00000000000E+00  0.16427916305E+04  0.16427916305E+04  0.00000000000E+00 0. -1.
         21   -1    0    0  502  503 -0.00000000000E+00 -0.00000000000E+00 -0.56947131844E+02  0.56947131844E+02  0.00000000000E+00 0. -1.
         -6    2    1    2    0  503 -0.20763173763E+03 -0.13494623801E+03  0.67571445981E+03  0.74059299331E+03  0.17483284851E+03 0.  0.
        -24    2    3    3    0    0 -0.87739239123E+02 -0.67194795202E+02  0.49222270264E+03  0.51112451149E+03  0.82169110153E+02 0.  0.
          6    2    1    2  501    0  0.20763173763E+03  0.13494623801E+03  0.91013003888E+03  0.95914576907E+03  0.17407611275E+03 0.  0.
         24    2    5    5    0    0  0.11023252177E+03  0.55667031324E+02  0.27987605747E+03  0.31648413885E+03  0.81126909053E+02 0.  0.
          5    1    5    5  501    0  0.97399215861E+02  0.79279206682E+02  0.63025398141E+03  0.64266163021E+03  0.47000000000E+01 0. -1.
        -11    1    6    6    0    0 -0.39889628210E+01  0.53224331491E+01 -0.29962858355E+01  0.72950563961E+01  0.00000000000E+00 0.  1.
         12    1    6    6    0    0  0.11422148459E+03  0.50344598175E+02  0.28287234330E+03  0.30918908246E+03  0.00000000000E+00 0. -1.
         -5    1    3    3    0  503 -0.11989249851E+03 -0.67751442803E+02  0.18349175717E+03  0.22946848182E+03  0.47000000000E+01 0.  1.
         11    1    4    4    0    0  0.15561499642E+02 -0.15737424509E+02  0.89080249003E+02  0.91788439161E+02  0.00000000000E+00 0. -1.
        -12    1    4    4    0    0 -0.10330073876E+03 -0.51457370693E+02  0.40314245364E+03  0.41933607233E+03  0.00000000000E+00 0.  1.
</event>
<event>
12    1  0.1032880E+000  0.2249436E+03  0.7818608E-02  0.1130428E+00
         21   -1    0    0  501  502  0.00000000000E+00  0.00000000000E+00  0.45688490514E+02  0.45688490514E+02  0.00000000000E+00 0.  1.
         21   -1    0    0  502  503 -0.00000000000E+00 -0.00000000000E+00 -0.11606994448E+04  0.11606994448E+04  0.00000000000E+00 0.  1.
         -6    2    1    2    0  503 -0.77351113453E+01 -0.14478826117E+03 -0.69120793566E+03  0.72658734826E+03  0.17069649034E+03 0.  0.
        -24    2    3    3    0    0  0.36642327953E+02 -0.10012934610E+02 -0.21566823135E+03  0.23030734046E+03  0.71314556711E+02 0.  0.
          6    2    1    2  501    0  0.77351113453E+01  0.14478826117E+03 -0.42380301864E+03  0.47980058706E+03  0.17197712702E+03 0.  0.
         24    2    5    5    0    0  0.31826411104E+02  0.10763863867E+03 -0.41033776979E+03  0.43328297639E+03  0.82207392225E+02 0.  0.
          5    1    5    5  501    0 -0.24091299758E+02  0.37149622507E+02 -0.13465248853E+02  0.46517610677E+02  0.47000000000E+01 0. -1.
        -13    1    6    6    0    0 -0.56031358162E+01 -0.51710224394E+01 -0.18378216101E+01  0.78429708857E+01  0.00000000000E+00 0.  1.
         14    1    6    6    0    0  0.37429546920E+02  0.11280966111E+03 -0.40849994818E+03  0.42544000550E+03  0.00000000000E+00 0. -1.
         -5    1    3    3    0  503 -0.44377439298E+02 -0.13477532656E+03 -0.47553970431E+03  0.49628000780E+03  0.47000000000E+01 0.  1.
         11    1    4    4    0    0 -0.80592338126E+01 -0.10498494090E+02 -0.37938931457E+01  0.13768197159E+02  0.00000000000E+00 0. -1.
        -12    1    4    4    0    0  0.44701561765E+02  0.48555947984E+00 -0.21187433820E+03  0.21653914330E+03  0.00000000000E+00 0.  1.
</event>
<event>
12    1  0.1032880E+000  0.2709910E+03  0.7818608E-02  0.1101515E+00
         21   -1    0    0  501  502  0.00000000000E+00  0.00000000000E+00  0.55630828091E+03  0.55630828091E+03  0.00000000000E+00 0. -1.
         21   -1    0    0  502  503 -0.00000000000E+00 -0.00000000000E+00 -0.15429323908E+03  0.15429323908E+03  0.00000000000E+00 0. -1.
         -6    2    1    2    0  503 -0.17068629246E+03 -0.11849586913E+03  0.34571690714E+03  0.43926791137E+03  0.17395699653E+03 0.  0.
        -24    2    3    3    0    0 -0.30187881582E+02 -0.18165157789E+02  0.60301830137E+02  0.10566648560E+03  0.79295739535E+02 0.  0.
          6    2    1    2  501    0  0.17068629246E+03  0.11849586913E+03  0.56298134687E+02  0.27133360861E+03  0.16515860788E+03 0.  0.
         24    2    5    5    0    0  0.81582911463E+02  0.59090579047E+02 -0.31707462825E+02  0.13264158942E+03  0.80255592136E+02 0.  0.
          5    1    5    5  501    0  0.89103380997E+02  0.59405290087E+02  0.88005597511E+02  0.13869201920E+03  0.47000000000E+01 0. -1.
        -11    1    6    6    0    0  0.30135114407E+02 -0.18654644208E+02 -0.61092791386E+01  0.35964484738E+02  0.00000000000E+00 0.  1.
         12    1    6    6    0    0  0.51447797056E+02  0.77745223255E+02 -0.25598183686E+02  0.96677104678E+02  0.00000000000E+00 0. -1.
         -5    1    3    3    0  503 -0.14049841088E+03 -0.10033071134E+03  0.28541507701E+03  0.33360142578E+03  0.47000000000E+01 0.  1.
         13    1    4    4    0    0 -0.18128919463E+02  0.10392235848E+02  0.70105960452E+02  0.73153960779E+02  0.00000000000E+00 0. -1.
        -14    1    4    4    0    0 -0.12058962119E+02 -0.28557393637E+02 -0.98041303152E+01  0.32512524817E+02  0.00000000000E+00 0.  1.
</event>
<event>
12    1  0.1032880E+000  0.2092288E+03  0.7818608E-02  0.1142395E+00
         21   -1    0    0  501  502  0.00000000000E+00  0.00000000000E+00  0.73661398921E+02  0.73661398921E+02  0.00000000000E+00 0.  1.
         21   -1    0    0  502  503 -0.00000000000E+00 -0.00000000000E+00 -0.60359298059E+03  0.60359298059E+03  0.00000000000E+00 0.  1.
         -6    2    1    2    0  503  0.11819183413E+03 -0.79742574152E+01 -0.31278803376E+03  0.37571162957E+03  0.17114314505E+03 0.  0.
        -24    2    3    3    0    0  0.19848918513E+02  0.36109037609E+02 -0.89482469981E+02  0.12771539822E+03  0.81278953887E+02 0.  0.
          6    2    1    2  501    0 -0.11819183413E+03  0.79742574152E+01 -0.21714354791E+03  0.30154274994E+03  0.17246394176E+03 0.  0.
         24    2    5    5    0    0 -0.96214777326E+02 -0.58642583928E+02 -0.14850851560E+03  0.20328974878E+03  0.81090731461E+02 0.  0.
          5    1    5    5  501    0 -0.21977056799E+02  0.66616841343E+02 -0.68635032316E+02  0.98253001161E+02  0.47000000000E+01 0. -1.
        -11    1    6    6    0    0  0.97169863420E+01 -0.19537660952E+02 -0.84944768946E+01  0.23415724562E+02  0.00000000000E+00 0.  1.
         12    1    6    6    0    0 -0.10593176367E+03 -0.39104922976E+02 -0.14001403870E+03  0.17987402422E+03  0.00000000000E+00 0. -1.
         -5    1    3    3    0  503  0.98342915613E+02 -0.44083295024E+02 -0.22330556378E+03  0.24799623135E+03  0.47000000000E+01 0.  1.
         13    1    4    4    0    0  0.32309228583E+02  0.11742840866E+02 -0.93898976265E+02  0.99993991354E+02  0.00000000000E+00 0. -1.
        -14    1    4    4    0    0 -0.12460310070E+02  0.24366196744E+02  0.44165062840E+01  0.27721406865E+02  0.00000000000E+00 0.  1.
</event>
<event>
12    1  0.1032880E+000  0.1877148E+03  0.7818608E-02  0.1160717E+00
         21   -1    0    0  503  502  0.00000000000E+00  0.00000000000E+00  0.27983482135E+03  0.27983482135E+03  0.00000000000E+00 0.  1.
         21   -1    0    0  501  503 -0.00000000000E+00 -0.00000000000E+00 -0.14691991889E+03  0.14691991889E+03  0.00000000000E+00 0.  1.
          6    2    1    2  501    0 -0.70532150063E+02 -0.23746525671E+02 -0.15089842127E+02  0.18832038064E+03  0.17233160115E+03 0.  0.
         24    2    3    3    0    0 -0.10568898020E+02  0.13465236536E+02  0.35847511612E+02  0.10115954742E+03  0.93033304493E+02 0.  0.
         -6    2    1    2    0  502  0.70532150063E+02  0.23746525671E+02  0.14800474459E+03  0.23843435960E+03  0.17148427841E+03 0.  0.
        -24    2    5    5    0    0  0.23529029581E+02  0.73099320622E+02  0.54350287335E+02  0.12251094062E+03  0.78471975443E+02 0.  0.
          5    1    3    3  501    0 -0.59963252044E+02 -0.37211762207E+02 -0.50937353739E+02  0.87160833223E+02  0.47000000000E+01 0. -1.
        -11    1    4    4    0    0 -0.18624066542E+02  0.19330598774E+02 -0.26678022538E+02  0.37845010108E+02  0.00000000000E+00 0.  1.
         12    1    4    4    0    0  0.80551685222E+01 -0.58653622389E+01  0.62525534150E+02  0.63314537311E+02  0.00000000000E+00 0. -1.
         -5    1    5    5    0  502  0.47003120483E+02 -0.49352794951E+02  0.93654457250E+02  0.11592341898E+03  0.47000000000E+01 0.  1.
         11    1    6    6    0    0  0.23214734140E+02  0.71080208182E+02  0.72556148893E+02  0.10419076072E+03  0.00000000000E+00 0. -1.
        -12    1    6    6    0    0  0.31429544078E+00  0.20191124402E+01 -0.18205861558E+02  0.18320179905E+02  0.00000000000E+00 0.  1.
</event>
<event>
12    1  0.1032880E+000  0.4262244E+03  0.7818608E-02  0.1035080E+00
         21   -1    0    0  503  502  0.00000000000E+00  0.00000000000E+00  0.21683934904E+03  0.21683934904E+03  0.00000000000E+00 0.  1.
         21   -1    0    0  501  503 -0.00000000000E+00 -0.00000000000E+00 -0.89563418521E+03  0.89563418521E+03  0.00000000000E+00 0. -1.
          6    2    1    2  501    0  0.35369358026E+03  0.16347199468E+03 -0.19732069412E+03  0.46944587479E+03  0.17210964896E+03 0.  0.
         24    2    3    3    0    0  0.83425661700E+02  0.65601164226E+02 -0.26990265154E+02  0.13529322660E+03  0.79450795929E+02 0.  0.
         -6    2    1    2    0  502 -0.35369358026E+03 -0.16347199468E+03 -0.48147414205E+03  0.64302765947E+03  0.17275699584E+03 0.  0.
        -24    2    5    5    0    0 -0.16975735059E+03 -0.70667863425E+02 -0.33531204630E+03  0.39038049127E+03  0.78429934137E+02 0.  0.
          5    1    3    3  501    0  0.27026791856E+03  0.97870830458E+02 -0.17033042896E+03  0.33415264818E+03  0.47000000000E+01 0. -1.
        -11    1    4    4    0    0  0.76963242630E+02  0.60532521902E+02  0.90460020468E+01  0.98332889091E+02  0.00000000000E+00 0.  1.
         12    1    4    4    0    0  0.64624190698E+01  0.50686423239E+01 -0.36036267201E+02  0.36960337512E+02  0.00000000000E+00 0. -1.
         -5    1    5    5    0  502 -0.18393622967E+03 -0.92804131260E+02 -0.14616209575E+03  0.25264716820E+03  0.47000000000E+01 0.  1.
         11    1    6    6    0    0 -0.16402686102E+03 -0.69435229621E+02 -0.26186965180E+03  0.31670455756E+03  0.00000000000E+00 0. -1.
        -12    1    6    6    0    0 -0.57304895662E+01 -0.12326338033E+01 -0.73442394505E+02  0.73675933705E+02  0.00000000000E+00 0.  1.
</event>
<event>
12    1  0.1032880E+000  0.2904502E+03  0.7818608E-02  0.1091175E+00
         21   -1    0    0  503  502  0.00000000000E+00  0.00000000000E+00  0.17473647268E+03  0.17473647268E+03  0.00000000000E+00 0. -1.
         21   -1    0    0  501  503 -0.00000000000E+00 -0.00000000000E+00 -0.49802989419E+03  0.49802989419E+03  0.00000000000E+00 0. -1.
          6    2    1    2  501    0 -0.42503029822E+02 -0.22085927557E+03 -0.79076133526E+02  0.29328852888E+03  0.17082095634E+03 0.  0.
         24    2    3    3    0    0  0.23428520524E+02 -0.18804028559E+03 -0.77674317593E+02  0.21947721184E+03  0.78923395293E+02 0.  0.
         -6    2    1    2    0  502  0.42503029822E+02  0.22085927557E+03 -0.24421728798E+03  0.37947783799E+03  0.18378253080E+03 0.  0.
        -24    2    5    5    0    0 -0.43120466022E+02  0.97558919634E+02 -0.85469882250E+02  0.16094365384E+03  0.84974358196E+02 0.  0.
          5    1    3    3  501    0 -0.65931550345E+02 -0.32818989980E+02 -0.14018159328E+01  0.73811317033E+02  0.47000000000E+01 0. -1.
        -13    1    4    4    0    0 -0.23157043995E+02 -0.27594730452E+02 -0.20367692465E+01  0.36081383902E+02  0.00000000000E+00 0.  1.
         14    1    4    4    0    0  0.46585564519E+02 -0.16044555514E+03 -0.75637548347E+02  0.18339582794E+03  0.00000000000E+00 0. -1.
         -5    1    5    5    0  502  0.85623495844E+02  0.12330035594E+03 -0.15874740573E+03  0.21853418415E+03  0.47000000000E+01 0.  1.
         13    1    6    6    0    0  0.32091888362E+01 -0.11049670330E+02 -0.26647877682E+02  0.29025910706E+02  0.00000000000E+00 0. -1.
        -14    1    6    6    0    0 -0.46329654858E+02  0.10860858996E+03 -0.58822004568E+02  0.13191774314E+03  0.00000000000E+00 0.  1.
</event>
<event>
12    1  0.1032880E+000  0.3627650E+03  0.7818608E-02  0.1057521E+00
         21   -1    0    0  503  502  0.00000000000E+00  0.00000000000E+00  0.17776963520E+04  0.17776963520E+04  0.00000000000E+00 0.  1.
         21   -1    0    0  501  503 -0.00000000000E+00 -0.00000000000E+00 -0.90145418602E+02  0.90145418602E+02  0.00000000000E+00 0.  1.
          6    2    1    2  501    0  0.41930998602E+01  0.31901032645E+03  0.12390974400E+04  0.12910324627E+04  0.17209643657E+03 0.  0.
         24    2    3    3    0    0 -0.10031353395E+02  0.21206757992E+03  0.10409835688E+04  0.10653993932E+04  0.79723208320E+02 0.  0.
         -6    2    1    2    0  502 -0.41930998602E+01 -0.31901032645E+03  0.44845349339E+03  0.57680930789E+03  0.17266520050E+03 0.  0.
        -24    2    5    5    0    0 -0.30487832629E+02 -0.32338885386E+03  0.42561010813E+03  0.54139046087E+03  0.80310698197E+02 0.  0.
          5    1    3    3  501    0  0.14224453256E+02  0.10694274653E+03  0.19811387115E+03  0.22563306949E+03  0.47000000000E+01 0. -1.
        -11    1    4    4    0    0 -0.35742969978E+02  0.72359914826E+02  0.28605878362E+03  0.29722574731E+03  0.00000000000E+00 0.  1.
         12    1    4    4    0    0  0.25711616583E+02  0.13970766509E+03  0.75492478520E+03  0.76817364588E+03  0.00000000000E+00 0. -1.
         -5    1    5    5    0  502  0.26294732768E+02  0.43785274098E+01  0.22843385264E+02  0.35418847016E+02  0.47000000000E+01 0.  1.
         13    1    6    6    0    0 -0.32419726980E+01 -0.14136467811E+03  0.24877964492E+03  0.28615694004E+03  0.00000000000E+00 0. -1.
        -14    1    6    6    0    0 -0.27245859931E+02 -0.18202417575E+03  0.17683046321E+03  0.25523352083E+03  0.00000000000E+00 0.  1.
</event>
<event>
12    1  0.1032880E+000  0.2349005E+03  0.7818608E-02  0.1123306E+00
         21   -1    0    0  503  502  0.00000000000E+00  0.00000000000E+00  0.10795584205E+04  0.10795584205E+04  0.00000000000E+00 0. -1.
         21   -1    0    0  501  503 -0.00000000000E+00 -0.00000000000E+00 -0.52025500391E+02  0.52025500391E+02  0.00000000000E+00 0. -1.
          6    2    1    2  501    0  0.90014086794E+02  0.13157525293E+03  0.43486003903E+03  0.49405792748E+03  0.17197499574E+03 0.  0.
         24    2    3    3    0    0 -0.14880551926E+02  0.88914076310E+02  0.24924873763E+03  0.27658032764E+03  0.79022785571E+02 0.  0.
         -6    2    1    2    0  502 -0.90014086794E+02 -0.13157525293E+03  0.59267288108E+03  0.63752599341E+03  0.17252149228E+03 0.  0.
        -24    2    5    5    0    0  0.14145226552E+01 -0.17444422486E+02  0.27796925096E+03  0.29047340101E+03  0.82471713102E+02 0.  0.
          5    1    3    3  501    0  0.10489463872E+03  0.42661176619E+02  0.18561130140E+03  0.21747759984E+03  0.47000000000E+01 0. -1.
        -11    1    4    4    0    0  0.19805000903E+02  0.74727604060E+02  0.20191113085E+03  0.21620489733E+03  0.00000000000E+00 0.  1.
         12    1    4    4    0    0 -0.34685552829E+02  0.14186472250E+02  0.47337606775E+02  0.60375430311E+02  0.00000000000E+00 0. -1.
         -5    1    5    5    0  502 -0.91428609449E+02 -0.11413083044E+03  0.31470363011E+03  0.34705259240E+03  0.47000000000E+01 0.  1.
         11    1    6    6    0    0 -0.35548168703E+02 -0.15482294655E+02  0.20520111562E+03  0.20883216131E+03  0.00000000000E+00 0. -1.
        -12    1    6    6    0    0  0.36962691358E+02 -0.19621278311E+01  0.72768135344E+02  0.81641239698E+02  0.00000000000E+00 0.  1.
</event>
<event>
12    1  0.1032880E+000  0.2117192E+03  0.7818608E-02  0.1140959E+00
         21   -1    0    0  503  502  0.00000000000E+00  0.00000000000E+00  0.25810133515E+03  0.25810133515E+03  0.00000000000E+00 0. -1.
         21   -1    0    0  501  503 -0.00000000000E+00 -0.00000000000E+00 -0.22560361511E+03  0.22560361511E+03  0.00000000000E+00 0.  1.
          6    2    1    2  501    0 -0.22985975876E+02 -0.12122311215E+03  0.13578689973E+03  0.25152158856E+03  0.17205124054E+03 0.  0.
         24    2    3    3    0    0  0.28033001886E+02 -0.19143467859E+02  0.23677687572E+02  0.91478608962E+02  0.81580521281E+02 0.  0.
         -6    2    1    2    0  502  0.22985975876E+02  0.12122311215E+03 -0.10328917969E+03  0.23218336169E+03  0.16738297643E+03 0.  0.
        -24    2    5    5    0    0  0.25014596676E+01  0.24418455750E+02  0.53212212602E+01  0.85183136865E+02  0.81396149349E+02 0.  0.
          5    1    3    3  501    0 -0.51018977761E+02 -0.10207964429E+03  0.11210921216E+03  0.16004297960E+03  0.47000000000E+01 0. -1.
        -11    1    4    4    0    0  0.92812593456E+01 -0.48557556972E+02  0.27187973959E+02  0.56419535997E+02  0.00000000000E+00 0.  1.
         12    1    4    4    0    0  0.18751742540E+02  0.29414089114E+02 -0.35102863864E+01  0.35059072965E+02  0.00000000000E+00 0. -1.
         -5    1    5    5    0  502  0.20484516208E+02  0.96804656397E+02 -0.10861040095E+03  0.14700022483E+03  0.47000000000E+01 0.  1.
         13    1    6    6    0    0  0.18158960622E+02  0.65490613665E+01  0.39263264207E+02  0.43752051058E+02  0.00000000000E+00 0. -1.
        -14    1    6    6    0    0 -0.15657500954E+02  0.17869394384E+02 -0.33942042946E+02  0.41431085807E+02  0.00000000000E+00 0.  1.
</event>
<event>
12    1  0.1032880E+000  0.2168429E+03  0.7818608E-02  0.1136577E+00
         21   -1    0    0  501  502  0.00000000000E+00  0.00000000000E+00  0.49735568919E+03  0.49735568919E+03  0.00000000000E+00 0.  1.
         21   -1    0    0  502  503 -0.00000000000E+00 -0.00000000000E+00 -0.11372601825E+03  0.11372601825E+03  0.00000000000E+00 0.  1.
         -6    2    1    2    0  503  0.12548316190E+03  0.30141616199E+02  0.64581315729E+02  0.22625561354E+03  0.17425933367E+03 0.  0.
        -24    2    3    3    0    0 -0.80959213942E+01  0.21187639115E+02  0.17221595960E+02  0.84169096745E+02  0.79204756707E+02 0.  0.
          6    2    1    2  501    0 -0.12548316190E+03 -0.30141616199E+02  0.31904835520E+03  0.38482609389E+03  0.17217644623E+03 0.  0.
         24    2    5    5    0    0 -0.15691015280E+03 -0.41768734758E+02  0.26942350221E+03  0.32476311297E+03  0.80725663508E+02 0.  0.
          5    1    5    5  501    0  0.31426990896E+02  0.11627118558E+02  0.49624852991E+02  0.60062980921E+02  0.47000000000E+01 0. -1.
        -13    1    6    6    0    0 -0.33165040583E+02 -0.35164566699E+02  0.35259524734E+02  0.59830600469E+02  0.00000000000E+00 0.  1.
         14    1    6    6    0    0 -0.12374511221E+03 -0.66041680584E+01  0.23416397748E+03  0.26493251250E+03  0.00000000000E+00 0. -1.
         -5    1    3    3    0  503  0.13357908329E+03  0.89539770843E+01  0.47359719769E+02  0.14208651680E+03  0.47000000000E+01 0.  1.
         11    1    4    4    0    0 -0.10289301902E+01  0.30314676387E+01 -0.31517756712E+02  0.31679922373E+02  0.00000000000E+00 0. -1.
        -12    1    4    4    0    0 -0.70669912040E+01  0.18156171476E+02  0.48739352672E+02  0.52489174372E+02  0.00000000000E+00 0.  1.
</event>
<event>
12    1  0.1032880E+000  0.2106310E+03  0.7818608E-02  0.1142079E+00
         21   -1    0    0  503  502  0.00000000000E+00  0.00000000000E+00  0.47052404668E+03  0.47052404668E+03  0.00000000000E+00 0. -1.
         21   -1    0    0  501  503 -0.00000000000E+00 -0.00000000000E+00 -0.92444043467E+02  0.92444043467E+02  0.00000000000E+00 0. -1.
          6    2    1    2  501    0  0.99926487779E+02 -0.50912012247E+02  0.21000438380E+03  0.29743442969E+03  0.17829207161E+03 0.  0.
         24    2    3    3    0    0  0.12023349341E+03 -0.79684696487E+02  0.12894534614E+03  0.20893076072E+03  0.78863278465E+02 0.  0.
         -6    2    1    2    0  502 -0.99926487779E+02  0.50912012247E+02  0.16807561941E+03  0.26553366045E+03  0.17228283444E+03 0.  0.
        -24    2    5    5    0    0 -0.27129142067E+02  0.23862438958E+02  0.16574385431E+03  0.18769626529E+03  0.80333407865E+02 0.  0.
          5    1    3    3  501    0 -0.20307005630E+02  0.28772684241E+02  0.81059037660E+02  0.88503668978E+02  0.47000000000E+01 0. -1.
        -13    1    4    4    0    0  0.79126328373E+02 -0.53218084006E+01  0.58268701523E+02  0.98410055704E+02  0.00000000000E+00 0.  1.
         14    1    4    4    0    0  0.41107165036E+02 -0.74362888087E+02  0.70676644618E+02  0.11052070501E+03  0.00000000000E+00 0. -1.
         -5    1    5    5    0  502 -0.72797345712E+02  0.27049573289E+02  0.23317651026E+01  0.77837395167E+02  0.47000000000E+01 0.  1.
         11    1    6    6    0    0 -0.79424548064E+01 -0.29691435355E+02  0.67562117992E+02  0.74224683963E+02  0.00000000000E+00 0. -1.
        -12    1    6    6    0    0 -0.19186687261E+02  0.53553874313E+02  0.98181736316E+02  0.11347158132E+03  0.00000000000E+00 0.  1.
</event>
<event>
12    1  0.1032880E+000  0.3396831E+03  0.7818608E-02  0.1066961E+00
         21   -1    0    0  501  502  0.00000000000E+00  0.00000000000E+00  0.15600664489E+03  0.15600664489E+03  0.00000000000E+00 0.  1.
         21   -1    0    0  502  503 -0.00000000000E+00 -0.00000000000E+00 -0.10775656288E+04  0.10775656288E+04  0.00000000000E+00 0.  1.
         -6    2    1    2    0  503  0.61679997233E+02  0.28568246745E+03 -0.11518557716E+03  0.35868133933E+03  0.17310601298E+03 0.  0.
        -24    2    3    3    0    0  0.90243217171E+02  0.27279877916E+03 -0.12808665803E+03  0.32447059767E+03  0.79447873650E+02 0.  0.
          6    2    1    2  501    0 -0.61679997233E+02 -0.28568246745E+03 -0.80637340671E+03  0.87489093431E+03  0.17256066074E+03 0.  0.
         24    2    5    5    0    0 -0.67653389751E+02 -0.12801283238E+03 -0.54187419132E+03  0.56686931140E+03  0.82151753429E+02 0.  0.
          5    1    5    5  501    0  0.59733925187E+01 -0.15766963507E+03 -0.26449921539E+03  0.30802162291E+03  0.47000000000E+01 0. -1.
        -11    1    6    6    0    0 -0.68771944747E+02 -0.52695557072E+02 -0.22349277908E+03  0.23969861163E+03  0.00000000000E+00 0.  1.
         12    1    6    6    0    0  0.11185549953E+01 -0.75317275308E+02 -0.31838141224E+03  0.32717069977E+03  0.00000000000E+00 0. -1.
         -5    1    3    3    0  503 -0.28563219938E+02  0.12883688288E+02  0.12901080872E+02  0.34210741658E+02  0.47000000000E+01 0.  1.
         13    1    4    4    0    0  0.51866928753E+02  0.22401587524E+03 -0.12636867704E+03  0.26237822546E+03  0.00000000000E+00 0. -1.
        -14    1    4    4    0    0  0.38376288418E+02  0.48782903927E+02 -0.17179809888E+01  0.62092372212E+02  0.00000000000E+00 0.  1.
</event>
<event>
12    1  0.1032880E+000  0.1919834E+03  0.7818608E-02  0.1156948E+00
         21   -1    0    0  503  502  0.00000000000E+00  0.00000000000E+00  0.24412420186E+03  0.24412420186E+03  0.00000000000E+00 0.  1.
         21   -1    0    0  501  503 -0.00000000000E+00 -0.00000000000E+00 -0.15189476266E+03  0.15189476266E+03  0.00000000000E+00 0.  1.
          6    2    1    2  501    0 -0.42419385274E+01 -0.82932050772E+02  0.24455545315E+02  0.19353476607E+03  0.17309509784E+03 0.  0.
         24    2    3    3    0    0 -0.13376228925E+02  0.12900077259E+02 -0.20555818748E+02  0.87161156008E+02  0.82638912981E+02 0.  0.
         -6    2    1    2    0  502  0.42419385274E+01  0.82932050772E+02  0.67773893886E+02  0.20248419844E+03  0.17178716726E+03 0.  0.
        -24    2    5    5    0    0 -0.25726377858E+02  0.10115323000E+03  0.71468873177E+01  0.13228565654E+03  0.80960450031E+02 0.  0.
          5    1    3    3  501    0  0.91342903972E+01 -0.95832128030E+02  0.45011364062E+02  0.10637361007E+03  0.47000000000E+01 0. -1.
        -13    1    4    4    0    0  0.73666174833E+01  0.27631059825E+02  0.23014324305E+02  0.36706969957E+02  0.00000000000E+00 0.  1.
         14    1    4    4    0    0 -0.20742846408E+02 -0.14730982566E+02 -0.43570143053E+02  0.50454186051E+02  0.00000000000E+00 0. -1.
         -5    1    5    5    0  502  0.29968316386E+02 -0.18221179231E+02  0.60627006568E+02  0.70198541901E+02  0.47000000000E+01 0.  1.
         13    1    6    6    0    0  0.21326337816E+02  0.79467356260E+01 -0.12616398183E+02  0.26021852256E+02  0.00000000000E+00 0. -1.
        -14    1    6    6    0    0 -0.47052715674E+02  0.93206494376E+02  0.19763285501E+02  0.10626380428E+03  0.00000000000E+00 0.  1.
</event>
<event>
12    1  0.1032880E+000  0.3300838E+03  0.7818608E-02  0.1071112E+00
         21   -1    0    0  501  502  0.00000000000E+00  0.00000000000E+00  0.22430882068E+03  0.22430882068E+03  0.00000000000E+00 0. -1.
         21   -1    0    0  502  503 -0.00000000000E+00 -0.00000000000E+00 -0.57104123772E+03  0.57104123772E+03  0.00000000000E+00 0. -1.
         -6    2    1    2    0  503  0.24156299693E+03  0.14526030548E+03 -0.32718702314E+03  0.46468806873E+03  0.17155295181E+03 0.  0.
        -24    2    3    3    0    0  0.18736800254E+03  0.14899200095E+03 -0.32347191429E+03  0.41003539265E+03  0.78673751472E+02 0.  0.
          6    2    1    2  501    0 -0.24156299693E+03 -0.14526030548E+03 -0.19545393906E+02  0.33066198967E+03  0.17176172785E+03 0.  0.
         24    2    5    5    0    0 -0.13673433034E+03 -0.25878669309E+02 -0.49066150205E+02  0.16900002925E+03  0.82386529070E+02 0.  0.
          5    1    5    5  501    0 -0.10482866660E+03 -0.11938163617E+03  0.29520756299E+02  0.16166196042E+03  0.47000000000E+01 0. -1.
        -13    1    6    6    0    0 -0.12100353675E+03 -0.88760996527E+00 -0.11987348947E+02  0.12159909659E+03  0.00000000000E+00 0.  1.
         14    1    6    6    0    0 -0.15730793589E+02 -0.24991059344E+02 -0.37078801258E+02  0.47400932658E+02  0.00000000000E+00 0. -1.
         -5    1    3    3    0  503  0.54194994399E+02 -0.37316954787E+01 -0.37151088523E+01  0.54652676081E+02  0.47000000000E+01 0.  1.
         11    1    4    4    0    0  0.75506511143E+02  0.14219329800E+02 -0.98174720102E+02  0.12466634763E+03  0.00000000000E+00 0. -1.
        -12    1    4    4    0    0  0.11186149139E+03  0.13477267115E+03 -0.22529719419E+03  0.28536904502E+03  0.00000000000E+00 0.  1.
</event>
<event>
12    1  0.1032880E+000  0.2238269E+03  0.7818608E-02  0.1131097E+00
         21   -1    0    0  501  502  0.00000000000E+00  0.00000000000E+00  0.12680443621E+03  0.12680443621E+03  0.00000000000E+00 0.  1.
         21   -1    0    0  502  503 -0.00000000000E+00 -0.00000000000E+00 -0.47894252888E+03  0.47894252888E+03  0.00000000000E+00 0.  1.
         -6    2    1    2    0  503 -0.11384507435E+03  0.96150833342E+02 -0.49137675525E+02  0.22915708906E+03  0.16701130682E+03 0.  0.
        -24    2    3    3    0    0 -0.60817779310E+02  0.81748232129E+02 -0.92698114033E+02  0.15887956247E+03  0.79171960247E+02 0.  0.
          6    2    1    2  501    0  0.11384507435E+03 -0.96150833342E+02 -0.30300041715E+03  0.37658987603E+03  0.16674830804E+03 0.  0.
         24    2    5    5    0    0  0.13742130032E+02  0.70936653599E+01 -0.83579751321E+02  0.11420171974E+03  0.76271172367E+02 0.  0.
          5    1    5    5  501    0  0.10010294432E+03 -0.10324449870E+03 -0.21942066583E+03  0.26238815630E+03  0.47000000000E+01 0. -1.
        -11    1    6    6    0    0 -0.29587840508E+02  0.13596174902E+02 -0.25018814456E+02  0.41063820508E+02  0.00000000000E+00 0.  1.
         12    1    6    6    0    0  0.43329970540E+02 -0.65025095417E+01 -0.58560936865E+02  0.73137899231E+02  0.00000000000E+00 0. -1.
         -5    1    3    3    0  503 -0.53027295039E+02  0.14402601213E+02  0.43560438508E+02  0.70277526592E+02  0.47000000000E+01 0.  1.
         11    1    4    4    0    0 -0.71155466717E+02  0.31853274700E+02 -0.52696990999E+02  0.94099438963E+02  0.00000000000E+00 0. -1.
        -12    1    4    4    0    0  0.10337687407E+02  0.49894957428E+02 -0.40001123034E+02  0.64780123508E+02  0.00000000000E+00 0.  1.
</event>
<event>
12    1  0.1032880E+000  0.2518935E+03  0.7818608E-02  0.1112203E+00
         21   -1    0    0  501  502  0.00000000000E+00  0.00000000000E+00  0.52995390842E+02  0.52995390842E+02  0.00000000000E+00 0.  1.
         21   -1    0    0  502  503 -0.00000000000E+00 -0.00000000000E+00 -0.14376463481E+04  0.14376463481E+04  0.00000000000E+00 0.  1.
         -6    2    1    2    0  503  0.11083303398E+03 -0.14689252436E+03 -0.99814091026E+03  0.10292954792E+04  0.17117982242E+03 0.  0.
        -24    2    3    3    0    0  0.10823318826E+02 -0.11906289839E+03 -0.50750587610E+03  0.52777652844E+03  0.81809117449E+02 0.  0.
          6    2    1    2  501    0 -0.11083303398E+03  0.14689252436E+03 -0.38651004699E+03  0.46134625974E+03  0.17201447562E+03 0.  0.
         24    2    5    5    0    0 -0.83943701750E+02  0.32233301649E+02 -0.12294431095E+03  0.17262708692E+03  0.81235932608E+02 0.  0.
          5    1    5    5  501    0 -0.26889332232E+02  0.11465922271E+03 -0.26356573604E+03  0.28871917282E+03  0.47000000000E+01 0. -1.
        -13    1    6    6    0    0 -0.65651742577E+02 -0.90897104705E+01 -0.10465307229E+03  0.12387509709E+03  0.00000000000E+00 0.  1.
         14    1    6    6    0    0 -0.18291959173E+02  0.41323012120E+02 -0.18291238659E+02  0.48751989834E+02  0.00000000000E+00 0. -1.
         -5    1    3    3    0  503  0.10000971516E+03 -0.27829625965E+02 -0.49063503416E+03  0.50151895074E+03  0.47000000000E+01 0.  1.
         11    1    4    4    0    0  0.14717571304E+02 -0.10505437172E+03 -0.27399392512E+03  0.29381235325E+03  0.00000000000E+00 0. -1.
        -12    1    4    4    0    0 -0.38942524774E+01 -0.14008526672E+02 -0.23351195098E+03  0.23396417519E+03  0.00000000000E+00 0.  1.
</event>
<event>
12    1  0.1032880E+000  0.3074686E+03  0.7818608E-02  0.1081617E+00
         21   -1    0    0  501  502  0.00000000000E+00  0.00000000000E+00  0.96039589215E+02  0.96039589215E+02  0.00000000000E+00 0.  1.
         21   -1    0    0  502  503 -0.00000000000E+00 -0.00000000000E+00 -0.10685130310E+04  0.10685130310E+04  0.00000000000E+00 0.  1.
         -6    2    1    2    0  503  0.24687001224E+03  0.58698947856E+02 -0.32119012937E+03  0.44433951180E+03  0.17287027830E+03 0.  0.
        -24    2    3    3    0    0  0.15045234903E+03  0.10524031249E+03 -0.21203244939E+03  0.29136907838E+03  0.78909743020E+02 0.  0.
          6    2    1    2  501    0 -0.24687001224E+03 -0.58698947856E+02 -0.65128331240E+03  0.72021310839E+03  0.17362776008E+03 0.  0.
         24    2    5    5    0    0 -0.34404571440E+02 -0.16963320516E+02 -0.22539057396E+03  0.24241593303E+03  0.80580053245E+02 0.  0.
          5    1    5    5  501    0 -0.21246544080E+03 -0.41735627341E+02 -0.42589273844E+03  0.47779717536E+03  0.47000000000E+01 0. -1.
        -11    1    6    6    0    0 -0.66810228393E+01  0.18095232624E+02 -0.86940418072E+01  0.21157974214E+02  0.00000000000E+00 0.  1.
         12    1    6    6    0    0 -0.27723548601E+02 -0.35058553140E+02 -0.21669653215E+03  0.22125795882E+03  0.00000000000E+00 0. -1.
         -5    1    3    3    0  503  0.96417663216E+02 -0.46541364633E+02 -0.10915767998E+03  0.15297043342E+03  0.47000000000E+01 0.  1.
         11    1    4    4    0    0  0.14273621224E+03  0.11595126776E+03 -0.18280648088E+03  0.25930008143E+03  0.00000000000E+00 0. -1.
        -12    1    4    4    0    0  0.77161367849E+01 -0.10710955276E+02 -0.29225968514E+02  0.32068996950E+02  0.00000000000E+00 0.  1.
</event>
<event>
12    1  0.1263298E+000  0.2518097E+03  0.7818608E-02  0.1112211E+00
         21   -1    0    0  501  502  0.00000000000E+00  0.00000000000E+00  0.18468373707E+04  0.18468373707E+04  0.00000000000E+00 0. -1.
         21   -1    0    0  502  503 -0.00000000000E+00 -0.00000000000E+00 -0.17297266558E+03  0.17297266558E+03  0.00000000000E+00 0. -1.
         -6    2    1    2    0  503  0.12455633576E+03  0.13506039982E+03  0.17411035764E+04  0.17591777625E+04  0.17178225724E+03 0.  0.
        -24    2    3    3    0    0  0.18998953963E+02  0.98469859340E+02  0.11800869983E+04  0.11871262619E+04  0.81278315155E+02 0.  0.
          6    2    1    2  501    0 -0.12455633576E+03 -0.13506039982E+03 -0.67238871290E+02  0.26063227378E+03  0.17219908231E+03 0.  0.
         24    2    5    5    0    0 -0.39800875474E+02 -0.19682666846E+02  0.19827394082E+02  0.93007293900E+02  0.79282495545E+02 0.  0.
          5    1    5    5  501    0 -0.84755460288E+02 -0.11537773297E+03 -0.87066265372E+02  0.16762497988E+03  0.47000000000E+01 0. -1.
        -11    1    6    6    0    0  0.23116520674E+02 -0.37932265409E+01  0.15252291954E+02  0.27953434593E+02  0.00000000000E+00 0.  1.
         12    1    6    6    0    0 -0.62917396148E+02 -0.15889440305E+02  0.45751021276E+01  0.65053859307E+02  0.00000000000E+00 0. -1.
         -5    1    3    3    0  503  0.10555738180E+03  0.36590540479E+02  0.56101657809E+03  0.57205150065E+03  0.47000000000E+01 0.  1.
         11    1    4    4    0    0  0.47200849576E+02  0.55936403079E+02  0.84649384408E+03  0.84965206376E+03  0.00000000000E+00 0. -1.
        -12    1    4    4    0    0 -0.28201895613E+02  0.42533456260E+02  0.33359315425E+03  0.33747419809E+03  0.00000000000E+00 0.  1.
</event>
<event>
12    1  0.1032880E+000  0.4909098E+03  0.7818608E-02  0.1016217E+00
         21   -1    0    0  501  502  0.00000000000E+00  0.00000000000E+00  0.12577323464E+04  0.12577323464E+04  0.00000000000E+00 0. -1.
         21   -1    0    0  502  503 -0.00000000000E+00 -0.00000000000E+00 -0.25505777366E+03  0.25505777366E+03  0.00000000000E+00 0. -1.
         -6    2    1    2    0  503  0.45375780832E+03 -0.70117414001E+02  0.12363620942E+03  0.50623938621E+03  0.17372335338E+03 0.  0.
        -24    2    3    3    0    0  0.99502346168E+02 -0.98514466859E+00  0.49494263508E+02  0.13773521897E+03  0.81361053470E+02 0.  0.
          6    2    1    2  501    0 -0.45375780832E+03  0.70117414001E+02  0.87903836328E+03  0.10065507338E+04  0.17211430866E+03 0.  0.
         24    2    5    5    0    0 -0.41632632793E+03  0.16457801887E+02  0.75208460054E+03  0.86365280670E+03  0.81648353222E+02 0.  0.
          5    1    5    5  501    0 -0.37431480390E+02  0.53659612114E+02  0.12695376274E+03  0.14289792710E+03  0.47000000000E+01 0. -1.
        -11    1    6    6    0    0 -0.13192368367E+03 -0.26881538579E+02  0.28267175095E+03  0.31309710030E+03  0.00000000000E+00 0.  1.
         12    1    6    6    0    0 -0.28440264426E+03  0.43339340466E+02  0.46941284959E+03  0.55055570641E+03  0.00000000000E+00 0. -1.
         -5    1    3    3    0  503  0.35425546215E+03 -0.69132269332E+02  0.74141945915E+02  0.36850416724E+03  0.47000000000E+01 0.  1.
         13    1    4    4    0    0  0.39252463091E+02 -0.90380150258E+01 -0.20363088629E+02  0.45134210448E+02  0.00000000000E+00 0. -1.
        -14    1    4    4    0    0  0.60249883078E+02  0.80528703572E+01  0.69857352137E+02  0.92601008523E+02  0.00000000000E+00 0.  1.
</event>
<event>
12    1  0.1032880E+000  0.3770612E+03  0.7818608E-02  0.1052257E+00
         21   -1    0    0  503  502  0.00000000000E+00  0.00000000000E+00  0.40980431021E+03  0.40980431021E+03  0.00000000000E+00 0. -1.
         21   -1    0    0  501  503 -0.00000000000E+00 -0.00000000000E+00 -0.34536188612E+03  0.34536188612E+03  0.00000000000E+00 0. -1.
          6    2    1    2  501    0  0.21418467646E+03  0.25786238625E+03  0.49354848950E+02  0.38027754688E+03  0.17264711313E+03 0.  0.
         24    2    3    3    0    0  0.10641136007E+03  0.11874289146E+03  0.90225134392E+02  0.19955181050E+03  0.79101822825E+02 0.  0.
         -6    2    1    2    0  502 -0.21418467646E+03 -0.25786238625E+03  0.15087575137E+02  0.37488864945E+03  0.16716990964E+03 0.  0.
        -24    2    5    5    0    0 -0.13286395165E+03 -0.12579469954E+03  0.66161936087E+02  0.21153132790E+03  0.83011835401E+02 0.  0.
          5    1    3    3  501    0  0.10777331639E+03  0.13911949479E+03 -0.40870285441E+02  0.18072573638E+03  0.47000000000E+01 0. -1.
        -13    1    4    4    0    0  0.10485713539E+03  0.77028140664E+02  0.44189706778E+02  0.13740845491E+03  0.00000000000E+00 0.  1.
         14    1    4    4    0    0  0.15542246813E+01  0.41714750796E+02  0.46035427614E+02  0.62143355589E+02  0.00000000000E+00 0. -1.
         -5    1    5    5    0  502 -0.81320724807E+02 -0.13206768671E+03 -0.51074360950E+02  0.16335732155E+03  0.47000000000E+01 0.  1.
         13    1    6    6    0    0 -0.88058777924E+02 -0.12625572061E+03  0.37808827639E+02  0.15850666485E+03  0.00000000000E+00 0. -1.
        -14    1    6    6    0    0 -0.44805173726E+02  0.46102106279E+00  0.28353108448E+02  0.53024663052E+02  0.00000000000E+00 0.  1.
</event>
<event>
12    1  0.1032880E+000  0.1999876E+03  0.7818608E-02  0.1149779E+00
         21   -1    0    0  503  502  0.00000000000E+00  0.00000000000E+00  0.80573773550E+03  0.80573773550E+03  0.00000000000E+00 0.  1.
         21   -1    0    0  501  503 -0.00000000000E+00 -0.00000000000E+00 -0.51222415710E+02  0.51222415710E+02  0.00000000000E+00 0.  1.
          6    2    1    2  501    0 -0.10280512745E+03 -0.42133456515E+01  0.45357514263E+03  0.49570703939E+03  0.17148881124E+03 0.  0.
         24    2    3    3    0    0 -0.78038726913E+02 -0.26619963851E+02  0.14594609992E+03  0.18623466736E+03  0.81144450644E+02 0.  0.
         -6    2    1    2    0  502  0.10280512745E+03  0.42133456515E+01  0.30094017716E+03  0.36125311181E+03  0.17132476194E+03 0.  0.
        -24    2    5    5    0    0  0.13080427728E+03 -0.24411309681E+02  0.21059615753E+03  0.26232154372E+03  0.82195983703E+02 0.  0.
          5    1    3    3  501    0 -0.24766400542E+02  0.22406618200E+02  0.30762904271E+03  0.30947237204E+03  0.47000000000E+01 0. -1.
        -11    1    4    4    0    0  0.12159467125E+01 -0.27495622862E+02  0.10808718076E+02  0.29568838149E+02  0.00000000000E+00 0.  1.
         12    1    4    4    0    0 -0.79254673625E+02  0.87565901129E+00  0.13513738185E+03  0.15666582921E+03  0.00000000000E+00 0. -1.
         -5    1    5    5    0  502 -0.27999149823E+02  0.28624655332E+02  0.90344019627E+02  0.98931568097E+02  0.47000000000E+01 0.  1.
         13    1    6    6    0    0  0.94179938894E+02 -0.52440769463E+02  0.16757405511E+03  0.19925099533E+03  0.00000000000E+00 0. -1.
        -14    1    6    6    0    0  0.36624338384E+02  0.28029459782E+02  0.43022102417E+02  0.63070548389E+02  0.00000000000E+00 0.  1.
</event>
<event>
12    1  0.1032880E+000  0.1917986E+03  0.7818608E-02  0.1158127E+00
         21   -1    0    0  501  502  0.00000000000E+00  0.00000000000E+00  0.17990411453E+03  0.17990411453E+03  0.00000000000E+00 0. -1.
         21   -1    0    0  502  503 -0.00000000000E+00 -0.00000000000E+00 -0.20280691444E+03  0.20280691444E+03  0.00000000000E+00 0. -1.
         -6    2    1    2    0  503 -0.77489967067E+02 -0.16697116767E+02  0.16584925247E+02  0.18688975055E+03  0.16843167876E+03 0.  0.
        -24    2    3    3    0    0 -0.49132059281E+02  0.28673305237E+02  0.63030700650E+02  0.11588308762E+03  0.78866362223E+02 0.  0.
          6    2    1    2  501    0  0.77489967067E+02  0.16697116767E+02 -0.39487725159E+02  0.19582127842E+03  0.17465166457E+03 0.  0.
         24    2    5    5    0    0  0.47816360690E+01 -0.32376859885E+02  0.18532000633E+02  0.90544808292E+02  0.82363840134E+02 0.  0.
          5    1    5    5  501    0  0.72708330998E+02  0.49073976652E+02 -0.58019725792E+02  0.10527647013E+03  0.47000000000E+01 0. -1.
        -11    1    6    6    0    0  0.42605643690E+02 -0.20711456952E+02  0.18786065035E+02  0.50961961921E+02  0.00000000000E+00 0.  1.
         12    1    6    6    0    0 -0.37824007621E+02 -0.11665402933E+02 -0.25406440165E+00  0.39582846371E+02  0.00000000000E+00 0. -1.
         -5    1    3    3    0  503 -0.28357907786E+02 -0.45370422004E+02 -0.46445775403E+02  0.71006662924E+02  0.47000000000E+01 0.  1.
         11    1    4    4    0    0 -0.69402436571E+02  0.11502147803E+02  0.49898330398E+02  0.86248715831E+02  0.00000000000E+00 0. -1.
        -12    1    4    4    0    0  0.20270377290E+02  0.17171157434E+02  0.13132370252E+02  0.29634371792E+02  0.00000000000E+00 0.  1.
</event>
<event>
12    1  0.1032880E+000  0.1731101E+03  0.7818608E-02  0.1174973E+00
         21   -1    0    0  503  502  0.00000000000E+00  0.00000000000E+00  0.93910127976E+03  0.93910127976E+03  0.00000000000E+00 0. -1.
         21   -1    0    0  501  503 -0.00000000000E+00 -0.00000000000E+00 -0.36392277666E+02  0.36392277666E+02  0.00000000000E+00 0. -1.
          6    2    1    2  501    0  0.34540101239E+00 -0.91941089784E+01  0.62553256116E+03  0.64870022030E+03  0.17157021830E+03 0.  0.
         24    2    3    3    0    0 -0.46635783540E+02 -0.17994002398E+02  0.17780738915E+03  0.19840632796E+03  0.72463252140E+02 0.  0.
         -6    2    1    2    0  502 -0.34540101239E+00  0.91941089784E+01  0.27717644093E+03  0.32679333712E+03  0.17286542407E+03 0.  0.
        -24    2    5    5    0    0 -0.35691507693E+02  0.45222892410E+02  0.10468799086E+03  0.14701075759E+03  0.85636404053E+02 0.  0.
          5    1    3    3  501    0  0.46981184552E+02  0.87998934195E+01  0.44772517201E+03  0.45029389234E+03  0.47000000000E+01 0. -1.
        -13    1    4    4    0    0 -0.60968292581E+02  0.74660057325E+00  0.10021340107E+03  0.11730479899E+03  0.00000000000E+00 0.  1.
         14    1    4    4    0    0  0.14332509041E+02 -0.18740602971E+02  0.77593988081E+02  0.81101528971E+02  0.00000000000E+00 0. -1.
         -5    1    5    5    0  502  0.35346106680E+02 -0.36028783431E+02  0.17248845008E+03  0.17978257953E+03  0.47000000000E+01 0.  1.
         13    1    6    6    0    0 -0.44544847211E+02 -0.10737060866E+02  0.55595072375E+02  0.72044014057E+02  0.00000000000E+00 0. -1.
        -14    1    6    6    0    0  0.88533395189E+01  0.55959953275E+02  0.49092918482E+02  0.74966743535E+02  0.00000000000E+00 0.  1.
</event>
<event>
12    1  0.1032880E+000  0.1766858E+03  0.7818608E-02  0.1171572E+00
         21   -1    0    0  501  502  0.00000000000E+00  0.00000000000E+00  0.10109602378E+04  0.10109602378E+04  0.00000000000E+00 0.  1.
         21   -1    0    0  502  503 -0.00000000000E+00 -0.00000000000E+00 -0.30781030620E+02  0.30781030620E+02  0.00000000000E+00 0.  1.
         -6    2    1    2    0  503  0.28229005016E+02  0.22867796750E+02  0.43874685379E+03  0.47220912110E+03  0.17077130754E+03 0.  0.
        -24    2    3    3    0    0  0.16762007269E+02  0.51959734758E+02  0.42823873256E+03  0.43888730383E+03  0.79075119159E+02 0.  0.
          6    2    1    2  501    0 -0.28229005016E+02 -0.22867796750E+02  0.54143235337E+03  0.56953214731E+03  0.17291055690E+03 0.  0.
         24    2    5    5    0    0 -0.45197864655E+02  0.16658325170E+02  0.15758996273E+03  0.18325850419E+03  0.80179400341E+02 0.  0.
          5    1    5    5  501    0  0.16968859639E+02 -0.39526121920E+02  0.38384239064E+03  0.38627364312E+03  0.47000000000E+01 0. -1.
        -13    1    6    6    0    0 -0.66878306232E+02  0.10734138036E+02  0.94368262120E+02  0.11616065797E+03  0.00000000000E+00 0.  1.
         14    1    6    6    0    0  0.21680441577E+02  0.59241871334E+01  0.63221700608E+02  0.67097846224E+02  0.00000000000E+00 0. -1.
         -5    1    3    3    0  503  0.11466997747E+02 -0.29091938008E+02  0.10508121232E+02  0.33321817271E+02  0.47000000000E+01 0.  1.
         11    1    4    4    0    0 -0.21892911805E+02  0.52139570034E+02  0.22439417561E+03  0.23140998336E+03  0.00000000000E+00 0. -1.
        -12    1    4    4    0    0  0.38654919074E+02 -0.17983527624E+00  0.20384455695E+03  0.20747732047E+03  0.00000000000E+00 0.  1.
</event>
<event>
12    1  0.1032880E+000  0.1765069E+03  0.7818608E-02  0.1171539E+00
         21   -1    0    0  501  502  0.00000000000E+00  0.00000000000E+00  0.89143932779E+02  0.89143932779E+02  0.00000000000E+00 0.  1.
         21   -1    0    0  502  503 -0.00000000000E+00 -0.00000000000E+00 -0.36876503120E+03  0.36876503120E+03  0.00000000000E+00 0.  1.
         -6    2    1    2    0  503 -0.32310054547E+02 -0.13799756484E+01 -0.19588792471E+03  0.26367931154E+03  0.17351903737E+03 0.  0.
        -24    2    3    3    0    0 -0.44199974600E+01 -0.65807944783E+02 -0.12959678879E+03  0.16700758252E+03  0.82133933179E+02 0.  0.
          6    2    1    2  501    0  0.32310054547E+02  0.13799756484E+01 -0.83733173714E+02  0.19422965244E+03  0.17224421485E+03 0.  0.
         24    2    5    5    0    0  0.64407626969E+02 -0.37943528738E+02 -0.90773128609E+02  0.14276856891E+03  0.80963260850E+02 0.  0.
          5    1    5    5  501    0 -0.32097572423E+02  0.39323504386E+02  0.70399548950E+01  0.51461083525E+02  0.47000000000E+01 0. -1.
        -13    1    6    6    0    0  0.65188260548E+02  0.49370685038E+01 -0.41453907345E+02  0.77410014810E+02  0.00000000000E+00 0.  1.
         14    1    6    6    0    0 -0.78063357848E+00 -0.42880597242E+02 -0.49319221263E+02  0.65358554104E+02  0.00000000000E+00 0. -1.
         -5    1    3    3    0  503 -0.27890057087E+02  0.64427969135E+02 -0.66291135916E+02  0.96671729023E+02  0.47000000000E+01 0.  1.
         13    1    4    4    0    0  0.18310945415E+02 -0.20337794189E+02 -0.10861994528E+03  0.11201432545E+03  0.00000000000E+00 0. -1.
        -14    1    4    4    0    0 -0.22730942875E+02 -0.45470150594E+02 -0.20976843516E+02  0.54993257068E+02  0.00000000000E+00 0.  1.
</event>
<event>
12    1  0.1032880E+000  0.1966320E+03  0.7818608E-02  0.1152613E+00
         21   -1    0    0  501  502  0.00000000000E+00  0.00000000000E+00  0.57660838937E+02  0.57660838937E+02  0.00000000000E+00 0. -1.
         21   -1    0    0  502  503 -0.00000000000E+00 -0.00000000000E+00 -0.67057356354E+03  0.67057356354E+03  0.00000000000E+00 0. -1.
         -6    2    1    2    0  503  0.95352203447E+02 -0.11606701670E+02 -0.30349776587E+03  0.36162593080E+03  0.17156824214E+03 0.  0.
        -24    2    3    3    0    0  0.24037582222E+02  0.51067821752E+02 -0.17866558557E+03  0.20472139191E+03  0.82484720157E+02 0.  0.
          6    2    1    2  501    0 -0.95352203447E+02  0.11606701670E+02 -0.30941495873E+03  0.36660847168E+03  0.17157329802E+03 0.  0.
         24    2    5    5    0    0 -0.45119050593E+02 -0.44224545090E+02 -0.85658696210E+02  0.13053760779E+03  0.75571923988E+02 0.  0.
          5    1    5    5  501    0 -0.50233152853E+02  0.55831246759E+02 -0.22375626252E+03  0.23607086389E+03  0.47000000000E+01 0. -1.
        -13    1    6    6    0    0 -0.26996112499E+02 -0.49659242645E+02 -0.94138583901E+02  0.10980393185E+03  0.00000000000E+00 0.  1.
         14    1    6    6    0    0 -0.18122938094E+02  0.54346975554E+01  0.84798876913E+01  0.20733675939E+02  0.00000000000E+00 0. -1.
         -5    1    3    3    0  503  0.71314621224E+02 -0.62674523422E+02 -0.12483218030E+03  0.15690453889E+03  0.47000000000E+01 0.  1.
         11    1    4    4    0    0  0.28011826844E+02  0.70316224452E+02 -0.11168657830E+03  0.13491821833E+03  0.00000000000E+00 0. -1.
        -12    1    4    4    0    0 -0.39742446215E+01 -0.19248402700E+02 -0.66979007268E+02  0.69803173577E+02  0.00000000000E+00 0.  1.
</event>
<event>
12    1  0.1032880E+000  0.2084806E+03  0.7818608E-02  0.1143073E+00
         21   -1    0    0  501  502  0.00000000000E+00  0.00000000000E+00  0.80140539843E+02  0.80140539843E+02  0.00000000000E+00 0. -1.
         21   -1    0    0  502  503 -0.00000000000E+00 -0.00000000000E+00 -0.56916247065E+03  0.56916247065E+03  0.00000000000E+00 0. -1.
         -6    2    1    2    0  503  0.54371590330E+02  0.10403329316E+03 -0.31905419217E+03  0.38031751338E+03  0.17048940590E+03 0.  0.
        -24    2    3    3    0    0 -0.47162622451E+01  0.36389477044E+02 -0.25699728650E+03  0.27104624670E+03  0.77923202028E+02 0.  0.
          6    2    1    2  501    0 -0.54371590330E+02 -0.10403329316E+03 -0.16996773864E+03  0.26898549711E+03  0.17229326614E+03 0.  0.
         24    2    5    5    0    0  0.31600181104E+02 -0.31727550109E+02 -0.10364889450E+03  0.13844988875E+03  0.80125336086E+02 0.  0.
          5    1    5    5  501    0 -0.85971771434E+02 -0.72305743051E+02 -0.66318844138E+02  0.13053560836E+03  0.47000000000E+01 0. -1.
        -11    1    6    6    0    0  0.88053711345E+01 -0.46983548875E+02 -0.22579578522E+02  0.52866111943E+02  0.00000000000E+00 0.  1.
         12    1    6    6    0    0  0.22794809970E+02  0.15255998767E+02 -0.81069315978E+02  0.85583776810E+02  0.00000000000E+00 0. -1.
         -5    1    3    3    0  503  0.59087852575E+02  0.67643816116E+02 -0.62056905670E+02  0.10927126668E+03  0.47000000000E+01 0.  1.
         13    1    4    4    0    0  0.11198010515E+02  0.36564953086E+02 -0.25122146377E+03  0.25411535784E+03  0.00000000000E+00 0. -1.
        -14    1    4    4    0    0 -0.15914272760E+02 -0.17547604220E+00 -0.57758227301E+01  0.16930888858E+02  0.00000000000E+00 0.  1.
</event>
<event>
12    1  0.1032880E+000  0.1748716E+03  0.7818608E-02  0.1173066E+00
         21   -1    0    0  503  502  0.00000000000E+00  0.00000000000E+00  0.36976724333E+03  0.36976724333E+03  0.00000000000E+00 0. -1.
         21   -1    0    0  501  503 -0.00000000000E+00 -0.00000000000E+00 -0.13971962105E+03  0.13971962105E+03  0.00000000000E+00 0. -1.
          6    2    1    2  501    0 -0.17206191302E+02 -0.24441276989E+02  0.27814870874E+03  0.32812036994E+03  0.17147257493E+03 0.  0.
         24    2    3    3    0    0 -0.14952764237E+02 -0.65477422348E+02  0.95696269320E+02  0.14103743162E+03  0.78885379884E+02 0.  0.
         -6    2    1    2    0  502  0.17206191302E+02  0.24441276989E+02 -0.48101086460E+02  0.18136649444E+03  0.17229817685E+03 0.  0.
        -24    2    5    5    0    0  0.51309422942E+02  0.48001583578E+02  0.12282818752E+02  0.10797423011E+03  0.81060211094E+02 0.  0.
          5    1    3    3  501    0 -0.22534270646E+01  0.41036145359E+02  0.18245243942E+03  0.18708293832E+03  0.47000000000E+01 0. -1.
        -11    1    4    4    0    0  0.59909785766E+00  0.17680146368E+02  0.25888075745E+02  0.31355046796E+02  0.00000000000E+00 0.  1.
         12    1    4    4    0    0 -0.15551862095E+02 -0.83157568717E+02  0.69808193576E+02  0.10968238482E+03  0.00000000000E+00 0. -1.
         -5    1    5    5    0  502 -0.34103231640E+02 -0.23560306589E+02 -0.60383905212E+02  0.73392264330E+02  0.47000000000E+01 0.  1.
         11    1    6    6    0    0  0.48119141421E+01  0.47633476233E+02  0.31875011319E+02  0.57516249203E+02  0.00000000000E+00 0. -1.
        -12    1    6    6    0    0  0.46497508800E+02  0.36810734500E+00 -0.19592192567E+02  0.50457980906E+02  0.00000000000E+00 0.  1.
</event>
<event>
12    1  0.1032880E+000  0.3247000E+03  0.7818608E-02  0.1073576E+00
         21   -1    0    0  501  502  0.00000000000E+00  0.00000000000E+00  0.83065959542E+03  0.83065959542E+03  0.00000000000E+00 0.  1.
         21   -1    0    0  502  503 -0.00000000000E+00 -0.00000000000E+00 -0.18402434857E+03  0.18402434857E+03  0.00000000000E+00 0.  1.
         -6    2    1    2    0  503  0.26671631045E+03 -0.65511854121E+02  0.60673174069E+03  0.68815224190E+03  0.17320712914E+03 0.  0.
        -24    2    3    3    0    0  0.23116094113E+03 -0.57232551322E+02  0.36180958282E+03  0.44047970697E+03  0.80032820765E+02 0.  0.
          6    2    1    2  501    0 -0.26671631045E+03  0.65511854121E+02  0.39903506158E+02  0.32653170209E+03  0.17205019435E+03 0.  0.
         24    2    5    5    0    0 -0.24696460888E+03  0.10483263408E+03  0.39797093703E+02  0.28227839967E+03  0.78204137000E+02 0.  0.
          5    1    5    5  501    0 -0.19751701569E+02 -0.39320779963E+02  0.10641245442E+00  0.44253302423E+02  0.47000000000E+01 0. -1.
        -11    1    6    6    0    0 -0.51782696051E+02 -0.86198805847E+00 -0.14479997259E+02  0.53776025833E+02  0.00000000000E+00 0.  1.
         12    1    6    6    0    0 -0.19518191283E+03  0.10569462214E+03  0.54277090962E+02  0.22850237383E+03  0.00000000000E+00 0. -1.
         -5    1    3    3    0  503  0.35555369317E+02 -0.82793027991E+01  0.24492215787E+03  0.24767253493E+03  0.47000000000E+01 0.  1.
         13    1    4    4    0    0  0.80202777153E+02  0.13845217384E+02  0.88259121767E+02  0.12005768648E+03  0.00000000000E+00 0. -1.
        -14    1    4    4    0    0  0.15095816398E+03 -0.71077768706E+02  0.27355046105E+03  0.32042202049E+03  0.00000000000E+00 0.  1.
</event>
<event>
12    1  0.1032880E+000  0.1982805E+03  0.7818608E-02  0.1151304E+00
         21   -1    0    0  503  502  0.00000000000E+00  0.00000000000E+00  0.47591987330E+03  0.47591987330E+03  0.00000000000E+00 0. -1.
         21   -1    0    0  501  503 -0.00000000000E+00 -0.00000000000E+00 -0.12822721064E+03  0.12822721064E+03  0.00000000000E+00 0. -1.
          6    2    1    2  501    0  0.90817757071E+02 -0.38474332071E+02  0.35456645790E+03  0.40624197960E+03  0.17200881864E+03 0.  0.
         24    2    3    3    0    0  0.20376902215E+02 -0.81236143656E+02  0.20655025316E+03  0.23676816619E+03  0.79885094128E+02 0.  0.
         -6    2    1    2    0  502 -0.90817757071E+02  0.38474332071E+02 -0.68737952374E+01  0.19790510434E+03  0.17143815805E+03 0.  0.
        -24    2    5    5    0    0  0.70410307354E+01  0.48503645496E+02  0.18670612689E+02  0.96162604594E+02  0.80600713421E+02 0.  0.
          5    1    3    3  501    0  0.70440854856E+02  0.42761811584E+02  0.14801620475E+03  0.16947381341E+03  0.47000000000E+01 0. -1.
        -13    1    4    4    0    0  0.18677537286E+02 -0.20812887234E+02  0.15446612151E+03  0.15697709823E+03  0.00000000000E+00 0.  1.
         14    1    4    4    0    0  0.16993649290E+01 -0.60423256421E+02  0.52084131650E+02  0.79791067968E+02  0.00000000000E+00 0. -1.
         -5    1    5    5    0  502 -0.97858787806E+02 -0.10029313424E+02 -0.25544407927E+02  0.10174249975E+03  0.47000000000E+01 0.  1.
         11    1    6    6    0    0 -0.42083461897E+01 -0.20465104467E+02 -0.65100677263E+01  0.21884050363E+02  0.00000000000E+00 0. -1.
        -12    1    6    6    0    0  0.11249376925E+02  0.68968749962E+02  0.25180680416E+02  0.74278554232E+02  0.00000000000E+00 0.  1.
</event>
<event>
12    1  0.1032880E+000  0.1747839E+03  0.7818608E-02  0.1173430E+00
         21   -1    0    0  503  502  0.00000000000E+00  0.00000000000E+00  0.62866396572E+02  0.62866396572E+02  0.00000000000E+00 0.  1.
         21   -1    0    0  501  503 -0.00000000000E+00 -0.00000000000E+00 -0.75124168260E+03  0.75124168260E+03  0.00000000000E+00 0.  1.
          6    2    1    2  501    0  0.14738916713E+01  0.23862695462E+02 -0.98696552780E+02  0.19907116096E+03  0.17122125161E+03 0.  0.
         24    2    3    3    0    0 -0.37586039133E+01  0.37323074945E+02  0.94413255920E+01  0.89872023759E+02  0.81121532276E+02 0.  0.
         -6    2    1    2    0  502 -0.14738916713E+01 -0.23862695462E+02 -0.58967873325E+03  0.61503691822E+03  0.17314098802E+03 0.  0.
        -24    2    5    5    0    0  0.21362799439E+02 -0.74693138193E+02 -0.30284567007E+03  0.32280320267E+03  0.80317953671E+02 0.  0.
          5    1    3    3  501    0  0.52324955846E+01 -0.13460379483E+02 -0.10813787837E+03  0.10919913720E+03  0.47000000000E+01 0. -1.
        -11    1    4    4    0    0 -0.29524287368E+02 -0.11946936174E+02  0.12434596958E+02  0.34191110395E+02  0.00000000000E+00 0.  1.
         12    1    4    4    0    0  0.25765683455E+02  0.49270011119E+02 -0.29932713656E+01  0.55680913364E+02  0.00000000000E+00 0. -1.
         -5    1    5    5    0  502 -0.22836691110E+02  0.50830442731E+02 -0.28683306318E+03  0.29223371555E+03  0.47000000000E+01 0.  1.
         11    1    6    6    0    0  0.35043635717E+02 -0.15103319037E+02 -0.19618461955E+03  0.19986138096E+03  0.00000000000E+00 0. -1.
        -12    1    6    6    0    0 -0.13680836278E+02 -0.59589819156E+02 -0.10666105052E+03  0.12294182171E+03  0.00000000000E+00 0.  1.
</event>
<event>
12    1  0.1032880E+000  0.1809968E+03  0.7818608E-02  0.1167191E+00
         21   -1    0    0  503  502  0.00000000000E+00  0.00000000000E+00  0.16162298097E+03  0.16162298097E+03  0.00000000000E+00 0.  1.
         21   -1    0    0  501  503 -0.00000000000E+00 -0.00000000000E+00 -0.20315307871E+03  0.20315307871E+03  0.00000000000E+00 0.  1.
          6    2    1    2  501    0 -0.35266914622E+01 -0.57118467950E+02 -0.39283720802E+02  0.18521086141E+03  0.17171166393E+03 0.  0.
         24    2    3    3    0    0 -0.13734853183E+02  0.10163537948E+02 -0.72883229307E+02  0.10917079397E+03  0.79462906105E+02 0.  0.
         -6    2    1    2    0  502  0.35266914622E+01  0.57118467950E+02 -0.22463769424E+01  0.17956519827E+03  0.17018712433E+03 0.  0.
        -24    2    5    5    0    0 -0.29167018895E+02  0.91475300059E+02  0.20257210782E+02  0.12686062475E+03  0.80404092002E+02 0.  0.
          5    1    3    3  501    0  0.10208161720E+02 -0.67282005899E+02  0.33599508506E+02  0.76040067434E+02  0.47000000000E+01 0. -1.
        -11    1    4    4    0    0 -0.53515218583E+01 -0.34690212480E+02 -0.25477203602E+02  0.43372082398E+02  0.00000000000E+00 0.  1.
         12    1    4    4    0    0 -0.83833313242E+01  0.44853750429E+02 -0.47406025705E+02  0.65798711574E+02  0.00000000000E+00 0. -1.
         -5    1    5    5    0  502  0.32693710357E+02 -0.34356832108E+02 -0.22503587724E+02  0.52704573520E+02  0.47000000000E+01 0.  1.
         13    1    6    6    0    0 -0.31968011447E+02  0.78435316907E+02 -0.17786113097E+02  0.86547088416E+02  0.00000000000E+00 0. -1.
        -14    1    6    6    0    0  0.28009925517E+01  0.13039983152E+02  0.38043323879E+02  0.40313536333E+02  0.00000000000E+00 0.  1.
</event>
<event>
12    1  0.1032880E+000  0.2087460E+03  0.7818608E-02  0.1143010E+00
         21   -1    0    0  503  502  0.00000000000E+00  0.00000000000E+00  0.41833471125E+03  0.41833471125E+03  0.00000000000E+00 0. -1.
         21   -1    0    0  501  503 -0.00000000000E+00 -0.00000000000E+00 -0.10461327439E+03  0.10461327439E+03  0.00000000000E+00 0. -1.
          6    2    1    2  501    0 -0.33995220310E+02 -0.11273506320E+03  0.12576522813E+03  0.24370429824E+03  0.17236595632E+03 0.  0.
         24    2    3    3    0    0 -0.89906009728E+00 -0.12675778807E+03  0.14146143781E+03  0.20420172070E+03  0.74957716101E+02 0.  0.
         -6    2    1    2    0  502  0.33995220310E+02  0.11273506320E+03  0.18795620873E+03  0.27924368740E+03  0.16966034031E+03 0.  0.
        -24    2    5    5    0    0 -0.27233224143E+02  0.38422677204E+02  0.38666257405E+02  0.10153371950E+03  0.81216169044E+02 0.  0.
          5    1    3    3  501    0 -0.33096160212E+02  0.14022724876E+02 -0.15696209684E+02  0.39502577539E+02  0.47000000000E+01 0. -1.
        -13    1    4    4    0    0  0.18445800617E+02 -0.65832733216E+02  0.27811260239E+02  0.73808282186E+02  0.00000000000E+00 0.  1.
         14    1    4    4    0    0 -0.19344860714E+02 -0.60925054858E+02  0.11365017758E+03  0.13039343852E+03  0.00000000000E+00 0. -1.
         -5    1    5    5    0  502  0.61228444452E+02  0.74312385995E+02  0.14928995132E+03  0.17770996789E+03  0.47000000000E+01 0.  1.
         13    1    6    6    0    0  0.62372694616E+01 -0.23046937167E+02  0.90315134310E+01  0.25527104771E+02  0.00000000000E+00 0. -1.
        -14    1    6    6    0    0 -0.33470493604E+02  0.61469614371E+02  0.29634743974E+02  0.76006614734E+02  0.00000000000E+00 0.  1.
</event>
<event>
12    1  0.1032880E+000  0.1885021E+03  0.7818608E-02  0.1159956E+00
         21   -1    0    0  501  502  0.00000000000E+00  0.00000000000E+00  0.51870617269E+03  0.51870617269E+03  0.00000000000E+00 0.  1.
         21   -1    0    0  502  503 -0.00000000000E+00 -0.00000000000E+00 -0.68286735665E+02  0.68286735665E+02  0.00000000000E+00 0.  1.
         -6    2    1    2    0  503 -0.61275818202E+02  0.46593674479E+02  0.22702782524E+03  0.29508416843E+03  0.17206782565E+03 0.  0.
        -24    2    3    3    0    0 -0.61027781516E+02 -0.33915178214E+02  0.10737896839E+03  0.15079391986E+03  0.79586016272E+02 0.  0.
          6    2    1    2  501    0  0.61275818202E+02 -0.46593674479E+02  0.22339161178E+03  0.29190873993E+03  0.17140946249E+03 0.  0.
         24    2    5    5    0    0  0.53719620755E+01  0.35867055358E+02  0.93097713857E+02  0.12782460623E+03  0.79728551944E+02 0.  0.
          5    1    5    5  501    0  0.55903856127E+02 -0.82460729837E+02  0.13029389793E+03  0.16408413370E+03  0.47000000000E+01 0. -1.
        -13    1    6    6    0    0 -0.15216418780E+02  0.42648720834E+01 -0.95516961238E+01  0.18465195185E+02  0.00000000000E+00 0.  1.
         14    1    6    6    0    0  0.20588380856E+02  0.31602183274E+02  0.10264940998E+03  0.10935941104E+03  0.00000000000E+00 0. -1.
         -5    1    3    3    0  503 -0.24803668660E+00  0.80508852693E+02  0.11964885685E+03  0.14429024856E+03  0.47000000000E+01 0.  1.
         11    1    4    4    0    0 -0.48044083896E+02  0.15173237340E+02  0.31258400231E+02  0.59292062823E+02  0.00000000000E+00 0. -1.
        -12    1    4    4    0    0 -0.12983697619E+02 -0.49088415554E+02  0.76120568157E+02  0.91501857041E+02  0.00000000000E+00 0.  1.
</event>
<event>
12    1  0.1032880E+000  0.2297842E+03  0.7818608E-02  0.1126833E+00
         21   -1    0    0  503  502  0.00000000000E+00  0.00000000000E+00  0.10040732769E+04  0.10040732769E+04  0.00000000000E+00 0.  1.
         21   -1    0    0  501  503 -0.00000000000E+00 -0.00000000000E+00 -0.53237105889E+02  0.53237105889E+02  0.00000000000E+00 0.  1.
          6    2    1    2  501    0 -0.15141677917E+03  0.58338475148E+01  0.53645356116E+03  0.58359506853E+03  0.17274173190E+03 0.  0.
         24    2    3    3    0    0 -0.17267761907E+03 -0.20176208614E+02  0.40830640515E+03  0.45103440345E+03  0.80580848135E+02 0.  0.
         -6    2    1    2    0  502  0.15141677917E+03 -0.58338475148E+01  0.41438260986E+03  0.47371531427E+03  0.17243020858E+03 0.  0.
        -24    2    5    5    0    0  0.68953296872E+02  0.52086001391E+02  0.29439469541E+03  0.31695395289E+03  0.79523976720E+02 0.  0.
          5    1    3    3  501    0  0.21260839902E+02  0.26010056129E+02  0.12814715602E+03  0.13256066509E+03  0.47000000000E+01 0. -1.
        -11    1    4    4    0    0 -0.31436810555E+02  0.19280307368E+02  0.38990638850E+02  0.53668177051E+02  0.00000000000E+00 0.  1.
         12    1    4    4    0    0 -0.14124080851E+03 -0.39456515982E+02  0.36931576630E+03  0.39736622640E+03  0.00000000000E+00 0. -1.
         -5    1    5    5    0  502  0.82463482295E+02 -0.57919848906E+02  0.11998791445E+03  0.15676136139E+03  0.47000000000E+01 0.  1.
         13    1    6    6    0    0  0.73535099213E+02  0.14646291541E+02  0.14975283869E+03  0.16747488578E+03  0.00000000000E+00 0. -1.
        -14    1    6    6    0    0 -0.45818023407E+01  0.37439709850E+02  0.14464185672E+03  0.14947906711E+03  0.00000000000E+00 0.  1.
</event>
<event>
12    1  0.1032880E+000  0.1993979E+03  0.7818608E-02  0.1150624E+00
         21   -1    0    0  503  502  0.00000000000E+00  0.00000000000E+00  0.29262795298E+03  0.29262795298E+03  0.00000000000E+00 0. -1.
         21   -1    0    0  501  503 -0.00000000000E+00 -0.00000000000E+00 -0.16692943116E+03  0.16692943116E+03  0.00000000000E+00 0. -1.
          6    2    1    2  501    0 -0.73354417810E+02 -0.58044114523E+02  0.16408869251E+03  0.25823365217E+03  0.17609523066E+03 0.  0.
         24    2    3    3    0    0 -0.68034584084E+02  0.87992848288E+01  0.31546232416E+02  0.10962027997E+03  0.79468918182E+02 0.  0.
         -6    2    1    2    0  502  0.73354417810E+02  0.58044114523E+02 -0.38390170692E+02  0.20132373196E+03  0.17409035011E+03 0.  0.
        -24    2    5    5    0    0  0.53284703792E+02  0.96770774094E+02 -0.63321083662E+02  0.15086396577E+03  0.80910655394E+02 0.  0.
          5    1    3    3  501    0 -0.53198337264E+01 -0.66843399352E+02  0.13254246010E+03  0.14861337220E+03  0.47000000000E+01 0. -1.
        -13    1    4    4    0    0 -0.47522089560E+02  0.32938001819E+02  0.46869836229E+02  0.74431461816E+02  0.00000000000E+00 0.  1.
         14    1    4    4    0    0 -0.20512494524E+02 -0.24138716990E+02 -0.15323603813E+02  0.35188818158E+02  0.00000000000E+00 0. -1.
         -5    1    5    5    0  502  0.20069714018E+02 -0.38726659571E+02  0.24930912970E+02  0.50459766188E+02  0.47000000000E+01 0.  1.
         13    1    6    6    0    0 -0.14485492781E+02  0.49452682093E+02 -0.39247865509E+02  0.64774935077E+02  0.00000000000E+00 0. -1.
        -14    1    6    6    0    0  0.67770196573E+02  0.47318092001E+02 -0.24073218152E+02  0.86089030697E+02  0.00000000000E+00 0.  1.
</event>
<event>
12    1  0.1032880E+000  0.2028238E+03  0.7818608E-02  0.1149884E+00
         21   -1    0    0  501  502  0.00000000000E+00  0.00000000000E+00  0.55223338787E+02  0.55223338787E+02  0.00000000000E+00 0.  1.
         21   -1    0    0  502  503 -0.00000000000E+00 -0.00000000000E+00 -0.73573715233E+03  0.73573715233E+03  0.00000000000E+00 0.  1.
         -6    2    1    2    0  503  0.55923864986E+02  0.71040091024E+02 -0.26591400295E+03  0.33443645334E+03  0.18155801043E+03 0.  0.
        -24    2    3    3    0    0  0.19733504168E+02  0.46113167006E+02 -0.27350976666E+03  0.28959362356E+03  0.80876690016E+02 0.  0.
          6    2    1    2  501    0 -0.55923864986E+02 -0.71040091024E+02 -0.41459981059E+03  0.45652403777E+03  0.16836573557E+03 0.  0.
         24    2    5    5    0    0 -0.69826883630E+02 -0.98364323455E+02 -0.39270417820E+03  0.41855804874E+03  0.80143214210E+02 0.  0.
          5    1    5    5  501    0  0.13903018644E+02  0.27324232431E+02 -0.21895632391E+02  0.37965989032E+02  0.47000000000E+01 0. -1.
        -13    1    6    6    0    0 -0.26023982415E+02  0.44004603462E+01 -0.35129553527E+02  0.43939700078E+02  0.00000000000E+00 0.  1.
         14    1    6    6    0    0 -0.43802901215E+02 -0.10276478380E+03 -0.35757462467E+03  0.37461834866E+03  0.00000000000E+00 0. -1.
         -5    1    3    3    0  503  0.36190360818E+02  0.24926924018E+02  0.75957637077E+01  0.44842829789E+02  0.47000000000E+01 0.  1.
         11    1    4    4    0    0  0.26087422626E+02  0.24146088417E+02 -0.34646908581E+02  0.49638649048E+02  0.00000000000E+00 0. -1.
        -12    1    4    4    0    0 -0.63539184583E+01  0.21967078589E+02 -0.23886285808E+03  0.23995497451E+03  0.00000000000E+00 0.  1.
</event>
<event>
12    1  0.1032880E+000  0.8543121E+03  0.7818608E-02  0.9484620E-01
         21   -1    0    0  503  502  0.00000000000E+00  0.00000000000E+00  0.89004538768E+03  0.89004538768E+03  0.00000000000E+00 0. -1.
         21   -1    0    0  501  503 -0.00000000000E+00 -0.00000000000E+00 -0.89702842724E+03  0.89702842724E+03  0.00000000000E+00 0. -1.
          6    2    1    2  501    0 -0.49228365309E+03  0.67640531035E+03  0.25858320711E+03  0.89258864757E+03  0.17315276436E+03 0.  0.
         24    2    3    3    0    0 -0.42959577550E+03  0.62902005352E+03  0.27195403859E+03  0.81273877784E+03  0.79790750372E+02 0.  0.
         -6    2    1    2    0  502  0.49228365309E+03 -0.67640531035E+03 -0.26556624668E+03  0.89448516735E+03  0.17236862898E+03 0.  0.
        -24    2    5    5    0    0  0.36603206424E+03 -0.57588320706E+03 -0.16858411133E+03  0.70614562950E+03  0.67824090491E+02 0.  0.
          5    1    3    3  501    0 -0.62687877596E+02  0.47385256828E+02 -0.13370831473E+02  0.79849869734E+02  0.47000000000E+01 0. -1.
        -13    1    4    4    0    0 -0.27823077365E+03  0.41221914229E+03  0.13687886973E+03  0.51582245943E+03  0.00000000000E+00 0.  1.
         14    1    4    4    0    0 -0.15136500184E+03  0.21680091123E+03  0.13507516886E+03  0.29691631841E+03  0.00000000000E+00 0. -1.
         -5    1    5    5    0  502  0.12625158885E+03 -0.10052210329E+03 -0.96982135346E+02  0.18833953784E+03  0.47000000000E+01 0.  1.
         11    1    6    6    0    0  0.37701205770E+02 -0.10141282181E+03 -0.36911738919E+02  0.11431718075E+03  0.00000000000E+00 0. -1.
        -12    1    6    6    0    0  0.32833085847E+03 -0.47447038525E+03 -0.13167237241E+03  0.59182844876E+03  0.00000000000E+00 0.  1.
</event>
<event>
12    1  0.1032880E+000  0.2148194E+03  0.7818608E-02  0.1138050E+00
         21   -1    0    0  501  502  0.00000000000E+00  0.00000000000E+00  0.99893347472E+02  0.99893347472E+02  0.00000000000E+00 0.  1.
         21   -1    0    0  502  503 -0.00000000000E+00 -0.00000000000E+00 -0.53200176446E+03  0.53200176446E+03  0.00000000000E+00 0.  1.
         -6    2    1    2    0  503  0.62046546902E+02  0.11054418876E+03 -0.98654055935E+02  0.23523507601E+03  0.17185204852E+03 0.  0.
        -24    2    3    3    0    0  0.10512243375E+03  0.89178721587E+02 -0.58138824241E+02  0.17218280234E+03  0.85224550893E+02 0.  0.
          6    2    1    2  501    0 -0.62046546902E+02 -0.11054418876E+03 -0.33345436106E+03  0.39666003593E+03  0.17342889479E+03 0.  0.
         24    2    5    5    0    0 -0.98462171654E+02 -0.99667029386E+02 -0.32059295370E+03  0.35626305434E+03  0.67195282094E+02 0.  0.
          5    1    5    5  501    0  0.36415624753E+02 -0.10877159370E+02 -0.12861407357E+02  0.40396981586E+02  0.47000000000E+01 0. -1.
        -13    1    6    6    0    0 -0.36274357003E+02 -0.66572128549E+02 -0.22561082285E+03  0.23800823654E+03  0.00000000000E+00 0.  1.
         14    1    6    6    0    0 -0.62187814651E+02 -0.33094900837E+02 -0.94982130850E+02  0.11825481780E+03  0.00000000000E+00 0. -1.
         -5    1    3    3    0  503 -0.43075886851E+02  0.21365467168E+02 -0.40515231694E+02  0.63052273667E+02  0.47000000000E+01 0.  1.
         11    1    4    4    0    0  0.26455176705E+02  0.77891748364E+02 -0.35106141481E+02  0.89439599772E+02  0.00000000000E+00 0. -1.
        -12    1    4    4    0    0  0.78667257047E+02  0.11286973224E+02 -0.23032682760E+02  0.82743202567E+02  0.00000000000E+00 0.  1.
</event>
<event>
12    1  0.1032880E+000  0.3428450E+03  0.7818608E-02  0.1066427E+00
         21   -1    0    0  501  502  0.00000000000E+00  0.00000000000E+00  0.78689093449E+02  0.78689093449E+02  0.00000000000E+00 0.  1.
         21   -1    0    0  502  503 -0.00000000000E+00 -0.00000000000E+00 -0.16567462111E+04  0.16567462111E+04  0.00000000000E+00 0.  1.
         -6    2    1    2    0  503  0.13324577700E+03  0.25450634783E+03 -0.48182127319E+03  0.58683801222E+03  0.17233454416E+03 0.  0.
        -24    2    3    3    0    0  0.94632666382E+02  0.67767480768E+02 -0.24601350544E+03  0.28353985839E+03  0.79526306598E+02 0.  0.
          6    2    1    2  501    0 -0.13324577700E+03 -0.25450634783E+03 -0.10962358444E+04  0.11485972923E+04  0.18712240673E+03 0.  0.
         24    2    5    5    0    0 -0.13528318173E+03 -0.22619032624E+03 -0.10816782383E+04  0.11163488506E+04  0.82117854710E+02 0.  0.
          5    1    5    5  501    0  0.20374047206E+01 -0.28316021590E+02 -0.14557606131E+02  0.32248441714E+02  0.47000000000E+01 0. -1.
        -11    1    6    6    0    0  0.44553800245E+01 -0.35214336740E+02 -0.21655945824E+03  0.21944908037E+03  0.00000000000E+00 0.  1.
         12    1    6    6    0    0 -0.13973856175E+03 -0.19097598950E+03 -0.86511878004E+03  0.89689977020E+03  0.00000000000E+00 0. -1.
         -5    1    3    3    0  503  0.38613110622E+02  0.18673886706E+03 -0.23580776775E+03  0.30329815383E+03  0.47000000000E+01 0.  1.
         11    1    4    4    0    0 -0.29251117842E-01 -0.10297844161E+02 -0.58838690163E+02  0.59733055423E+02  0.00000000000E+00 0. -1.
        -12    1    4    4    0    0  0.94661917500E+02  0.78065324928E+02 -0.18717481528E+03  0.22380680297E+03  0.00000000000E+00 0.  1.
</event>
<event>
12    1  0.1032880E+000  0.2317392E+03  0.7818608E-02  0.1125454E+00
         21   -1    0    0  501  502  0.00000000000E+00  0.00000000000E+00  0.26208243411E+03  0.26208243411E+03  0.00000000000E+00 0. -1.
         21   -1    0    0  502  503 -0.00000000000E+00 -0.00000000000E+00 -0.26253973095E+03  0.26253973095E+03  0.00000000000E+00 0. -1.
         -6    2    1    2    0  503 -0.13273332061E+03  0.79410768442E+02  0.12284334199E+03  0.26212241226E+03  0.17231792651E+03 0.  0.
        -24    2    3    3    0    0 -0.15569097385E+03  0.62787882580E+02  0.62281331540E+02  0.19509091753E+03  0.77456467182E+02 0.  0.
          6    2    1    2  501    0  0.13273332061E+03 -0.79410768442E+02 -0.12330063882E+03  0.26249975280E+03  0.17256554738E+03 0.  0.
         24    2    5    5    0    0  0.89272232562E+02 -0.11619730404E+03 -0.12024101211E+03  0.20528466134E+03  0.78819707019E+02 0.  0.
          5    1    5    5  501    0  0.43461088049E+02  0.36786535597E+02 -0.30596267115E+01  0.57215091465E+02  0.47000000000E+01 0. -1.
        -11    1    6    6    0    0  0.35584627323E+02 -0.67890627750E+02 -0.10737376951E+03  0.13192622718E+03  0.00000000000E+00 0.  1.
         12    1    6    6    0    0  0.53687605240E+02 -0.48306676289E+02 -0.12867242599E+02  0.73358434161E+02  0.00000000000E+00 0. -1.
         -5    1    3    3    0  503  0.22957653238E+02  0.16622885862E+02  0.60562010445E+02  0.67031494730E+02  0.47000000000E+01 0.  1.
         13    1    4    4    0    0 -0.31202444355E+02  0.47214216187E+02  0.39391156304E+01  0.56729986566E+02  0.00000000000E+00 0. -1.
        -14    1    4    4    0    0 -0.12448852950E+03  0.15573666393E+02  0.58342215910E+02  0.13836093097E+03  0.00000000000E+00 0.  1.
</event>
<event>
12    1  0.1032880E+000  0.1804816E+03  0.7818608E-02  0.1170112E+00
         21   -1    0    0  503  502  0.00000000000E+00  0.00000000000E+00  0.17870944456E+04  0.17870944456E+04  0.00000000000E+00 0.  1.
         21   -1    0    0  501  503 -0.00000000000E+00 -0.00000000000E+00 -0.19467337155E+02  0.19467337155E+02  0.00000000000E+00 0.  1.
          6    2    1    2  501    0  0.46810604144E+02 -0.24895894791E+02  0.12219544383E+04  0.12352110222E+04  0.17251835162E+03 0.  0.
         24    2    3    3    0    0 -0.18683825756E+02 -0.38763598085E+02  0.39539008793E+03  0.40592666266E+03  0.81187634174E+02 0.  0.
         -6    2    1    2    0  502 -0.46810604144E+02  0.24895894791E+02  0.54567267012E+03  0.57135076061E+03  0.16084772456E+03 0.  0.
        -24    2    5    5    0    0 -0.61577820307E+02 -0.63163196799E+01  0.19503625936E+03  0.21898694925E+03  0.78002677062E+02 0.  0.
          5    1    3    3  501    0  0.65494429900E+02  0.13867703294E+02  0.82656435042E+03  0.82928435951E+03  0.47000000000E+01 0. -1.
        -13    1    4    4    0    0  0.90458194708E+01 -0.52314278214E+02  0.32143391168E+03  0.32578884286E+03  0.00000000000E+00 0.  1.
         14    1    4    4    0    0 -0.27729645227E+02  0.13550680129E+02  0.73956176250E+02  0.80137819798E+02  0.00000000000E+00 0. -1.
         -5    1    5    5    0  502  0.14767216164E+02  0.31212214471E+02  0.35063641076E+03  0.35236381136E+03  0.47000000000E+01 0.  1.
         11    1    6    6    0    0 -0.54370523756E+02  0.24237901722E+02  0.16551301651E+03  0.17589254779E+03  0.00000000000E+00 0. -1.
        -12    1    6    6    0    0 -0.72072965513E+01 -0.30554221402E+02  0.29523242855E+02  0.43094401467E+02  0.00000000000E+00 0.  1.
</event>
<event>
12    1  0.1032880E+000  0.2244775E+03  0.7818608E-02  0.1130791E+00
         21   -1    0    0  501  502  0.00000000000E+00  0.00000000000E+00  0.61376551498E+03  0.61376551498E+03  0.00000000000E+00 0.  1.
         21   -1    0    0  502  503 -0.00000000000E+00 -0.00000000000E+00 -0.82127831015E+02  0.82127831015E+02  0.00000000000E+00 0.  1.
         -6    2    1    2    0  503 -0.13379522442E+03  0.49113759467E+02  0.23987047208E+03  0.32776531128E+03  0.17198526815E+03 0.  0.
        -24    2    3    3    0    0 -0.13608556378E+03  0.41928142122E+02  0.10659846336E+03  0.19419736206E+03  0.77923894094E+02 0.  0.
          6    2    1    2  501    0  0.13379522442E+03 -0.49113759467E+02  0.29176721189E+03  0.36812803471E+03  0.17342670083E+03 0.  0.
         24    2    5    5    0    0  0.47544712049E+02 -0.29767597111E+02  0.25366632281E+03  0.27175795309E+03  0.79744418361E+02 0.  0.
          5    1    5    5  501    0  0.86250512372E+02 -0.19346162356E+02  0.38100889076E+02  0.96370081616E+02  0.47000000000E+01 0. -1.
        -13    1    6    6    0    0  0.48939592020E+02  0.13240645621E+02  0.17371564366E+03  0.18096276749E+03  0.00000000000E+00 0.  1.
         14    1    6    6    0    0 -0.13948799709E+01 -0.43008242732E+02  0.79950679147E+02  0.90795185606E+02  0.00000000000E+00 0. -1.
         -5    1    3    3    0  503  0.22903393590E+01  0.71856173454E+01  0.13327200872E+03  0.13356794922E+03  0.47000000000E+01 0.  1.
         13    1    4    4    0    0 -0.41659220354E+02  0.52685976661E+02  0.47855345110E+02  0.82470824131E+02  0.00000000000E+00 0. -1.
        -14    1    4    4    0    0 -0.94426343426E+02 -0.10757834539E+02  0.58743118249E+02  0.11172653793E+03  0.00000000000E+00 0.  1.
</event>
<event>
12    1  0.1032880E+000  0.2603460E+03  0.7818608E-02  0.1106986E+00
         21   -1    0    0  503  502  0.00000000000E+00  0.00000000000E+00  0.81386830881E+03  0.81386830881E+03  0.00000000000E+00 0.  1.
         21   -1    0    0  501  503 -0.00000000000E+00 -0.00000000000E+00 -0.86888694493E+02  0.86888694493E+02  0.00000000000E+00 0. -1.
          6    2    1    2  501    0  0.16507331129E+03 -0.10419955270E+03  0.27013146505E+03  0.37493357223E+03  0.17174815950E+03 0.  0.
         24    2    3    3    0    0  0.92983145414E+02 -0.11992184489E+03  0.12830378564E+03  0.21499182304E+03  0.82051863782E+02 0.  0.
         -6    2    1    2    0  502 -0.16507331129E+03  0.10419955270E+03  0.45684814927E+03  0.52582343108E+03  0.17225940988E+03 0.  0.
        -24    2    5    5    0    0 -0.30010109131E+02  0.27494404653E+01  0.22432256159E+03  0.23837877070E+03  0.74804148355E+02 0.  0.
          5    1    3    3  501    0  0.72090165878E+02  0.15722292194E+02  0.14182767941E+03  0.15994174919E+03  0.47000000000E+01 0. -1.
        -13    1    4    4    0    0  0.10376149237E+03 -0.92930946991E+02  0.86121823561E+02  0.16376683639E+03  0.00000000000E+00 0.  1.
         14    1    4    4    0    0 -0.10778346953E+02 -0.26990897900E+02  0.42181962077E+02  0.51224986649E+02  0.00000000000E+00 0. -1.
         -5    1    5    5    0  502 -0.13506320216E+03  0.10145011223E+03  0.23252558769E+03  0.28744466038E+03  0.47000000000E+01 0.  1.
         11    1    6    6    0    0  0.14538020119E+02  0.55582014169E+00  0.63230309849E+01  0.15863281055E+02  0.00000000000E+00 0. -1.
        -12    1    6    6    0    0 -0.44548129249E+02  0.21936203236E+01  0.21799953060E+03  0.22251548964E+03  0.00000000000E+00 0.  1.
</event>
<event>
12    1  0.1032880E+000  0.2129279E+03  0.7818608E-02  0.1139348E+00
         21   -1    0    0  503  502  0.00000000000E+00  0.00000000000E+00  0.47475028695E+03  0.47475028695E+03  0.00000000000E+00 0. -1.
         21   -1    0    0  501  503 -0.00000000000E+00 -0.00000000000E+00 -0.10449660661E+03  0.10449660661E+03  0.00000000000E+00 0. -1.
          6    2    1    2  501    0 -0.46592568305E+02  0.11604943936E+03  0.27114014864E+03  0.34475392556E+03  0.17233673198E+03 0.  0.
         24    2    3    3    0    0 -0.65755294920E+01  0.10040781548E+02  0.18145907060E+03  0.20017182195E+03  0.83649920010E+02 0.  0.
         -6    2    1    2    0  502  0.46592568305E+02 -0.11604943936E+03  0.99113531692E+02  0.23449296800E+03  0.17182875219E+03 0.  0.
        -24    2    5    5    0    0 -0.41129887204E+02 -0.60173883142E+02  0.54378581337E+02  0.12117654039E+03  0.80088451091E+02 0.  0.
          5    1    3    3  501    0 -0.40017038813E+02  0.10600865781E+03  0.89681078043E+02  0.14458210361E+03  0.47000000000E+01 0. -1.
        -13    1    4    4    0    0 -0.15750048957E+02  0.16161316577E+02  0.18663117253E+03  0.18799054965E+03  0.00000000000E+00 0.  1.
         14    1    4    4    0    0  0.91745194651E+01 -0.61205350291E+01 -0.51721019347E+01  0.12181272301E+02  0.00000000000E+00 0. -1.
         -5    1    5    5    0  502  0.87722455510E+02 -0.55875556216E+02  0.44734950356E+02  0.11331642761E+03  0.47000000000E+01 0.  1.
         13    1    6    6    0    0 -0.42834259049E+02  0.91155560596E+00  0.60553985560E+01  0.43269764658E+02  0.00000000000E+00 0. -1.
        -14    1    6    6    0    0  0.17043718450E+01 -0.61085438748E+02  0.48323182781E+02  0.77906775729E+02  0.00000000000E+00 0.  1.
</event>
<event>
12    1  0.1032880E+000  0.2012290E+03  0.7818608E-02  0.1149084E+00
         21   -1    0    0  503  502  0.00000000000E+00  0.00000000000E+00  0.77653569720E+03  0.77653569720E+03  0.00000000000E+00 0.  1.
         21   -1    0    0  501  503 -0.00000000000E+00 -0.00000000000E+00 -0.60732731420E+02  0.60732731420E+02  0.00000000000E+00 0.  1.
          6    2    1    2  501    0 -0.72944632546E+02  0.74839318254E+02  0.19492281052E+03  0.27886960083E+03  0.16985732022E+03 0.  0.
         24    2    3    3    0    0 -0.32966208642E+02 -0.24958630213E+02  0.61762640350E+02  0.10766321714E+03  0.77891209050E+02 0.  0.
         -6    2    1    2    0  502  0.72944632546E+02 -0.74839318254E+02  0.52088015526E+03  0.55839882779E+03  0.17196299533E+03 0.  0.
        -24    2    5    5    0    0  0.10669466052E+03 -0.29120904874E+02  0.43068338226E+03  0.45168994545E+03  0.79396809664E+02 0.  0.
          5    1    3    3  501    0 -0.39978423903E+02  0.99797948467E+02  0.13316017017E+03  0.17120638369E+03  0.47000000000E+01 0. -1.
        -13    1    4    4    0    0 -0.30528793340E+01  0.25977848132E+02  0.69142613941E+01  0.27055049000E+02  0.00000000000E+00 0.  1.
         14    1    4    4    0    0 -0.29913329308E+02 -0.50936478345E+02  0.54848378956E+02  0.80608168138E+02  0.00000000000E+00 0. -1.
         -5    1    5    5    0  502 -0.33750027978E+02 -0.45718413381E+02  0.90196773002E+02  0.10670888234E+03  0.47000000000E+01 0.  1.
         11    1    6    6    0    0  0.60054264737E+02 -0.96063717512E+01  0.99096966149E+02  0.11627125952E+03  0.00000000000E+00 0. -1.
        -12    1    6    6    0    0  0.46640395787E+02 -0.19514533122E+02  0.33158641611E+03  0.33541868593E+03  0.00000000000E+00 0.  1.
</event>
<event>
12    1  0.1032880E+000  0.1958571E+03  0.7818608E-02  0.1153294E+00
         21   -1    0    0  503  502  0.00000000000E+00  0.00000000000E+00  0.20951572817E+03  0.20951572817E+03  0.00000000000E+00 0.  1.
         21   -1    0    0  501  503 -0.00000000000E+00 -0.00000000000E+00 -0.27120940948E+03  0.27120940948E+03  0.00000000000E+00 0.  1.
          6    2    1    2  501    0 -0.94763977226E+02  0.84044889091E+01  0.10620746803E+03  0.22275073860E+03  0.17113450403E+03 0.  0.
         24    2    3    3    0    0 -0.64964256476E+02  0.78432140186E+02  0.58671247349E+02  0.13289709329E+03  0.62027146513E+02 0.  0.
         -6    2    1    2    0  502  0.94763977226E+02 -0.84044889091E+01 -0.16790114934E+03  0.25797439905E+03  0.17119914662E+03 0.  0.
        -24    2    5    5    0    0 -0.19516988674E+02 -0.10319967598E+02 -0.66015819036E+02  0.10478654458E+03  0.78324434144E+02 0.  0.
          5    1    3    3  501    0 -0.29799720750E+02 -0.70027651277E+02  0.47536220684E+02  0.89853645319E+02  0.47000000000E+01 0. -1.
        -11    1    4    4    0    0  0.42929515062E+01  0.12195404435E+01 -0.83061933724E+01  0.94291865963E+01  0.00000000000E+00 0.  1.
         12    1    4    4    0    0 -0.69257207983E+02  0.77212599743E+02  0.66977440722E+02  0.12346790669E+03  0.00000000000E+00 0. -1.
         -5    1    5    5    0  502  0.11428096590E+03  0.19154786893E+01 -0.10188533031E+03  0.15318785447E+03  0.47000000000E+01 0.  1.
         11    1    6    6    0    0  0.17883651382E+02  0.24363060408E+02 -0.21547189325E+02  0.37116910795E+02  0.00000000000E+00 0. -1.
        -12    1    6    6    0    0 -0.37400640056E+02 -0.34683028006E+02 -0.44468629712E+02  0.67669633786E+02  0.00000000000E+00 0.  1.
</event>
<event>
12    1  0.1032880E+000  0.2951974E+03  0.7818608E-02  0.1087999E+00
         21   -1    0    0  503  502  0.00000000000E+00  0.00000000000E+00  0.98113644144E+02  0.98113644144E+02  0.00000000000E+00 0.  1.
         21   -1    0    0  501  503 -0.00000000000E+00 -0.00000000000E+00 -0.10504635544E+04  0.10504635544E+04  0.00000000000E+00 0.  1.
          6    2    1    2  501    0  0.15066705422E+03  0.18684510590E+03 -0.70902775344E+03  0.76802464166E+03  0.17184248665E+03 0.  0.
         24    2    3    3    0    0  0.15635934252E+03  0.18364374050E+03 -0.71514588152E+03  0.75791660635E+03  0.69503114314E+02 0.  0.
         -6    2    1    2    0  502 -0.15066705422E+03 -0.18684510590E+03 -0.24332215681E+03  0.38055255688E+03  0.16734073541E+03 0.  0.
        -24    2    5    5    0    0 -0.10412644125E+03 -0.16984088068E+03 -0.25107947721E+03  0.33017956461E+03  0.79305740591E+02 0.  0.
          5    1    3    3  501    0 -0.56922883068E+01  0.32013654098E+01  0.61181280815E+01  0.10108035312E+02  0.47000000000E+01 0. -1.
        -13    1    4    4    0    0  0.12145467566E+01  0.24863405309E+00 -0.61759005118E+02  0.61771446930E+02  0.00000000000E+00 0.  1.
         14    1    4    4    0    0  0.15514479577E+03  0.18339510644E+03 -0.65338687641E+03  0.69614515942E+03  0.00000000000E+00 0. -1.
         -5    1    5    5    0  502 -0.46540612967E+02 -0.17004225222E+02  0.77573204007E+01  0.50372992273E+02  0.47000000000E+01 0.  1.
         11    1    6    6    0    0 -0.99216286848E+02 -0.13924601452E+03 -0.24474517094E+03  0.29855237871E+03  0.00000000000E+00 0. -1.
        -12    1    6    6    0    0 -0.49101544013E+01 -0.30594866166E+02 -0.63343062700E+01  0.31627185899E+02  0.00000000000E+00 0.  1.
</event>
<event>
12    1  0.1032880E+000  0.2710051E+03  0.7818608E-02  0.1100985E+00
         21   -1    0    0  501  502  0.00000000000E+00  0.00000000000E+00  0.65487530025E+03  0.65487530025E+03  0.00000000000E+00 0.  1.
         21   -1    0    0  502  503 -0.00000000000E+00 -0.00000000000E+00 -0.13029783288E+03  0.13029783288E+03  0.00000000000E+00 0.  1.
         -6    2    1    2    0  503  0.60761086663E+02  0.19744152637E+03  0.41284048366E+03  0.49384311058E+03  0.17541005367E+03 0.  0.
        -24    2    3    3    0    0 -0.15562331566E+02  0.81794912031E+02  0.27599924952E+03  0.29904316976E+03  0.79489860054E+02 0.  0.
          6    2    1    2  501    0 -0.60761086663E+02 -0.19744152637E+03  0.11173698371E+03  0.29133002254E+03  0.17237448337E+03 0.  0.
         24    2    5    5    0    0 -0.54028877253E+02 -0.16637685397E+03  0.14849189203E+03  0.24251045883E+03  0.78492697318E+02 0.  0.
          5    1    5    5  501    0 -0.67322094108E+01 -0.31064672407E+02 -0.36754908320E+02  0.48819563711E+02  0.47000000000E+01 0. -1.
        -13    1    6    6    0    0 -0.32025585732E+02 -0.22315158597E+02  0.61340866293E+02  0.72706989501E+02  0.00000000000E+00 0.  1.
         14    1    6    6    0    0 -0.22003291520E+02 -0.14406169537E+03  0.87151025736E+02  0.16980346933E+03  0.00000000000E+00 0. -1.
         -5    1    3    3    0  503  0.76323418230E+02  0.11564661434E+03  0.13684123415E+03  0.19479994082E+03  0.47000000000E+01 0.  1.
         11    1    4    4    0    0  0.21350590114E+02  0.61419029444E+02  0.11008023748E+03  0.12785070809E+03  0.00000000000E+00 0. -1.
        -12    1    4    4    0    0 -0.36912921680E+02  0.20375882587E+02  0.16591901204E+03  0.17119246168E+03  0.00000000000E+00 0.  1.
</event>
<event>
12    1  0.1518287E+000  0.2207850E+03  0.7818608E-02  0.1133354E+00
         21   -1    0    0  503  502  0.00000000000E+00  0.00000000000E+00  0.84154054329E+03  0.84154054329E+03  0.00000000000E+00 0.  1.
         21   -1    0    0  501  503 -0.00000000000E+00 -0.00000000000E+00 -0.53891018083E+03  0.53891018083E+03  0.00000000000E+00 0. -1.
          6    2    1    2  501    0 -0.59986267306E+02  0.12525131972E+03  0.80345483626E+03  0.83323806375E+03  0.17163843283E+03 0.  0.
         24    2    3    3    0    0 -0.13879386954E+02  0.94188962963E+02  0.73231227734E+03  0.74282751065E+03  0.80294712836E+02 0.  0.
         -6    2    1    2    0  502  0.59986267306E+02 -0.12525131972E+03 -0.50082447379E+03  0.54721266037E+03  0.17126090260E+03 0.  0.
        -24    2    5    5    0    0  0.70370983736E+02 -0.15516407984E+03 -0.42964334894E+03  0.46916486675E+03  0.80587206645E+02 0.  0.
          5    1    3    3  501    0 -0.46106880351E+02  0.31062356754E+02  0.71142558918E+02  0.90410553102E+02  0.47000000000E+01 0. -1.
        -13    1    4    4    0    0 -0.18485753116E+02 -0.42039243782E+01  0.24063922234E+03  0.24138482011E+03  0.00000000000E+00 0.  1.
         14    1    4    4    0    0  0.46063661618E+01  0.98392887342E+02  0.49167305500E+03  0.50144269054E+03  0.00000000000E+00 0. -1.
         -5    1    5    5    0  502 -0.10384716430E+02  0.29912760124E+02 -0.71181124851E+02  0.78047793618E+02  0.47000000000E+01 0.  1.
         11    1    6    6    0    0  0.32541201089E+02 -0.49958821336E+02 -0.25442081386E+03  0.26131353605E+03  0.00000000000E+00 0. -1.
        -12    1    6    6    0    0  0.37829782647E+02 -0.10520525851E+03 -0.17522253509E+03  0.20785133070E+03  0.00000000000E+00 0.  1.
</event>
<event>
12    1  0.1032880E+000  0.3453502E+03  0.7818608E-02  0.1064656E+00
         21   -1    0    0  503  502  0.00000000000E+00  0.00000000000E+00  0.12705366011E+03  0.12705366011E+03  0.00000000000E+00 0. -1.
         21   -1    0    0  501  503 -0.00000000000E+00 -0.00000000000E+00 -0.10368480292E+04  0.10368480292E+04  0.00000000000E+00 0. -1.
          6    2    1    2  501    0  0.23219945806E+03  0.18804478906E+03 -0.63731685255E+03  0.72487208245E+03  0.17317428893E+03 0.  0.
         24    2    3    3    0    0  0.53526647604E+02  0.81330963403E+02 -0.33413074055E+03  0.35710079171E+03  0.79986224092E+02 0.  0.
         -6    2    1    2    0  502 -0.23219945806E+03 -0.18804478906E+03 -0.27247751658E+03  0.43902960691E+03  0.17095487033E+03 0.  0.
        -24    2    5    5    0    0 -0.15832778799E+03 -0.50942963427E+02 -0.11877840078E+03  0.22017019444E+03  0.81876321696E+02 0.  0.
          5    1    3    3  501    0  0.17867281045E+03  0.10671382566E+03 -0.30318611200E+03  0.36777129074E+03  0.47000000000E+01 0. -1.
        -11    1    4    4    0    0  0.74409284559E+02  0.55809025179E+02 -0.24923477811E+03  0.26602511825E+03  0.00000000000E+00 0.  1.
         12    1    4    4    0    0 -0.20882636955E+02  0.25521938224E+02 -0.84895962444E+02  0.91075673460E+02  0.00000000000E+00 0. -1.
         -5    1    5    5    0  502 -0.73871670066E+02 -0.13710182564E+03 -0.15369911580E+03  0.21885941247E+03  0.47000000000E+01 0.  1.
         13    1    6    6    0    0 -0.10817047651E+02 -0.31964004284E+02 -0.38374485137E+02  0.51100951061E+02  0.00000000000E+00 0. -1.
        -14    1    6    6    0    0 -0.14751074034E+03 -0.18978959143E+02 -0.80403915645E+02  0.16906924338E+03  0.00000000000E+00 0.  1.
</event>
<event>
12    1  0.1032880E+000  0.3625455E+03  0.7818608E-02  0.1057590E+00
         21   -1    0    0  503  502  0.00000000000E+00  0.00000000000E+00  0.63439639377E+03  0.63439639377E+03  0.00000000000E+00 0. -1.
         21   -1    0    0  501  503 -0.00000000000E+00 -0.00000000000E+00 -0.47756654127E+03  0.47756654127E+03  0.00000000000E+00 0.  1.
          6    2    1    2  501    0 -0.81183634100E+02 -0.30890719856E+03 -0.33996191458E+03  0.49700434000E+03  0.17153650002E+03 0.  0.
         24    2    3    3    0    0 -0.55862383573E+02 -0.74206307308E+02 -0.81119935648E+02  0.14665175453E+03  0.79366940247E+02 0.  0.
         -6    2    1    2    0  502  0.81183634100E+02  0.30890719856E+03  0.49679176708E+03  0.61495859504E+03  0.17134052063E+03 0.  0.
        -24    2    5    5    0    0  0.26416114801E+02  0.12230303165E+03  0.31712065933E+03  0.35014848716E+03  0.79891224864E+02 0.  0.
          5    1    3    3  501    0 -0.25321250527E+02 -0.23470089126E+03 -0.25884197893E+03  0.35035258547E+03  0.47000000000E+01 0. -1.
        -13    1    4    4    0    0 -0.36003042890E+02 -0.41152435796E+01 -0.61205747440E+02  0.71128741354E+02  0.00000000000E+00 0.  1.
         14    1    4    4    0    0 -0.19859340683E+02 -0.70091063728E+02 -0.19914188208E+02  0.75523013174E+02  0.00000000000E+00 0. -1.
         -5    1    5    5    0  502  0.54767519299E+02  0.18660416691E+03  0.17967110775E+03  0.26481010789E+03  0.47000000000E+01 0.  1.
         13    1    6    6    0    0  0.22015378305E+02  0.13406201766E+03  0.29249540199E+03  0.32250714976E+03  0.00000000000E+00 0. -1.
        -14    1    6    6    0    0  0.44007364958E+01 -0.11758986014E+02  0.24625257339E+02  0.27641337391E+02  0.00000000000E+00 0.  1.
</event>
<event>
12    1  0.1032880E+000  0.2395091E+03  0.7818608E-02  0.1120306E+00
         21   -1    0    0  503  502  0.00000000000E+00  0.00000000000E+00  0.41079478775E+03  0.41079478775E+03  0.00000000000E+00 0.  1.
         21   -1    0    0  501  503 -0.00000000000E+00 -0.00000000000E+00 -0.22611117442E+03  0.22611117442E+03  0.00000000000E+00 0. -1.
          6    2    1    2  501    0 -0.23303752091E+02  0.16462356692E+03  0.29013786291E+03  0.37622409548E+03  0.17239665565E+03 0.  0.
         24    2    3    3    0    0 -0.43129704002E+02  0.10594014729E+03  0.28037175926E+03  0.31334103823E+03  0.80565480674E+02 0.  0.
         -6    2    1    2    0  502  0.23303752091E+02 -0.16462356692E+03 -0.10545424959E+03  0.26068186669E+03  0.17085213846E+03 0.  0.
        -24    2    5    5    0    0 -0.48292532208E+02 -0.11129971185E+03 -0.87676806402E+02  0.16953589074E+03  0.79595234431E+02 0.  0.
          5    1    3    3  501    0  0.19825951911E+02  0.58683419631E+02  0.97661036542E+01  0.62883057252E+02  0.47000000000E+01 0. -1.
        -13    1    4    4    0    0 -0.53350407158E+00  0.65513269838E+02  0.21817886184E+03  0.22780318019E+03  0.00000000000E+00 0.  1.
         14    1    4    4    0    0 -0.42596199931E+02  0.40426877449E+02  0.62192897416E+02  0.85537858039E+02  0.00000000000E+00 0. -1.
         -5    1    5    5    0  502  0.71596284299E+02 -0.53323855067E+02 -0.17777443186E+02  0.91145975945E+02  0.47000000000E+01 0.  1.
         11    1    6    6    0    0 -0.18996755538E+01 -0.18852276816E+02 -0.59336762178E+02  0.62288590080E+02  0.00000000000E+00 0. -1.
        -12    1    6    6    0    0 -0.46392856655E+02 -0.92447435035E+02 -0.28340044224E+02  0.10724730066E+03  0.00000000000E+00 0.  1.
</event>
<event>
12    1  0.1032880E+000  0.1790162E+03  0.7818608E-02  0.1168787E+00
         21   -1    0    0  501  502  0.00000000000E+00  0.00000000000E+00  0.11436262588E+03  0.11436262588E+03  0.00000000000E+00 0.  1.
         21   -1    0    0  502  503 -0.00000000000E+00 -0.00000000000E+00 -0.28212380016E+03  0.28212380016E+03  0.00000000000E+00 0.  1.
         -6    2    1    2    0  503 -0.44789718821E+02 -0.18424162997E+02 -0.66806261036E+02  0.19096588118E+03  0.17221882175E+03 0.  0.
        -24    2    3    3    0    0 -0.44072478678E+02  0.53116500998E+02 -0.47550360786E+02  0.11672666827E+03  0.81242428692E+02 0.  0.
          6    2    1    2  501    0  0.44789718821E+02  0.18424162997E+02 -0.10095491325E+03  0.20552054486E+03  0.17234045131E+03 0.  0.
         24    2    5    5    0    0 -0.26843955936E+02  0.51782490929E+02 -0.50789188116E+02  0.11180367669E+03  0.80737204285E+02 0.  0.
          5    1    5    5  501    0  0.71633674757E+02 -0.33358327932E+02 -0.50165725131E+02  0.93716868170E+02  0.47000000000E+01 0. -1.
        -13    1    6    6    0    0  0.17343441783E+01  0.67128281996E+02 -0.35100126539E+02  0.75770925008E+02  0.00000000000E+00 0.  1.
         14    1    6    6    0    0 -0.28578300114E+02 -0.15345791067E+02 -0.15689061577E+02  0.36032751686E+02  0.00000000000E+00 0. -1.
         -5    1    3    3    0  503 -0.71724014353E+00 -0.71540663995E+02 -0.19255900250E+02  0.74239212904E+02  0.47000000000E+01 0.  1.
         13    1    4    4    0    0  0.18737291929E+02  0.37428483278E+02 -0.19299980314E+02  0.46091937575E+02  0.00000000000E+00 0. -1.
        -14    1    4    4    0    0 -0.62809770606E+02  0.15688017719E+02 -0.28250380472E+02  0.70634730695E+02  0.00000000000E+00 0.  1.
</event>
<event>
12    1  0.1032880E+000  0.1822607E+03  0.7818608E-02  0.1167072E+00
         21   -1    0    0  501  502  0.00000000000E+00  0.00000000000E+00  0.38022920512E+03  0.38022920512E+03  0.00000000000E+00 0.  1.
         21   -1    0    0  502  503 -0.00000000000E+00 -0.00000000000E+00 -0.11469099123E+03  0.11469099123E+03  0.00000000000E+00 0.  1.
         -6    2    1    2    0  503 -0.39557507926E+02 -0.85939013700E+01  0.75269934140E+01  0.18241610134E+03  0.17770854460E+03 0.  0.
        -24    2    3    3    0    0 -0.44215155126E+02  0.38151681482E+02 -0.45203113110E+02  0.11163900527E+03  0.83722251050E+02 0.  0.
          6    2    1    2  501    0  0.39557507926E+02  0.85939013700E+01  0.25801122047E+03  0.31250409502E+03  0.17161109503E+03 0.  0.
         24    2    5    5    0    0 -0.23943982947E+02  0.27524909064E+02  0.66531159135E+02  0.10982818060E+03  0.79403395262E+02 0.  0.
          5    1    5    5  501    0  0.63501490874E+02 -0.18931007694E+02  0.19148006134E+03  0.20267591442E+03  0.47000000000E+01 0. -1.
        -13    1    6    6    0    0 -0.13381259892E+02  0.53117442422E+02  0.25727270989E+02  0.60517875692E+02  0.00000000000E+00 0.  1.
         14    1    6    6    0    0 -0.10562723055E+02 -0.25592533358E+02  0.40803888146E+02  0.49310304905E+02  0.00000000000E+00 0. -1.
         -5    1    3    3    0  503  0.46576471992E+01 -0.46745582852E+02  0.52730106524E+02  0.70777096067E+02  0.47000000000E+01 0.  1.
         13    1    4    4    0    0 -0.69193281583E+02  0.29335566407E+02 -0.28807461852E+02  0.80486989825E+02  0.00000000000E+00 0. -1.
        -14    1    4    4    0    0  0.24978126458E+02  0.88161150746E+01 -0.16395651258E+02  0.31152015449E+02  0.00000000000E+00 0.  1.
</event>
<event>
12    1  0.1032880E+000  0.2174730E+03  0.7818608E-02  0.1135949E+00
         21   -1    0    0  503  502  0.00000000000E+00  0.00000000000E+00  0.16004541826E+03  0.16004541826E+03  0.00000000000E+00 0.  1.
         21   -1    0    0  501  503 -0.00000000000E+00 -0.00000000000E+00 -0.29516959129E+03  0.29516959129E+03  0.00000000000E+00 0.  1.
          6    2    1    2  501    0  0.13216189454E+03  0.58972711709E+01 -0.55099106253E+02  0.22348563460E+03  0.17148869696E+03 0.  0.
         24    2    3    3    0    0  0.24283532414E+02  0.21053216112E+02 -0.47097593622E+02  0.11415330687E+03  0.98893206487E+02 0.  0.
         -6    2    1    2    0  502 -0.13216189454E+03 -0.58972711709E+01 -0.80025066778E+02  0.23172937495E+03  0.17260633745E+03 0.  0.
        -24    2    5    5    0    0 -0.25746901610E+02 -0.32652901727E+02 -0.83723419304E+02  0.12183951055E+03  0.78141797126E+02 0.  0.
          5    1    3    3  501    0  0.10787836212E+03 -0.15155944941E+02 -0.80015126305E+01  0.10933232772E+03  0.47000000000E+01 0. -1.
        -11    1    4    4    0    0  0.48719711451E+02  0.46387186915E+02 -0.39940737495E+02  0.78234544195E+02  0.00000000000E+00 0.  1.
         12    1    4    4    0    0 -0.24436179037E+02 -0.25333970803E+02 -0.71568561276E+01  0.35918762676E+02  0.00000000000E+00 0. -1.
         -5    1    5    5    0  502 -0.10641499293E+03  0.26755630556E+02  0.36983525261E+01  0.10988986440E+03  0.47000000000E+01 0.  1.
         13    1    6    6    0    0 -0.25272884903E+01  0.25626683106E+02 -0.25845201782E+02  0.36484085973E+02  0.00000000000E+00 0. -1.
        -14    1    6    6    0    0 -0.23219613120E+02 -0.58279584833E+02 -0.57878217522E+02  0.85355424580E+02  0.00000000000E+00 0.  1.
</event>
<event>
12    1  0.1032880E+000  0.2198604E+03  0.7818608E-02  0.1134302E+00
         21   -1    0    0  503  502  0.00000000000E+00  0.00000000000E+00  0.16388921579E+03  0.16388921579E+03  0.00000000000E+00 0. -1.
         21   -1    0    0  501  503 -0.00000000000E+00 -0.00000000000E+00 -0.35950802027E+03  0.35950802027E+03  0.00000000000E+00 0. -1.
          6    2    1    2  501    0  0.51009465127E+02 -0.12425605813E+03  0.14700129992E+02  0.22035131814E+03  0.17406055288E+03 0.  0.
         24    2    3    3    0    0 -0.13389233082E+02 -0.74295725787E+02  0.63365398341E+02  0.12530593170E+03  0.77377492726E+02 0.  0.
         -6    2    1    2    0  502 -0.51009465127E+02  0.12425605813E+03 -0.21031893447E+03  0.30304591791E+03  0.17193382637E+03 0.  0.
        -24    2    5    5    0    0 -0.37771857704E+02  0.15521446242E+03 -0.19903979598E+03  0.26722740299E+03  0.79217434603E+02 0.  0.
          5    1    3    3  501    0  0.64398698209E+02 -0.49960332347E+02 -0.48665268349E+02  0.95045386436E+02  0.47000000000E+01 0. -1.
        -11    1    4    4    0    0 -0.31147067069E+02 -0.12201588819E+02 -0.18765507133E+01  0.33504328068E+02  0.00000000000E+00 0.  1.
         12    1    4    4    0    0  0.17757833987E+02 -0.62094136968E+02  0.65241949054E+02  0.91801603636E+02  0.00000000000E+00 0. -1.
         -5    1    5    5    0  502 -0.13237607423E+02 -0.30958404287E+02 -0.11279138488E+02  0.35818514923E+02  0.47000000000E+01 0.  1.
         13    1    6    6    0    0  0.98260103641E+01  0.10760974094E+03 -0.14537598745E+03  0.18113692211E+03  0.00000000000E+00 0. -1.
        -14    1    6    6    0    0 -0.47597868068E+02  0.47604721485E+02 -0.53663808537E+02  0.86090480885E+02  0.00000000000E+00 0.  1.
</event>
<event>
12    1  0.1032880E+000  0.2144889E+03  0.7818608E-02  0.1138301E+00
         21   -1    0    0  501  502  0.00000000000E+00  0.00000000000E+00  0.30615456537E+03  0.30615456537E+03  0.00000000000E+00 0.  1.
         21   -1    0    0  502  503 -0.00000000000E+00 -0.00000000000E+00 -0.15594281249E+03  0.15594281249E+03  0.00000000000E+00 0.  1.
         -6    2    1    2    0  503 -0.75577215629E+02  0.10167376968E+03  0.27553590652E+02  0.21501334873E+03  0.17152862389E+03 0.  0.
        -24    2    3    3    0    0 -0.99902903880E+02  0.12111008441E+03  0.41638607638E+02  0.18051715847E+03  0.78768192229E+02 0.  0.
          6    2    1    2  501    0  0.75577215629E+02 -0.10167376968E+03  0.12265816223E+03  0.24708402912E+03  0.17307807984E+03 0.  0.
         24    2    5    5    0    0  0.38847999077E+02 -0.11685401759E+03  0.35421856984E+02  0.15110622842E+03  0.80089673833E+02 0.  0.
          5    1    5    5  501    0  0.36729216552E+02  0.15180247910E+02  0.87236305242E+02  0.95977800701E+02  0.47000000000E+01 0. -1.
        -13    1    6    6    0    0  0.14635868675E+02  0.92489003868E+01  0.10666852868E+02  0.20335500003E+02  0.00000000000E+00 0.  1.
         14    1    6    6    0    0  0.24212130402E+02 -0.12610291798E+03  0.24755004115E+02  0.13077072841E+03  0.00000000000E+00 0. -1.
         -5    1    3    3    0  503  0.24325688251E+02 -0.19436314729E+02 -0.14085016985E+02  0.34496190263E+02  0.47000000000E+01 0.  1.
         11    1    4    4    0    0 -0.46249192684E+02  0.58451792493E+02 -0.20427572186E+02  0.77284445880E+02  0.00000000000E+00 0. -1.
        -12    1    4    4    0    0 -0.53653711196E+02  0.62658291918E+02  0.62066179823E+02  0.10323271259E+03  0.00000000000E+00 0.  1.
</event>
<event>
12    1  0.1032880E+000  0.1747463E+03  0.7818608E-02  0.1173126E+00
         21   -1    0    0  501  502  0.00000000000E+00  0.00000000000E+00  0.54758956863E+02  0.54758956863E+02  0.00000000000E+00 0. -1.
         21   -1    0    0  502  503 -0.00000000000E+00 -0.00000000000E+00 -0.57686932838E+03  0.57686932838E+03  0.00000000000E+00 0. -1.
         -6    2    1    2    0  503  0.31563276911E+02 -0.54803775654E+01 -0.20122085813E+03  0.26650720355E+03  0.17178469317E+03 0.  0.
        -24    2    3    3    0    0  0.30929981247E+02 -0.51522501616E+02 -0.19552312756E+03  0.21987210535E+03  0.80642528385E+02 0.  0.
          6    2    1    2  501    0 -0.31563276911E+02  0.54803775654E+01 -0.32088951339E+03  0.36512108170E+03  0.17122222260E+03 0.  0.
         24    2    5    5    0    0 -0.66212113054E+02 -0.86645700402E+01 -0.11092455305E+03  0.15179504963E+03  0.79236115084E+02 0.  0.
          5    1    5    5  501    0  0.34648836143E+02  0.14144947606E+02 -0.20996496034E+03  0.21332603207E+03  0.47000000000E+01 0. -1.
        -11    1    6    6    0    0 -0.41997420202E+02 -0.37698952067E+02 -0.95570056734E+02  0.11098932397E+03  0.00000000000E+00 0.  1.
         12    1    6    6    0    0 -0.24214692852E+02  0.29034382027E+02 -0.15354496312E+02  0.40805725660E+02  0.00000000000E+00 0. -1.
         -5    1    3    3    0  503  0.63329566431E+00  0.46042124051E+02 -0.56977305693E+01  0.46635098200E+02  0.47000000000E+01 0.  1.
         11    1    4    4    0    0  0.54609482223E+02 -0.36511034531E+02 -0.94912493090E+02  0.11542804051E+03  0.00000000000E+00 0. -1.
        -12    1    4    4    0    0 -0.23679500976E+02 -0.15011467085E+02 -0.10061063447E+03  0.10444406484E+03  0.00000000000E+00 0.  1.
</event>
<event>
12    1  0.1032880E+000  0.2154158E+03  0.7818608E-02  0.1137400E+00
         21   -1    0    0  503  502  0.00000000000E+00  0.00000000000E+00  0.29525178480E+03  0.29525178480E+03  0.00000000000E+00 0. -1.
         21   -1    0    0  501  503 -0.00000000000E+00 -0.00000000000E+00 -0.15701449518E+03  0.15701449518E+03  0.00000000000E+00 0. -1.
          6    2    1    2  501    0 -0.12461876376E+03 -0.36175744561E+02  0.65151917121E+02  0.22479006704E+03  0.17160210127E+03 0.  0.
         24    2    3    3    0    0 -0.96182325626E+02 -0.78218542764E+02  0.72142405150E+01  0.14762082275E+03  0.79816551213E+02 0.  0.
         -6    2    1    2    0  502  0.12461876376E+03  0.36175744561E+02  0.73085372492E+02  0.22747621294E+03  0.17194602352E+03 0.  0.
        -24    2    5    5    0    0  0.13380588811E+03 -0.20969030912E+02  0.45732006252E+02  0.16328723209E+03  0.78915067121E+02 0.  0.
          5    1    3    3  501    0 -0.28436438134E+02  0.42042798203E+02  0.57937676606E+02  0.77169244294E+02  0.47000000000E+01 0. -1.
        -11    1    4    4    0    0 -0.89665339916E+02 -0.28914459638E+02 -0.10571263725E+02  0.94803326814E+02  0.00000000000E+00 0.  1.
         12    1    4    4    0    0 -0.65169857101E+01 -0.49304083125E+02  0.17785504240E+02  0.52817495933E+02  0.00000000000E+00 0. -1.
         -5    1    5    5    0  502 -0.91871243473E+01  0.57144775473E+02  0.27353366240E+02  0.64188980848E+02  0.47000000000E+01 0.  1.
         11    1    6    6    0    0  0.30318031265E+02  0.25588927214E+02 -0.30018037500E+01  0.39786769679E+02  0.00000000000E+00 0. -1.
        -12    1    6    6    0    0  0.10348785684E+03 -0.46557958126E+02  0.48733810002E+02  0.12350046241E+03  0.00000000000E+00 0.  1.
</event>
<event>
12    1  0.1032880E+000  0.1924176E+03  0.7818608E-02  0.1156922E+00
         21   -1    0    0  503  502  0.00000000000E+00  0.00000000000E+00  0.58849862419E+03  0.58849862419E+03  0.00000000000E+00 0. -1.
         21   -1    0    0  501  503 -0.00000000000E+00 -0.00000000000E+00 -0.10222492569E+03  0.10222492569E+03  0.00000000000E+00 0. -1.
          6    2    1    2  501    0 -0.58185940427E+02  0.59284924955E+02  0.27587314454E+02  0.19438520569E+03  0.17356336677E+03 0.  0.
         24    2    3    3    0    0 -0.11964144042E+02 -0.32416891010E+02 -0.36146874913E+01  0.86954612110E+02  0.79712251481E+02 0.  0.
         -6    2    1    2    0  502  0.58185940427E+02 -0.59284924955E+02  0.45868638405E+03  0.49633834419E+03  0.17046479698E+03 0.  0.
        -24    2    5    5    0    0  0.82958177165E+02 -0.71643640650E+02  0.24822589197E+03  0.28401286222E+03  0.83859060680E+02 0.  0.
          5    1    3    3  501    0 -0.46221796385E+02  0.91701815965E+02  0.31202001945E+02  0.10743059358E+03  0.47000000000E+01 0. -1.
        -11    1    4    4    0    0 -0.26734090057E+02  0.13291246491E+02  0.17364051810E+02  0.34538081876E+02  0.00000000000E+00 0.  1.
         12    1    4    4    0    0  0.14769946015E+02 -0.45708137501E+02 -0.20978739301E+02  0.52416530234E+02  0.00000000000E+00 0. -1.
         -5    1    5    5    0  502 -0.24772236738E+02  0.12358715695E+02  0.21046049208E+03  0.21232548197E+03  0.47000000000E+01 0.  1.
         13    1    6    6    0    0  0.33034411561E+01 -0.32254061078E+02  0.17670416554E+02  0.36925340901E+02  0.00000000000E+00 0. -1.
        -14    1    6    6    0    0  0.79654736009E+02 -0.39389579572E+02  0.23055547541E+03  0.24708752132E+03  0.00000000000E+00 0.  1.
</event>
<event>
12    1  0.1032880E+000  0.2790262E+03  0.7818608E-02  0.1096847E+00
         21   -1    0    0  501  502  0.00000000000E+00  0.00000000000E+00  0.64308302829E+03  0.64308302829E+03  0.00000000000E+00 0.  1.
         21   -1    0    0  502  503 -0.00000000000E+00 -0.00000000000E+00 -0.15477637591E+03  0.15477637591E+03  0.00000000000E+00 0.  1.
         -6    2    1    2    0  503 -0.18739766854E+03 -0.10458516197E+03  0.43716882967E+03  0.51862532448E+03  0.17832470182E+03 0.  0.
        -24    2    3    3    0    0 -0.88936839726E+02 -0.11995559330E+03  0.20714438226E+03  0.26789813932E+03  0.81003161215E+02 0.  0.
          6    2    1    2  501    0  0.18739766854E+03  0.10458516197E+03  0.51137822710E+02  0.27923407972E+03  0.17117433244E+03 0.  0.
         24    2    5    5    0    0  0.19930196698E+03  0.56948058607E+02  0.24567105357E+02  0.22320641728E+03  0.79077219404E+02 0.  0.
          5    1    5    5  501    0 -0.11904298437E+02  0.47637103363E+02  0.26570717352E+02  0.56027662442E+02  0.47000000000E+01 0. -1.
        -11    1    6    6    0    0  0.30564618145E+02  0.10024210831E+01  0.33313144976E+02  0.45221304255E+02  0.00000000000E+00 0.  1.
         12    1    6    6    0    0  0.16873734884E+03  0.55945637524E+02 -0.87460396181E+01  0.17798511303E+03  0.00000000000E+00 0. -1.
         -5    1    3    3    0  503 -0.98460828817E+02  0.15370431330E+02  0.23002444741E+03  0.25072718516E+03  0.47000000000E+01 0.  1.
         11    1    4    4    0    0 -0.95295671009E+02 -0.10930707915E+03  0.20996803597E+03  0.25517813110E+03  0.00000000000E+00 0. -1.
        -12    1    4    4    0    0  0.63588312829E+01 -0.10648514153E+02 -0.28236537055E+01  0.12720008223E+02  0.00000000000E+00 0.  1.
</event>
<event>
12    1  0.1032880E+000  0.2068186E+03  0.7818608E-02  0.1144131E+00
         21   -1    0    0  503  502  0.00000000000E+00  0.00000000000E+00  0.64697092196E+02  0.64697092196E+02  0.00000000000E+00 0. -1.
         21   -1    0    0  501  503 -0.00000000000E+00 -0.00000000000E+00 -0.67067157411E+03  0.67067157411E+03  0.00000000000E+00 0. -1.
          6    2    1    2  501    0  0.80595532690E+02  0.82751668764E+02 -0.34762157951E+03  0.40449312390E+03  0.17155304185E+03 0.  0.
         24    2    3    3    0    0  0.48957730488E+02  0.34879094941E+02 -0.69040346948E+02  0.12002462478E+03  0.77626866542E+02 0.  0.
         -6    2    1    2    0  502 -0.80595532690E+02 -0.82751668764E+02 -0.25835290240E+03  0.33087554241E+03  0.17143198013E+03 0.  0.
        -24    2    5    5    0    0 -0.11032709702E+03 -0.38963917576E+02 -0.23076344858E+03  0.27100400464E+03  0.80629685133E+02 0.  0.
          5    1    3    3  501    0  0.31637802202E+02  0.47872573823E+02 -0.27858123256E+03  0.28446849911E+03  0.47000000000E+01 0. -1.
        -11    1    4    4    0    0  0.65173414853E+02  0.35069611186E+02 -0.72322018824E+02  0.10347910919E+03  0.00000000000E+00 0.  1.
         12    1    4    4    0    0 -0.16215684365E+02 -0.19051624583E+00  0.32816718760E+01  0.16545515591E+02  0.00000000000E+00 0. -1.
         -5    1    5    5    0  502  0.29731564331E+02 -0.43787751187E+02 -0.27589453829E+02  0.59871537764E+02  0.47000000000E+01 0.  1.
         13    1    6    6    0    0 -0.36144216810E+02  0.24626217886E+02 -0.83756858274E+02  0.94488445453E+02  0.00000000000E+00 0. -1.
        -14    1    6    6    0    0 -0.74182880212E+02 -0.63590135462E+02 -0.14700659030E+03  0.17651555919E+03  0.00000000000E+00 0.  1.
</event>
<event>
12    1  0.1032880E+000  0.2033491E+03  0.7818608E-02  0.1147106E+00
         21   -1    0    0  503  502  0.00000000000E+00  0.00000000000E+00  0.41217025423E+03  0.41217025423E+03  0.00000000000E+00 0.  1.
         21   -1    0    0  501  503 -0.00000000000E+00 -0.00000000000E+00 -0.10885328327E+03  0.10885328327E+03  0.00000000000E+00 0.  1.
          6    2    1    2  501    0  0.78426343266E+02  0.74055688189E+02  0.77370765806E+02  0.21757089653E+03  0.17238307151E+03 0.  0.
         24    2    3    3    0    0  0.14810852521E+02 -0.22315851606E+02  0.15012476349E+02  0.86250484524E+02  0.80600329088E+02 0.  0.
         -6    2    1    2    0  502 -0.78426343266E+02 -0.74055688189E+02  0.22594620515E+03  0.30345264098E+03  0.17145518780E+03 0.  0.
        -24    2    5    5    0    0 -0.80873067419E+02 -0.66465702444E+02  0.69737911175E+02  0.14697032425E+03  0.76018138089E+02 0.  0.
          5    1    3    3  501    0  0.63615490745E+02  0.96371539795E+02  0.62358289458E+02  0.13132041201E+03  0.47000000000E+01 0. -1.
        -13    1    4    4    0    0 -0.10822137820E+02  0.10465627854E+02 -0.24571861176E+02  0.28817085124E+02  0.00000000000E+00 0.  1.
         14    1    4    4    0    0  0.25632990341E+02 -0.32781479460E+02  0.39584337524E+02  0.57433399400E+02  0.00000000000E+00 0. -1.
         -5    1    5    5    0  502  0.24467241529E+01 -0.75899857452E+01  0.15620829398E+03  0.15648231673E+03  0.47000000000E+01 0.  1.
         11    1    6    6    0    0 -0.53613883477E+02 -0.50344452989E+02  0.84504913441E+02  0.11202719689E+03  0.00000000000E+00 0. -1.
        -12    1    6    6    0    0 -0.27259183942E+02 -0.16121249455E+02 -0.14767002266E+02  0.34943127351E+02  0.00000000000E+00 0.  1.
</event>
<event>
12    1  0.1032880E+000  0.3790792E+03  0.7818608E-02  0.1051296E+00
         21   -1    0    0  503  502  0.00000000000E+00  0.00000000000E+00  0.41880162528E+03  0.41880162528E+03  0.00000000000E+00 0. -1.
         21   -1    0    0  501  503 -0.00000000000E+00 -0.00000000000E+00 -0.34860325903E+03  0.34860325903E+03  0.00000000000E+00 0. -1.
          6    2    1    2  501    0  0.24390741845E+03  0.23388875579E+03  0.84100365220E+02  0.38807088295E+03  0.17126400644E+03 0.  0.
         24    2    3    3    0    0  0.19587903664E+03  0.25006004176E+03  0.68075294980E+02  0.33471238947E+03  0.80619578288E+02 0.  0.
         -6    2    1    2    0  502 -0.24390741845E+03 -0.23388875579E+03 -0.13901998966E+02  0.37933400137E+03  0.17177380522E+03 0.  0.
        -24    2    5    5    0    0 -0.80112325014E+02 -0.87847559107E+02  0.47289765000E+02  0.15146696615E+03  0.81060111653E+02 0.  0.
          5    1    3    3  501    0  0.48028381810E+02 -0.16171285972E+02  0.16025070241E+02  0.53358493471E+02  0.47000000000E+01 0. -1.
        -11    1    4    4    0    0  0.20881154203E+02  0.55386157260E+02 -0.13145841005E+02  0.60633836697E+02  0.00000000000E+00 0.  1.
         12    1    4    4    0    0  0.17499788243E+03  0.19467388450E+03  0.81221135985E+02  0.27407855278E+03  0.00000000000E+00 0. -1.
         -5    1    5    5    0  502 -0.16379509343E+03 -0.14604119668E+03 -0.61191763966E+02  0.22786703522E+03  0.47000000000E+01 0.  1.
         13    1    6    6    0    0 -0.30993472259E+02 -0.34782227077E+01 -0.16067936487E+02  0.35083784556E+02  0.00000000000E+00 0. -1.
        -14    1    6    6    0    0 -0.49118852755E+02 -0.84369336399E+02  0.63357701487E+02  0.11638318159E+03  0.00000000000E+00 0.  1.
</event>
<event>
12    1  0.1032880E+000  0.2734921E+03  0.7818608E-02  0.1099536E+00
         21   -1    0    0  503  502  0.00000000000E+00  0.00000000000E+00  0.18067737747E+03  0.18067737747E+03  0.00000000000E+00 0.  1.
         21   -1    0    0  501  503 -0.00000000000E+00 -0.00000000000E+00 -0.41931198930E+03  0.41931198930E+03  0.00000000000E+00 0.  1.
          6    2    1    2  501    0 -0.21095106648E+03  0.31645997046E+02 -0.78557575219E+02  0.28455091251E+03  0.17116105751E+03 0.  0.
         24    2    3    3    0    0 -0.17145995531E+03 -0.35002912659E+02 -0.75480873772E+02  0.20687735769E+03  0.80480796777E+02 0.  0.
         -6    2    1    2    0  502  0.21095106648E+03 -0.31645997046E+02 -0.16007703661E+03  0.31543845425E+03  0.16844862479E+03 0.  0.
        -24    2    5    5    0    0  0.60179659152E+02  0.17110687186E+02 -0.10977641117E+03  0.14912106357E+03  0.79195101853E+02 0.  0.
          5    1    3    3  501    0 -0.39491111171E+02  0.66648909706E+02 -0.30767014470E+01  0.77673554819E+02  0.47000000000E+01 0. -1.
        -13    1    4    4    0    0 -0.24197899398E+02 -0.23178936440E+02 -0.44873949646E+02  0.56004221150E+02  0.00000000000E+00 0.  1.
         14    1    4    4    0    0 -0.14726205591E+03 -0.11823976219E+02 -0.30606924127E+02  0.15087313654E+03  0.00000000000E+00 0. -1.
         -5    1    5    5    0  502  0.15077140733E+03 -0.48756684232E+02 -0.50300625437E+02  0.16631739069E+03  0.47000000000E+01 0.  1.
         11    1    6    6    0    0  0.68893428683E+02  0.22765297539E+02 -0.11613803026E+03  0.13694015247E+03  0.00000000000E+00 0. -1.
        -12    1    6    6    0    0 -0.87137695306E+01 -0.56546103529E+01  0.63616190835E+01  0.12180911092E+02  0.00000000000E+00 0.  1.
</event>
<event>
12    1  0.1032880E+000  0.1766363E+03  0.7818608E-02  0.1171454E+00
         21   -1    0    0  503  502  0.00000000000E+00  0.00000000000E+00  0.49469816838E+02  0.49469816838E+02  0.00000000000E+00 0. -1.
         21   -1    0    0  501  503 -0.00000000000E+00 -0.00000000000E+00 -0.71430803098E+03  0.71430803098E+03  0.00000000000E+00 0. -1.
          6    2    1    2  501    0 -0.40389278353E+02 -0.48987487845E+01 -0.46817078672E+03  0.50038411105E+03  0.17188682762E+03 0.  0.
         24    2    3    3    0    0 -0.13924141312E+02 -0.47521683563E+02 -0.14221031268E+03  0.17055167074E+03  0.80074385660E+02 0.  0.
         -6    2    1    2    0  502  0.40389278353E+02  0.48987487845E+01 -0.19666742743E+03  0.26339373677E+03  0.17041975242E+03 0.  0.
        -24    2    5    5    0    0  0.20096413048E+01  0.45281107322E+02 -0.42341923035E+02  0.99252996163E+02  0.77484846665E+02 0.  0.
          5    1    3    3  501    0 -0.26465137041E+02  0.42622934778E+02 -0.32596047404E+03  0.32983244031E+03  0.47000000000E+01 0. -1.
        -11    1    4    4    0    0 -0.20350499258E+02  0.17370121380E+02 -0.59407630921E+02  0.65154666360E+02  0.00000000000E+00 0.  1.
         12    1    4    4    0    0  0.64263579460E+01 -0.64891804943E+02 -0.82802681759E+02  0.10539700438E+03  0.00000000000E+00 0. -1.
         -5    1    5    5    0  502  0.38379637048E+02 -0.40382358537E+02 -0.15432550439E+03  0.16414074061E+03  0.47000000000E+01 0.  1.
         11    1    6    6    0    0  0.26205542141E+02  0.15913294983E+02  0.11991301715E+02  0.32920430024E+02  0.00000000000E+00 0. -1.
        -12    1    6    6    0    0 -0.24195900837E+02  0.29367812339E+02 -0.54333224750E+02  0.66332566139E+02  0.00000000000E+00 0.  1.
</event>
<event>
12    1  0.1032880E+000  0.3811757E+03  0.7818608E-02  0.1050595E+00
         21   -1    0    0  503  502  0.00000000000E+00  0.00000000000E+00  0.14091490204E+03  0.14091490204E+03  0.00000000000E+00 0. -1.
         21   -1    0    0  501  503 -0.00000000000E+00 -0.00000000000E+00 -0.19238221394E+04  0.19238221394E+04  0.00000000000E+00 0.  1.
          6    2    1    2  501    0 -0.27803977117E+03  0.19664809913E+03 -0.18644687751E+03  0.42340203245E+03  0.16890901014E+03 0.  0.
         24    2    3    3    0    0 -0.20508473054E+03  0.20031250527E+03 -0.18418651000E+03  0.35016908162E+03  0.80677560630E+02 0.  0.
         -6    2    1    2    0  502  0.27803977117E+03 -0.19664809913E+03 -0.15964603598E+04  0.16413350090E+04  0.17122599656E+03 0.  0.
        -24    2    5    5    0    0  0.13888694967E+03 -0.17874031406E+03 -0.99639664398E+03  0.10250698472E+04  0.82001432251E+02 0.  0.
          5    1    3    3  501    0 -0.72955040634E+02 -0.36644061370E+01 -0.22603675069E+01  0.73232950832E+02  0.47000000000E+01 0. -1.
        -13    1    4    4    0    0 -0.55668479716E+02  0.17699998327E+02 -0.59164844462E+02  0.83142939537E+02  0.00000000000E+00 0.  1.
         14    1    4    4    0    0 -0.14941625082E+03  0.18261250694E+03 -0.12502166554E+03  0.26702614208E+03  0.00000000000E+00 0. -1.
         -5    1    5    5    0  502  0.13915282150E+03 -0.17907785076E+02 -0.60006371586E+03  0.61626516176E+03  0.47000000000E+01 0.  1.
         11    1    6    6    0    0  0.92588576587E+02 -0.52846328745E+02 -0.44509231236E+03  0.45768170763E+03  0.00000000000E+00 0. -1.
        -12    1    6    6    0    0  0.46298373083E+02 -0.12589398531E+03 -0.55130433162E+03  0.56738813960E+03  0.00000000000E+00 0.  1.
</event>
<event>
12    1  0.1032880E+000  0.1972062E+03  0.7818608E-02  0.1152228E+00
         21   -1    0    0  501  502  0.00000000000E+00  0.00000000000E+00  0.44618506004E+02  0.44618506004E+02  0.00000000000E+00 0. -1.
         21   -1    0    0  502  503 -0.00000000000E+00 -0.00000000000E+00 -0.91487212540E+03  0.91487212540E+03  0.00000000000E+00 0. -1.
         -6    2    1    2    0  503  0.72043300736E+02  0.63952849952E+02 -0.32864878769E+03  0.38327575594E+03  0.17207578344E+03 0.  0.
        -24    2    3    3    0    0  0.11859546479E+02  0.14675973860E+02 -0.27950609092E+03  0.29114872712E+03  0.79296238191E+02 0.  0.
          6    2    1    2  501    0 -0.72043300736E+02 -0.63952849952E+02 -0.54160483171E+03  0.57621487546E+03  0.17148639822E+03 0.  0.
         24    2    5    5    0    0 -0.11561830708E+03 -0.58153205488E+02 -0.42545891229E+03  0.45193944889E+03  0.80526959279E+02 0.  0.
          5    1    5    5  501    0  0.43575006340E+02 -0.57996444640E+01 -0.11614591942E+03  0.12427542658E+03  0.47000000000E+01 0. -1.
        -13    1    6    6    0    0 -0.56394304465E+02 -0.58545439162E+02 -0.32776886046E+03  0.33769855183E+03  0.00000000000E+00 0.  1.
         14    1    6    6    0    0 -0.59224002611E+02  0.39223367413E+00 -0.97690051835E+02  0.11424089706E+03  0.00000000000E+00 0. -1.
         -5    1    3    3    0  503  0.60183754256E+02  0.49276876092E+02 -0.49142696764E+02  0.92127028819E+02  0.47000000000E+01 0.  1.
         11    1    4    4    0    0 -0.12203400615E+02 -0.26775208370E+02 -0.15433568222E+03  0.15711568215E+03  0.00000000000E+00 0. -1.
        -12    1    4    4    0    0  0.24062947094E+02  0.41451182230E+02 -0.12517040870E+03  0.13403304497E+03  0.00000000000E+00 0.  1.
</event>
<event>
12    1  0.1032880E+000  0.3703849E+03  0.7818608E-02  0.1054732E+00
         21   -1    0    0  503  502  0.00000000000E+00  0.00000000000E+00  0.51496935379E+03  0.51496935379E+03  0.00000000000E+00 0.  1.
         21   -1    0    0  501  503 -0.00000000000E+00 -0.00000000000E+00 -0.59297793887E+03  0.59297793887E+03  0.00000000000E+00 0.  1.
          6    2    1    2  501    0  0.30369907121E+03 -0.12477278560E+03  0.37294572191E+03  0.52561724834E+03  0.17141647056E+03 0.  0.
         24    2    3    3    0    0  0.21370823112E+03 -0.21837756620E+02  0.27017939424E+03  0.35451207719E+03  0.80831999464E+02 0.  0.
         -6    2    1    2    0  502 -0.30369907121E+03  0.12477278560E+03 -0.45095430699E+03  0.58233004432E+03  0.16717392033E+03 0.  0.
        -24    2    5    5    0    0 -0.27748646002E+03  0.10208569155E+03 -0.31019467681E+03  0.43728808931E+03  0.87062687882E+02 0.  0.
          5    1    3    3  501    0  0.89990840086E+02 -0.10293502898E+03  0.10276632767E+03  0.17110517115E+03  0.47000000000E+01 0. -1.
        -13    1    4    4    0    0  0.18940155720E+03 -0.42297837658E+02  0.20670120231E+03  0.28352679587E+03  0.00000000000E+00 0.  1.
         14    1    4    4    0    0  0.24306673926E+02  0.20460081037E+02  0.63478191934E+02  0.70985281324E+02  0.00000000000E+00 0. -1.
         -5    1    5    5    0  502 -0.26212611191E+02  0.22687094055E+02 -0.14075963018E+03  0.14504195500E+03  0.47000000000E+01 0.  1.
         13    1    6    6    0    0 -0.20444526147E+03  0.49768997487E+02 -0.25963846595E+03  0.33419597701E+03  0.00000000000E+00 0. -1.
        -14    1    6    6    0    0 -0.73041198549E+02  0.52316694062E+02 -0.50556210865E+02  0.10309211231E+03  0.00000000000E+00 0.  1.
</event>
<event>
12    1  0.1032880E+000  0.2350354E+03  0.7818608E-02  0.1123371E+00
         21   -1    0    0  501  502  0.00000000000E+00  0.00000000000E+00  0.14083976202E+03  0.14083976202E+03  0.00000000000E+00 0. -1.
         21   -1    0    0  502  503 -0.00000000000E+00 -0.00000000000E+00 -0.39071030823E+03  0.39071030823E+03  0.00000000000E+00 0. -1.
         -6    2    1    2    0  503  0.51002156435E+02  0.15222073643E+03 -0.11421027686E+03  0.26131514416E+03  0.17166608479E+03 0.  0.
        -24    2    3    3    0    0  0.57718068121E+02  0.44074434482E+02 -0.57733280868E+01  0.10794830305E+03  0.79659109026E+02 0.  0.
          6    2    1    2  501    0 -0.51002156435E+02 -0.15222073643E+03 -0.13566026935E+03  0.27023492608E+03  0.16985533266E+03 0.  0.
         24    2    5    5    0    0 -0.59411205663E+02 -0.14401285431E+03 -0.16308547374E+03  0.24003040202E+03  0.82148211072E+02 0.  0.
          5    1    5    5  501    0  0.84090492273E+01 -0.82078821207E+01  0.27425204394E+02  0.30204524063E+02  0.47000000000E+01 0. -1.
        -11    1    6    6    0    0  0.19324486227E+02 -0.39151808404E+02 -0.54113087744E+02  0.69530756752E+02  0.00000000000E+00 0.  1.
         12    1    6    6    0    0 -0.78735691890E+02 -0.10486104590E+03 -0.10897238600E+03  0.17049964527E+03  0.00000000000E+00 0. -1.
         -5    1    3    3    0  503 -0.67159116859E+01  0.10814630195E+03 -0.10843694877E+03  0.15336684112E+03  0.47000000000E+01 0.  1.
         11    1    4    4    0    0  0.76350476017E+02  0.35338154971E+02 -0.14891818707E+02  0.85439725240E+02  0.00000000000E+00 0. -1.
        -12    1    4    4    0    0 -0.18632407895E+02  0.87362795112E+01  0.91184906204E+01  0.22508577806E+02  0.00000000000E+00 0.  1.
</event>
<event>
12    1  0.1032880E+000  0.1777630E+03  0.7818608E-02  0.1170321E+00
         21   -1    0    0  503  502  0.00000000000E+00  0.00000000000E+00  0.84283372885E+02  0.84283372885E+02  0.00000000000E+00 0.  1.
         21   -1    0    0  501  503 -0.00000000000E+00 -0.00000000000E+00 -0.42273104297E+03  0.42273104297E+03  0.00000000000E+00 0.  1.
          6    2    1    2  501    0 -0.29687872967E+02 -0.29182022965E+02 -0.25641636773E+03  0.31123695101E+03  0.17142381913E+03 0.  0.
         24    2    3    3    0    0 -0.25287667680E+00  0.32581699524E+02 -0.65041405263E+02  0.10794493768E+03  0.79750198003E+02 0.  0.
         -6    2    1    2    0  502  0.29687872967E+02  0.29182022965E+02 -0.82031302348E+02  0.19577746485E+03  0.17281990890E+03 0.  0.
        -24    2    5    5    0    0 -0.24444735643E+02 -0.67413026194E-01  0.98409106246E+01  0.85104693410E+02  0.80922281686E+02 0.  0.
          5    1    3    3  501    0 -0.29434996290E+02 -0.61763722489E+02 -0.19137496247E+03  0.20329201333E+03  0.47000000000E+01 0. -1.
        -11    1    4    4    0    0 -0.51054003853E+01  0.10302596486E+02 -0.79904129859E+02  0.80727186102E+02  0.00000000000E+00 0.  1.
         12    1    4    4    0    0  0.48525237085E+01  0.22279103037E+02  0.14862724596E+02  0.27217751577E+02  0.00000000000E+00 0. -1.
         -5    1    5    5    0  502  0.54132608609E+02  0.29249435991E+02 -0.91872212973E+02  0.11067277144E+03  0.47000000000E+01 0.  1.
         13    1    6    6    0    0  0.16442112713E+02  0.14464173842E+02 -0.22185800563E+02  0.31173147772E+02  0.00000000000E+00 0. -1.
        -14    1    6    6    0    0 -0.40886848356E+02 -0.14531586869E+02  0.32026711187E+02  0.53931545638E+02  0.00000000000E+00 0.  1.
</event>
<event>
12    1  0.1032880E+000  0.1884860E+03  0.7818608E-02  0.1160258E+00
         21   -1    0    0  501  502  0.00000000000E+00  0.00000000000E+00  0.31705632730E+03  0.31705632730E+03  0.00000000000E+00 0. -1.
         21   -1    0    0  502  503 -0.00000000000E+00 -0.00000000000E+00 -0.11594953667E+03  0.11594953667E+03  0.00000000000E+00 0. -1.
         -6    2    1    2    0  503  0.74710068386E+02 -0.23166169393E+02  0.55142603416E+02  0.19461016496E+03  0.16945248264E+03 0.  0.
        -24    2    3    3    0    0  0.10191675977E+03 -0.55727638130E+02  0.27279735156E+02  0.14363092674E+03  0.79956635692E+02 0.  0.
          6    2    1    2  501    0 -0.74710068386E+02  0.23166169393E+02  0.14596418722E+03  0.23839569901E+03  0.17148964876E+03 0.  0.
         24    2    5    5    0    0  0.18733938095E+02  0.22639619037E+02  0.10306677750E+03  0.13546690147E+03  0.82855343713E+02 0.  0.
          5    1    5    5  501    0 -0.93444006482E+02  0.52655035635E+00  0.42897409718E+02  0.10292879754E+03  0.47000000000E+01 0. -1.
        -13    1    6    6    0    0 -0.18099001606E+02  0.10029558996E+02 -0.44093977976E+01  0.21156764916E+02  0.00000000000E+00 0.  1.
         14    1    6    6    0    0  0.36832939701E+02  0.12610060040E+02  0.10747617530E+03  0.11431013655E+03  0.00000000000E+00 0. -1.
         -5    1    3    3    0  503 -0.27206691384E+02  0.32561468737E+02  0.27862868260E+02  0.50979238225E+02  0.47000000000E+01 0.  1.
         13    1    4    4    0    0  0.10463431137E+03 -0.22177569735E+02  0.16104833703E+02  0.10816445527E+03  0.00000000000E+00 0. -1.
        -14    1    4    4    0    0 -0.27175515963E+01 -0.33550068395E+02  0.11174901453E+02  0.35466471469E+02  0.00000000000E+00 0.  1.
</event>
<event>
12    1  0.1032880E+000  0.1862138E+03  0.7818608E-02  0.1162042E+00
         21   -1    0    0  503  502  0.00000000000E+00  0.00000000000E+00  0.31965276251E+03  0.31965276251E+03  0.00000000000E+00 0. -1.
         21   -1    0    0  501  503 -0.00000000000E+00 -0.00000000000E+00 -0.10847113841E+03  0.10847113841E+03  0.00000000000E+00 0. -1.
          6    2    1    2  501    0  0.15317285442E+02 -0.70286251764E+02  0.11663591905E+03  0.21928310097E+03  0.17119101711E+03 0.  0.
         24    2    3    3    0    0  0.32278952968E+02 -0.40682103813E+02  0.14576961973E+03  0.17417250071E+03  0.79939437030E+02 0.  0.
         -6    2    1    2    0  502 -0.15317285442E+02  0.70286251764E+02  0.94545705051E+02  0.20884079994E+03  0.17175800696E+03 0.  0.
        -24    2    5    5    0    0  0.20090532541E+02  0.91237391019E+02  0.11052193093E+03  0.16445618996E+03  0.78120741043E+02 0.  0.
          5    1    3    3  501    0 -0.16961667526E+02 -0.29604147952E+02 -0.29133700674E+02  0.45110600264E+02  0.47000000000E+01 0. -1.
        -11    1    4    4    0    0  0.51688821506E+02 -0.49145166969E+02  0.92178484122E+02  0.11654979468E+03  0.00000000000E+00 0.  1.
         12    1    4    4    0    0 -0.19409868538E+02  0.84630631562E+01  0.53591135603E+02  0.57622706027E+02  0.00000000000E+00 0. -1.
         -5    1    5    5    0  502 -0.35407817983E+02 -0.20951139255E+02 -0.15976225877E+02  0.44384609986E+02  0.47000000000E+01 0.  1.
         13    1    6    6    0    0  0.18637191286E+02  0.43573808670E+02  0.10653904016E+03  0.11660441149E+03  0.00000000000E+00 0. -1.
        -14    1    6    6    0    0  0.14533412545E+01  0.47663582349E+02  0.39828907653E+01  0.47851778462E+02  0.00000000000E+00 0.  1.
</event>
<event>
12    1  0.1032880E+000  0.2150417E+03  0.7818608E-02  0.1137675E+00
         21   -1    0    0  503  502  0.00000000000E+00  0.00000000000E+00  0.35476478634E+03  0.35476478634E+03  0.00000000000E+00 0. -1.
         21   -1    0    0  501  503 -0.00000000000E+00 -0.00000000000E+00 -0.13160333356E+03  0.13160333356E+03  0.00000000000E+00 0. -1.
          6    2    1    2  501    0 -0.13041991538E+02 -0.12749935482E+03  0.86593905256E+02  0.23162587053E+03  0.17241189184E+03 0.  0.
         24    2    3    3    0    0  0.34389900702E+02 -0.18832918613E+01  0.16630684393E+02  0.80146096471E+02  0.70431562937E+02 0.  0.
         -6    2    1    2    0  502  0.13041991538E+02  0.12749935482E+03  0.13656754752E+03  0.25474224937E+03  0.17267524302E+03 0.  0.
        -24    2    5    5    0    0 -0.43453560346E+02  0.43696571723E+02  0.11048662794E+03  0.15025800077E+03  0.81071385560E+02 0.  0.
          5    1    3    3  501    0 -0.47431892240E+02 -0.12561606296E+03  0.69963220864E+02  0.15147977406E+03  0.47000000000E+01 0. -1.
        -13    1    4    4    0    0 -0.20679666450E+02 -0.80368992249E+01  0.10008521033E+02  0.24339491509E+02  0.00000000000E+00 0.  1.
         14    1    4    4    0    0  0.55069567152E+02  0.61536073636E+01  0.66221633595E+01  0.55806604962E+02  0.00000000000E+00 0. -1.
         -5    1    5    5    0  502  0.56495551884E+02  0.83802783095E+02  0.26080919588E+02  0.10448424859E+03  0.47000000000E+01 0.  1.
         13    1    6    6    0    0 -0.34868072078E+02  0.67801280292E+02  0.83320553296E+02  0.11293852603E+03  0.00000000000E+00 0. -1.
        -14    1    6    6    0    0 -0.85854882683E+01 -0.24104708569E+02  0.27166074640E+02  0.37319474747E+02  0.00000000000E+00 0.  1.
</event>
<event>
12    1  0.1032880E+000  0.2561727E+03  0.7818608E-02  0.1109671E+00
         21   -1    0    0  503  502  0.00000000000E+00  0.00000000000E+00  0.50997529271E+02  0.50997529271E+02  0.00000000000E+00 0.  1.
         21   -1    0    0  501  503 -0.00000000000E+00 -0.00000000000E+00 -0.18348861334E+04  0.18348861334E+04  0.00000000000E+00 0.  1.
          6    2    1    2  501    0 -0.76992577611E+02 -0.17070468971E+03 -0.37507845782E+03  0.45421172994E+03  0.17480417042E+03 0.  0.
         24    2    3    3    0    0 -0.54273617556E+02 -0.72040885796E+02 -0.89390157348E+02  0.15107711895E+03  0.81842414750E+02 0.  0.
         -6    2    1    2    0  502  0.76992577611E+02  0.17070468971E+03 -0.14088101463E+04  0.14316719327E+04  0.17283097678E+03 0.  0.
        -24    2    5    5    0    0  0.12007078742E+03  0.12662119074E+03 -0.11095952242E+04  0.11261383885E+04  0.80846697770E+02 0.  0.
          5    1    3    3  501    0 -0.22718960055E+02 -0.98663803912E+02 -0.28568830047E+03  0.30313461098E+03  0.47000000000E+01 0. -1.
        -11    1    4    4    0    0  0.65397935772E+01  0.78434344099E+01  0.66124730107E+01  0.12166066032E+02  0.00000000000E+00 0.  1.
         12    1    4    4    0    0 -0.60813411133E+02 -0.79884320206E+02 -0.96002630358E+02  0.13891105292E+03  0.00000000000E+00 0. -1.
         -5    1    5    5    0  502 -0.43078209805E+02  0.44083498972E+02 -0.29921492203E+03  0.30553354416E+03  0.47000000000E+01 0.  1.
         13    1    6    6    0    0  0.70775474214E+02  0.69465791057E+02 -0.38289517037E+03  0.39552923453E+03  0.00000000000E+00 0. -1.
        -14    1    6    6    0    0  0.49295313203E+02  0.57155399680E+02 -0.72670005387E+03  0.73060915400E+03  0.00000000000E+00 0.  1.
</event>
<event>
12    1  0.1032880E+000  0.5319443E+03  0.7818608E-02  0.1005811E+00
         21   -1    0    0  501  502  0.00000000000E+00  0.00000000000E+00  0.96090143429E+02  0.96090143429E+02  0.00000000000E+00 0. -1.
         21   -1    0    0  502  503 -0.00000000000E+00 -0.00000000000E+00 -0.29429638673E+04  0.29429638673E+04  0.00000000000E+00 0. -1.
         -6    2    1    2    0  503 -0.44852849520E+03  0.22745839665E+03 -0.13764732202E+04  0.14753908890E+04  0.17083505516E+03 0.  0.
        -24    2    3    3    0    0 -0.28536403009E+03  0.13948025797E+03 -0.10508828802E+04  0.11006990755E+04  0.79348943971E+02 0.  0.
          6    2    1    2  501    0  0.44852849520E+03 -0.22745839665E+03 -0.14704005037E+04  0.15636631218E+04  0.17334815834E+03 0.  0.
         24    2    5    5    0    0  0.14475080934E+03 -0.13336667121E+03 -0.61974181798E+03  0.65549109801E+03  0.82759850267E+02 0.  0.
          5    1    5    5  501    0  0.30377768586E+03 -0.94091725438E+02 -0.85065868573E+03  0.90817202381E+03  0.47000000000E+01 0. -1.
        -11    1    6    6    0    0  0.11142264747E+03 -0.93259042146E+02 -0.32265532387E+03  0.35386256277E+03  0.00000000000E+00 0.  1.
         12    1    6    6    0    0  0.33328161868E+02 -0.40107629066E+02 -0.29708649411E+03  0.30162853523E+03  0.00000000000E+00 0. -1.
         -5    1    3    3    0  503 -0.16316446510E+03  0.87978138678E+02 -0.32559034002E+03  0.37469181346E+03  0.47000000000E+01 0.  1.
         11    1    4    4    0    0 -0.22650325899E+02  0.19816919757E+01 -0.30107180962E+02  0.37728062658E+02  0.00000000000E+00 0. -1.
        -12    1    4    4    0    0 -0.26271370419E+03  0.13749856600E+03 -0.10207756992E+04  0.10629710128E+04  0.00000000000E+00 0.  1.
</event>
<event>
12    1  0.1032880E+000  0.2123032E+03  0.7818608E-02  0.1139866E+00
         21   -1    0    0  503  502  0.00000000000E+00  0.00000000000E+00  0.45100762604E+03  0.45100762604E+03  0.00000000000E+00 0.  1.
         21   -1    0    0  501  503 -0.00000000000E+00 -0.00000000000E+00 -0.29845943132E+03  0.29845943132E+03  0.00000000000E+00 0.  1.
          6    2    1    2  501    0 -0.58026113060E+02 -0.10899277741E+03  0.38206631012E+03  0.43681512168E+03  0.17200677276E+03 0.  0.
         24    2    3    3    0    0 -0.99714945099E+02 -0.46724275125E+02  0.21334438200E+03  0.25214107336E+03  0.77026407047E+02 0.  0.
         -6    2    1    2    0  502  0.58026113060E+02  0.10899277741E+03 -0.22951811540E+03  0.31265193568E+03  0.17270267011E+03 0.  0.
        -24    2    5    5    0    0  0.29099506704E+02  0.10554516193E+03 -0.75451300331E+02  0.15578476858E+03  0.81175321999E+02 0.  0.
          5    1    3    3  501    0  0.41688832040E+02 -0.62268502282E+02  0.16872192812E+03  0.18467404832E+03  0.47000000000E+01 0. -1.
        -11    1    4    4    0    0  0.51558475154E+01 -0.91589331211E+01  0.69075443343E+02  0.69870492288E+02  0.00000000000E+00 0.  1.
         12    1    4    4    0    0 -0.10487079261E+03 -0.37565342004E+02  0.14426893866E+03  0.18227058107E+03  0.00000000000E+00 0. -1.
         -5    1    5    5    0  502  0.28926606356E+02  0.34476154718E+01 -0.15406681507E+03  0.15686716710E+03  0.47000000000E+01 0.  1.
         13    1    6    6    0    0  0.48328186275E+02  0.10309353093E+03 -0.51479208864E+02  0.12495598687E+03  0.00000000000E+00 0. -1.
        -14    1    6    6    0    0 -0.19228679572E+02  0.24516310039E+01 -0.23972091468E+02  0.30828781714E+02  0.00000000000E+00 0.  1.
</event>
<event>
12    1  0.1032880E+000  0.1825461E+03  0.7818608E-02  0.1165403E+00
         21   -1    0    0  501  502  0.00000000000E+00  0.00000000000E+00  0.32897142319E+03  0.32897142319E+03  0.00000000000E+00 0. -1.
         21   -1    0    0  502  503 -0.00000000000E+00 -0.00000000000E+00 -0.11764047519E+03  0.11764047519E+03  0.00000000000E+00 0. -1.
         -6    2    1    2    0  503 -0.39373655129E+02  0.45953891621E+02  0.18919612270E+03  0.26290349474E+03  0.17222377835E+03 0.  0.
        -24    2    3    3    0    0  0.35312490599E+02  0.11052616379E+02  0.14372435971E+03  0.16863849272E+03  0.80081941358E+02 0.  0.
          6    2    1    2  501    0  0.39373655129E+02 -0.45953891621E+02  0.22134825306E+02  0.18370840365E+03  0.17203715356E+03 0.  0.
         24    2    5    5    0    0  0.57171884629E+01  0.25074392346E+02  0.51268614490E+02  0.99752209449E+02  0.81612628085E+02 0.  0.
          5    1    5    5  501    0  0.33656466666E+02 -0.71028283967E+02 -0.29133789184E+02  0.83956194197E+02  0.47000000000E+01 0. -1.
        -13    1    6    6    0    0  0.21099312515E+02 -0.16412630338E+02  0.48549251683E+02  0.55421884326E+02  0.00000000000E+00 0.  1.
         14    1    6    6    0    0 -0.15382124052E+02  0.41487022684E+02  0.27193628064E+01  0.44330325124E+02  0.00000000000E+00 0. -1.
         -5    1    3    3    0  503 -0.74686145729E+02  0.34901275242E+02  0.45471762989E+02  0.94265002024E+02  0.47000000000E+01 0.  1.
         11    1    4    4    0    0  0.50146262322E+02  0.33769976551E+02  0.89513638376E+02  0.10801736155E+03  0.00000000000E+00 0. -1.
        -12    1    4    4    0    0 -0.14833771723E+02 -0.22717360171E+02  0.54210721331E+02  0.60621131166E+02  0.00000000000E+00 0.  1.
</event>
<event>
12    1  0.1032880E+000  0.1906659E+03  0.7818608E-02  0.1158152E+00
         21   -1    0    0  501  502  0.00000000000E+00  0.00000000000E+00  0.57247397513E+02  0.57247397513E+02  0.00000000000E+00 0.  1.
         21   -1    0    0  502  503 -0.00000000000E+00 -0.00000000000E+00 -0.68892484156E+03  0.68892484156E+03  0.00000000000E+00 0. -1.
         -6    2    1    2    0  503 -0.52171900318E+02 -0.62825075995E+02 -0.42522955102E+03  0.46601894770E+03  0.17229216815E+03 0.  0.
        -24    2    3    3    0    0 -0.95542602075E+02 -0.27576047620E+02 -0.35098422113E+03  0.37297073019E+03  0.77642867570E+02 0.  0.
          6    2    1    2  501    0  0.52171900318E+02  0.62825075995E+02 -0.20644789304E+03  0.28015329137E+03  0.17086906324E+03 0.  0.
         24    2    5    5    0    0  0.43072570908E+02  0.10867975804E+03 -0.16808905978E+03  0.21949902730E+03  0.79116084312E+02 0.  0.
          5    1    5    5  501    0  0.90993294103E+01 -0.45854682045E+02 -0.38358833256E+02  0.60654264070E+02  0.47000000000E+01 0. -1.
        -13    1    6    6    0    0  0.17909794748E+02  0.90844024821E+01  0.26335223012E+01  0.20253951616E+02  0.00000000000E+00 0.  1.
         14    1    6    6    0    0  0.25162776160E+02  0.99595355558E+02 -0.17072258208E+03  0.19924507569E+03  0.00000000000E+00 0. -1.
         -5    1    3    3    0  503  0.43370701757E+02 -0.35249028376E+02 -0.74245329885E+02  0.93048217512E+02  0.47000000000E+01 0.  1.
         13    1    4    4    0    0 -0.36734577387E+02 -0.14271719497E+02 -0.26522760109E+03  0.26813950014E+03  0.00000000000E+00 0. -1.
        -14    1    4    4    0    0 -0.58808024688E+02 -0.13304328122E+02 -0.85756620040E+02  0.10483123006E+03  0.00000000000E+00 0.  1.
</event>
<event>
12    1  0.1032880E+000  0.3276789E+03  0.7818608E-02  0.1072463E+00
         21   -1    0    0  501  502  0.00000000000E+00  0.00000000000E+00  0.34673016451E+03  0.34673016451E+03  0.00000000000E+00 0.  1.
         21   -1    0    0  502  503 -0.00000000000E+00 -0.00000000000E+00 -0.31346057791E+03  0.31346057791E+03  0.00000000000E+00 0.  1.
         -6    2    1    2    0  503  0.27108513615E+03 -0.52094022055E+02  0.63243014060E+02  0.33114382250E+03  0.17162637962E+03 0.  0.
        -24    2    3    3    0    0  0.18864971415E+03 -0.85942551539E+02  0.42233891366E+00  0.22201156800E+03  0.79461444360E+02 0.  0.
          6    2    1    2  501    0 -0.27108513615E+03  0.52094022055E+02 -0.29973427466E+02  0.32904691992E+03  0.17655744385E+03 0.  0.
         24    2    5    5    0    0 -0.17279364111E+03 -0.11248346331E+02  0.36487127421E+02  0.19446397529E+03  0.80627287652E+02 0.  0.
          5    1    5    5  501    0 -0.98291495038E+02  0.63342368387E+02 -0.66460554887E+02  0.13458294463E+03  0.47000000000E+01 0. -1.
        -13    1    6    6    0    0 -0.13578706666E+03  0.15100722881E+02  0.52401219452E+02  0.14632855874E+03  0.00000000000E+00 0.  1.
         14    1    6    6    0    0 -0.37006574453E+02 -0.26349069213E+02 -0.15914092031E+02  0.48135416548E+02  0.00000000000E+00 0. -1.
         -5    1    3    3    0  503  0.82435421996E+02  0.33848529484E+02  0.62820675146E+02  0.10913225451E+03  0.47000000000E+01 0.  1.
         11    1    4    4    0    0  0.54273598573E+02 -0.59226795628E+02  0.22060484051E+02  0.83307273266E+02  0.00000000000E+00 0. -1.
        -12    1    4    4    0    0  0.13437611558E+03 -0.26715755911E+02 -0.21638145137E+02  0.13870429473E+03  0.00000000000E+00 0.  1.
</event>
<event>
12    1  0.1032880E+000  0.5288875E+03  0.7818608E-02  0.1006517E+00
         21   -1    0    0  503  502  0.00000000000E+00  0.00000000000E+00  0.18807706675E+03  0.18807706675E+03  0.00000000000E+00 0. -1.
         21   -1    0    0  501  503 -0.00000000000E+00 -0.00000000000E+00 -0.16566401140E+04  0.16566401140E+04  0.00000000000E+00 0.  1.
          6    2    1    2  501    0  0.14384149855E+02  0.49975632928E+03 -0.43892226307E+03  0.68729522305E+03  0.17250703809E+03 0.  0.
         24    2    3    3    0    0  0.73585058416E+02  0.21663812602E+03 -0.20429855998E+03  0.31482906802E+03  0.70940834468E+02 0.  0.
         -6    2    1    2    0  502 -0.14384149855E+02 -0.49975632928E+03 -0.10296407842E+04  0.11574219577E+04  0.17176190298E+03 0.  0.
        -24    2    5    5    0    0 -0.27845526678E+02 -0.11287279598E+03 -0.20777799151E+03  0.24893936735E+03  0.72687505344E+02 0.  0.
          5    1    3    3  501    0 -0.59200908561E+02  0.28311820326E+03 -0.23462370310E+03  0.37246615504E+03  0.47000000000E+01 0. -1.
        -13    1    4    4    0    0  0.87490611275E+02  0.19337826419E+03 -0.17705136258E+03  0.27639997307E+03  0.00000000000E+00 0.  1.
         14    1    4    4    0    0 -0.13905552859E+02  0.23259861829E+02 -0.27247197399E+02  0.38429094951E+02  0.00000000000E+00 0. -1.
         -5    1    5    5    0  502  0.13461376822E+02 -0.38688353329E+03 -0.82186279267E+03  0.90848259035E+03  0.47000000000E+01 0.  1.
         13    1    6    6    0    0 -0.19073756947E+01  0.10190665792E+02 -0.90702748251E+01  0.13775254507E+02  0.00000000000E+00 0. -1.
        -14    1    6    6    0    0 -0.25938150983E+02 -0.12306346178E+03 -0.19870771668E+03  0.23516411284E+03  0.00000000000E+00 0.  1.
</event>
<event>
12    1  0.1032880E+000  0.3890061E+03  0.7818608E-02  0.1047858E+00
         21   -1    0    0  501  502  0.00000000000E+00  0.00000000000E+00  0.14902000216E+03  0.14902000216E+03  0.00000000000E+00 0. -1.
         21   -1    0    0  502  503 -0.00000000000E+00 -0.00000000000E+00 -0.10188755947E+04  0.10188755947E+04  0.00000000000E+00 0.  1.
         -6    2    1    2    0  503  0.46568437851E+02 -0.34461407228E+03 -0.48949375554E+03  0.62383594640E+03  0.16923260058E+03 0.  0.
        -24    2    3    3    0    0  0.10250752149E+03 -0.24519550520E+03 -0.34072834710E+03  0.43630869690E+03  0.60339412839E+02 0.  0.
          6    2    1    2  501    0 -0.46568437851E+02  0.34461407228E+03 -0.38036183697E+03  0.54405965042E+03  0.17435107680E+03 0.  0.
         24    2    5    5    0    0 -0.32278845114E+02  0.15680469775E+03 -0.96479734533E+02  0.20334321157E+03  0.80065507172E+02 0.  0.
          5    1    5    5  501    0 -0.14289592737E+02  0.18780937453E+03 -0.28388210244E+03  0.34071643885E+03  0.47000000000E+01 0. -1.
        -11    1    6    6    0    0 -0.33124376780E+01  0.14448685799E+02  0.14341694548E+02  0.20625735555E+02  0.00000000000E+00 0.  1.
         12    1    6    6    0    0 -0.28966407436E+02  0.14235601195E+03 -0.11082142908E+03  0.18271747602E+03  0.00000000000E+00 0. -1.
         -5    1    3    3    0  503 -0.55939083641E+02 -0.99418567080E+02 -0.14876540843E+03  0.18752724950E+03  0.47000000000E+01 0.  1.
         11    1    4    4    0    0  0.78045231542E+02 -0.20105664253E+03 -0.23387938187E+03  0.31814210180E+03  0.00000000000E+00 0. -1.
        -12    1    4    4    0    0  0.24462289950E+02 -0.44138862663E+02 -0.10684896523E+03  0.11816659510E+03  0.00000000000E+00 0.  1.
</event>
<event>
12    1  0.1032880E+000  0.1807778E+03  0.7818608E-02  0.1167214E+00
         21   -1    0    0  501  502  0.00000000000E+00  0.00000000000E+00  0.51742077228E+03  0.51742077228E+03  0.00000000000E+00 0.  1.
         21   -1    0    0  502  503 -0.00000000000E+00 -0.00000000000E+00 -0.91364054499E+02  0.91364054499E+02  0.00000000000E+00 0.  1.
         -6    2    1    2    0  503  0.46070410809E+01 -0.51005015873E+02  0.38312178090E+03  0.42363061175E+03  0.17337202697E+03 0.  0.
        -24    2    3    3    0    0  0.70671025433E+02 -0.41856115108E+02  0.23720549342E+03  0.26312576644E+03  0.78882156727E+02 0.  0.
          6    2    1    2  501    0 -0.46070410809E+01  0.51005015873E+02  0.42934936873E+02  0.18515421503E+03  0.17267292221E+03 0.  0.
         24    2    5    5    0    0 -0.19213557066E+02  0.20139747418E+02  0.91935881525E+02  0.12524430197E+03  0.80368891132E+02 0.  0.
          5    1    5    5  501    0  0.14606515985E+02  0.30865268456E+02 -0.49000944652E+02  0.59909913060E+02  0.47000000000E+01 0. -1.
        -13    1    6    6    0    0 -0.17680914009E+00 -0.15324102269E+02 -0.81576336334E+01  0.17361058675E+02  0.00000000000E+00 0.  1.
         14    1    6    6    0    0 -0.19036747926E+02  0.35463849686E+02  0.10009351516E+03  0.10788324329E+03  0.00000000000E+00 0. -1.
         -5    1    3    3    0  503 -0.66063984352E+02 -0.91489007652E+01  0.14591628749E+03  0.16050484531E+03  0.47000000000E+01 0.  1.
         11    1    4    4    0    0  0.59905182107E+02 -0.42113161458E+02  0.92294627816E+02  0.11781531112E+03  0.00000000000E+00 0. -1.
        -12    1    4    4    0    0  0.10765843326E+02  0.25704634949E+00  0.14491086560E+03  0.14531045532E+03  0.00000000000E+00 0.  1.
</event>
<event>
12    1  0.1032880E+000  0.3022545E+03  0.7818608E-02  0.1084262E+00
         21   -1    0    0  501  502  0.00000000000E+00  0.00000000000E+00  0.27992888207E+03  0.27992888207E+03  0.00000000000E+00 0.  1.
         21   -1    0    0  502  503 -0.00000000000E+00 -0.00000000000E+00 -0.35343851002E+03  0.35343851002E+03  0.00000000000E+00 0.  1.
         -6    2    1    2    0  503  0.21869972882E+03 -0.11654352295E+03 -0.12633568955E+03  0.32653133276E+03  0.17102643272E+03 0.  0.
        -24    2    3    3    0    0  0.58864579120E+02  0.67708567543E+01 -0.45658662631E+02  0.10908114537E+03  0.79392062735E+02 0.  0.
          6    2    1    2  501    0 -0.21869972882E+03  0.11654352295E+03  0.52826061603E+02  0.30683605934E+03  0.17304857814E+03 0.  0.
         24    2    5    5    0    0 -0.22369609777E+03  0.13665476094E+03  0.65116617285E+02  0.28228868972E+03  0.82050366549E+02 0.  0.
          5    1    5    5  501    0  0.49963689505E+01 -0.20111237991E+02 -0.12290555682E+02  0.24547369619E+02  0.47000000000E+01 0. -1.
        -13    1    6    6    0    0  0.30665710298E+01  0.12785678993E+02  0.13403246402E+02  0.18775634724E+02  0.00000000000E+00 0.  1.
         14    1    6    6    0    0 -0.22676266880E+03  0.12386908194E+03  0.51713370883E+02  0.26351305500E+03  0.00000000000E+00 0. -1.
         -5    1    3    3    0  503  0.15983514970E+03 -0.12331437970E+03 -0.80677026924E+02  0.21745018739E+03  0.47000000000E+01 0.  1.
         13    1    4    4    0    0  0.57936883897E+02 -0.22774297302E+02 -0.49149555896E+02  0.79316013377E+02  0.00000000000E+00 0. -1.
        -14    1    4    4    0    0  0.92769522385E+00  0.29545154057E+02  0.34908932649E+01  0.29765131991E+02  0.00000000000E+00 0.  1.
</event>
<event>
12    1  0.1032880E+000  0.2126488E+03  0.7818608E-02  0.1139698E+00
         21   -1    0    0  501  502  0.00000000000E+00  0.00000000000E+00  0.25886604231E+03  0.25886604231E+03  0.00000000000E+00 0.  1.
         21   -1    0    0  502  503 -0.00000000000E+00 -0.00000000000E+00 -0.17666161798E+03  0.17666161798E+03  0.00000000000E+00 0.  1.
         -6    2    1    2    0  503  0.77498505558E+02  0.97138079282E+02  0.68757039902E+02  0.22245414251E+03  0.17122058923E+03 0.  0.
        -24    2    3    3    0    0  0.74643582339E+02  0.30964795657E+02  0.98009896960E+02  0.14989469311E+03  0.79573840960E+02 0.  0.
          6    2    1    2  501    0 -0.77498505558E+02 -0.97138079282E+02  0.13447384435E+02  0.21307351778E+03  0.17256206715E+03 0.  0.
         24    2    5    5    0    0 -0.79637527739E+02 -0.13155255636E+03 -0.70711307975E+01  0.17267511291E+03  0.78220731369E+02 0.  0.
          5    1    5    5  501    0  0.21390221812E+01  0.34414477082E+02  0.20518515232E+02  0.40398404870E+02  0.47000000000E+01 0. -1.
        -11    1    6    6    0    0 -0.27240138057E+01  0.97897553231E+01 -0.59130861304E+01  0.11756876630E+02  0.00000000000E+00 0.  1.
         12    1    6    6    0    0 -0.76913513933E+02 -0.14134231169E+03 -0.11580446671E+01  0.16091823628E+03  0.00000000000E+00 0. -1.
         -5    1    3    3    0  503  0.28549232191E+01  0.66173283625E+02 -0.29252857058E+02  0.72559449407E+02  0.47000000000E+01 0.  1.
         13    1    4    4    0    0  0.30963729585E+02  0.53020612905E+02  0.37001376832E+02  0.71687096678E+02  0.00000000000E+00 0. -1.
        -14    1    4    4    0    0  0.43679852754E+02 -0.22055817248E+02  0.61008520127E+02  0.78207596429E+02  0.00000000000E+00 0.  1.
</event>
<event>
12    1  0.1032880E+000  0.5247802E+03  0.7818608E-02  0.1007548E+00
         21   -1    0    0  501  502  0.00000000000E+00  0.00000000000E+00  0.13949013915E+04  0.13949013915E+04  0.00000000000E+00 0. -1.
         21   -1    0    0  502  503 -0.00000000000E+00 -0.00000000000E+00 -0.33701892973E+03  0.33701892973E+03  0.00000000000E+00 0. -1.
         -6    2    1    2    0  503 -0.26770501784E+03 -0.41623442803E+03 -0.28678313573E+02  0.52556322636E+03  0.17457715650E+03 0.  0.
        -24    2    3    3    0    0 -0.14020789928E+03 -0.33972687676E+03 -0.22439091650E+02  0.37666749595E+03  0.79386924974E+02 0.  0.
          6    2    1    2  501    0  0.26770501784E+03  0.41623442803E+03  0.10865607753E+04  0.12063570948E+04  0.17252839235E+03 0.  0.
         24    2    5    5    0    0  0.25654180920E+03  0.29309083030E+03  0.77145853712E+03  0.86783017804E+03  0.79151808178E+02 0.  0.
          5    1    5    5  501    0  0.11163208646E+02  0.12314359773E+03  0.31510223818E+03  0.33852691679E+03  0.47000000000E+01 0. -1.
        -11    1    6    6    0    0  0.46654664286E+02  0.52183040125E+02  0.81187629265E+02  0.10719682142E+03  0.00000000000E+00 0.  1.
         12    1    6    6    0    0  0.20988714491E+03  0.24090779018E+03  0.69027090786E+03  0.76063335662E+03  0.00000000000E+00 0. -1.
         -5    1    3    3    0  503 -0.12749711856E+03 -0.76507551271E+02 -0.62392219232E+01  0.14889573041E+03  0.47000000000E+01 0.  1.
         13    1    4    4    0    0  0.77914389930E+01 -0.48919981895E+02 -0.66924098960E+01  0.49986593206E+02  0.00000000000E+00 0. -1.
        -14    1    4    4    0    0 -0.14799933828E+03 -0.29080689487E+03 -0.15746681754E+02  0.32668090275E+03  0.00000000000E+00 0.  1.
</event>
<event>
12    1  0.1032880E+000  0.3600622E+03  0.7818608E-02  0.1058572E+00
         21   -1    0    0  503  502  0.00000000000E+00  0.00000000000E+00  0.66313186629E+03  0.66313186629E+03  0.00000000000E+00 0.  1.
         21   -1    0    0  501  503 -0.00000000000E+00 -0.00000000000E+00 -0.47926774628E+03  0.47926774628E+03  0.00000000000E+00 0.  1.
          6    2    1    2  501    0 -0.31212701116E+03 -0.49755555544E+02  0.53149932282E+03  0.64190486686E+03  0.17219593940E+03 0.  0.
         24    2    3    3    0    0 -0.17226624428E+03 -0.46926818622E+02  0.18844403927E+03  0.27139433606E+03  0.79157719055E+02 0.  0.
         -6    2    1    2    0  502  0.31212701116E+03  0.49755555544E+02 -0.34763520281E+03  0.50049474571E+03  0.17246990998E+03 0.  0.
        -24    2    5    5    0    0  0.26413736087E+03  0.50986282923E+02 -0.19826356849E+03  0.34352820034E+03  0.79592935529E+02 0.  0.
          5    1    3    3  501    0 -0.13986076688E+03 -0.28287369222E+01  0.34305528355E+03  0.37051053080E+03  0.47000000000E+01 0. -1.
        -11    1    4    4    0    0 -0.88085038215E+02 -0.59399496537E+02  0.77178842713E+02  0.13131583267E+03  0.00000000000E+00 0.  1.
         12    1    4    4    0    0 -0.84181206062E+02  0.12472677915E+02  0.11126519656E+03  0.14007850339E+03  0.00000000000E+00 0. -1.
         -5    1    5    5    0  502  0.47989650289E+02 -0.12307273791E+01 -0.14937163432E+03  0.15696654537E+03  0.47000000000E+01 0.  1.
         11    1    6    6    0    0  0.46505945130E+02  0.29013422829E+02 -0.73570679908E+02  0.91745444458E+02  0.00000000000E+00 0. -1.
        -12    1    6    6    0    0  0.21763141574E+03  0.21972860094E+02 -0.12469288858E+03  0.25178275588E+03  0.00000000000E+00 0.  1.
</event>
<event>
12    1  0.1032880E+000  0.1760968E+03  0.7818608E-02  0.1171938E+00
         21   -1    0    0  503  502  0.00000000000E+00  0.00000000000E+00  0.49394252270E+02  0.49394252270E+02  0.00000000000E+00 0. -1.
         21   -1    0    0  501  503 -0.00000000000E+00 -0.00000000000E+00 -0.72298060107E+03  0.72298060107E+03  0.00000000000E+00 0. -1.
          6    2    1    2  501    0 -0.41164402993E+01 -0.32928286122E+02 -0.19253255905E+03  0.26010263946E+03  0.17170724986E+03 0.  0.
         24    2    3    3    0    0 -0.14906245648E+02 -0.87515248785E+02 -0.13949550982E+03  0.18308851749E+03  0.78621199738E+02 0.  0.
         -6    2    1    2    0  502  0.41164402993E+01  0.32928286122E+02 -0.48105378975E+03  0.51227221388E+03  0.17294176872E+03 0.  0.
        -24    2    5    5    0    0  0.51008076170E+02  0.55323119602E+02 -0.40678891636E+03  0.42151035239E+03  0.80816355390E+02 0.  0.
          5    1    3    3  501    0  0.10789805349E+02  0.54586962663E+02 -0.53037049224E+02  0.77014121969E+02  0.47000000000E+01 0. -1.
        -11    1    4    4    0    0  0.19364056363E+01 -0.97148843757E+02 -0.10202729345E+03  0.14089434381E+03  0.00000000000E+00 0.  1.
         12    1    4    4    0    0 -0.16842651284E+02  0.96335949718E+01 -0.37468216374E+02  0.42194173681E+02  0.00000000000E+00 0. -1.
         -5    1    5    5    0  502 -0.46891635870E+02 -0.22394833480E+02 -0.74264873391E+02  0.90761861489E+02  0.47000000000E+01 0.  1.
         13    1    6    6    0    0  0.37569547216E+02  0.49804746366E+02 -0.40107767767E+03  0.40590058778E+03  0.00000000000E+00 0. -1.
        -14    1    6    6    0    0  0.13438528954E+02  0.55183732358E+01 -0.57112386934E+01  0.15609764605E+02  0.00000000000E+00 0.  1.
</event>
<event>
12    1  0.1032880E+000  0.1999743E+03  0.7818608E-02  0.1149853E+00
         21   -1    0    0  501  502  0.00000000000E+00  0.00000000000E+00  0.22222310296E+03  0.22222310296E+03  0.00000000000E+00 0.  1.
         21   -1    0    0  502  503 -0.00000000000E+00 -0.00000000000E+00 -0.18909856509E+03  0.18909856509E+03  0.00000000000E+00 0. -1.
         -6    2    1    2    0  503  0.93095575240E+02 -0.42241946353E+02 -0.29640799937E+02  0.20172874595E+03  0.17136143604E+03 0.  0.
        -24    2    3    3    0    0  0.24496227654E+02 -0.34352677089E+02  0.45687626036E+02  0.99432251298E+02  0.77583773001E+02 0.  0.
          6    2    1    2  501    0 -0.93095575240E+02  0.42241946353E+02  0.62765337799E+02  0.20959292210E+03  0.17186778990E+03 0.  0.
         24    2    5    5    0    0 -0.85378953505E+02  0.10785710719E+02 -0.21689284814E+02  0.11901856429E+03  0.79303822819E+02 0.  0.
          5    1    5    5  501    0 -0.77166217347E+01  0.31456235634E+02  0.84454622613E+02  0.90574357806E+02  0.47000000000E+01 0. -1.
        -11    1    6    6    0    0 -0.71227697143E+02  0.24285131356E+02  0.15653183914E+02  0.76864651251E+02  0.00000000000E+00 0.  1.
         12    1    6    6    0    0 -0.14151256362E+02 -0.13499420637E+02 -0.37342468728E+02  0.42153913043E+02  0.00000000000E+00 0. -1.
         -5    1    3    3    0  503  0.68599347586E+02 -0.78892692642E+01 -0.75328425972E+02  0.10229649465E+03  0.47000000000E+01 0.  1.
         11    1    4    4    0    0 -0.92358994448E+01  0.20340788279E+02  0.36276680826E+01  0.22632045468E+02  0.00000000000E+00 0. -1.
        -12    1    4    4    0    0  0.33732127099E+02 -0.54693465368E+02  0.42059957953E+02  0.76800205830E+02  0.00000000000E+00 0.  1.
</event>
<event>
12    1  0.1032880E+000  0.4147583E+03  0.7818608E-02  0.1038904E+00
         21   -1    0    0  503  502  0.00000000000E+00  0.00000000000E+00  0.12294476542E+04  0.12294476542E+04  0.00000000000E+00 0.  1.
         21   -1    0    0  501  503 -0.00000000000E+00 -0.00000000000E+00 -0.16193159228E+03  0.16193159228E+03  0.00000000000E+00 0.  1.
          6    2    1    2  501    0  0.37703541345E+03 -0.11379155412E+02  0.27526666987E+03  0.49779134146E+03  0.17245083914E+03 0.  0.
         24    2    3    3    0    0  0.28997143284E+03  0.13423222013E+02  0.27429763166E+03  0.40713637094E+03  0.79102585639E+02 0.  0.
         -6    2    1    2    0  502 -0.37703541345E+03  0.11379155412E+02  0.79224939202E+03  0.89358790498E+03  0.16898241509E+03 0.  0.
        -24    2    5    5    0    0 -0.37864788086E+03 -0.49533853704E+01  0.78491894534E+03  0.87500895485E+03  0.78384734538E+02 0.  0.
          5    1    3    3  501    0  0.87063980606E+02 -0.24802377425E+02  0.96903820798E+00  0.90654970520E+02  0.47000000000E+01 0. -1.
        -13    1    4    4    0    0 -0.34257443042E+01 -0.34485795552E+01 -0.37878080898E+00  0.48756435357E+01  0.00000000000E+00 0.  1.
         14    1    4    4    0    0  0.29339717715E+03  0.16871801569E+02  0.27467641247E+03  0.40226072740E+03  0.00000000000E+00 0. -1.
         -5    1    5    5    0  502  0.16124674157E+01  0.16332540782E+02  0.73304466807E+01  0.18578950135E+02  0.47000000000E+01 0.  1.
         13    1    6    6    0    0 -0.23360200071E+03  0.34720360795E+02  0.46700432397E+03  0.52332440875E+03  0.00000000000E+00 0. -1.
        -14    1    6    6    0    0 -0.14504588015E+03 -0.39673746165E+02  0.31791462137E+03  0.35168454610E+03  0.00000000000E+00 0.  1.
</event>
<event>
12    1  0.1032880E+000  0.1759624E+03  0.7818608E-02  0.1171848E+00
         21   -1    0    0  503  502  0.00000000000E+00  0.00000000000E+00  0.18890568452E+03  0.18890568452E+03  0.00000000000E+00 0.  1.
         21   -1    0    0  501  503 -0.00000000000E+00 -0.00000000000E+00 -0.17359220781E+03  0.17359220781E+03  0.00000000000E+00 0.  1.
          6    2    1    2  501    0  0.30144076509E+02 -0.20129789366E+02 -0.35796944821E+02  0.17956671254E+03  0.17218858622E+03 0.  0.
         24    2    3    3    0    0  0.75734033043E+02 -0.15073959146E+02  0.11107929814E+02  0.11379314018E+03  0.82840959936E+02 0.  0.
         -6    2    1    2    0  502 -0.30144076509E+02  0.20129789366E+02  0.51110421533E+02  0.18293117978E+03  0.17186525996E+03 0.  0.
        -24    2    5    5    0    0 -0.82130601136E+02 -0.93067695509E+01  0.24662520311E+02  0.11742781176E+03  0.79680609083E+02 0.  0.
          5    1    3    3  501    0 -0.45589956534E+02 -0.50558302199E+01 -0.46904874635E+02  0.65773572356E+02  0.47000000000E+01 0. -1.
        -11    1    4    4    0    0  0.57725995391E+02 -0.42542648905E+02 -0.13222614395E+02  0.72917796533E+02  0.00000000000E+00 0.  1.
         12    1    4    4    0    0  0.18008037652E+02  0.27468689759E+02  0.24330544209E+02  0.40875343652E+02  0.00000000000E+00 0. -1.
         -5    1    5    5    0  502  0.51986524627E+02  0.29436558917E+02  0.26447901222E+02  0.65503368026E+02  0.47000000000E+01 0.  1.
         13    1    6    6    0    0 -0.12475378496E+02  0.16043017649E+02  0.37066790474E+02  0.42272454861E+02  0.00000000000E+00 0. -1.
        -14    1    6    6    0    0 -0.69655222640E+02 -0.25349787200E+02 -0.12404270163E+02  0.75155356898E+02  0.00000000000E+00 0.  1.
</event>
<event>
12    1  0.1032880E+000  0.1959290E+03  0.7818608E-02  0.1153493E+00
         21   -1    0    0  501  502  0.00000000000E+00  0.00000000000E+00  0.47075558896E+02  0.47075558896E+02  0.00000000000E+00 0.  1.
         21   -1    0    0  502  503 -0.00000000000E+00 -0.00000000000E+00 -0.82577406831E+03  0.82577406831E+03  0.00000000000E+00 0.  1.
         -6    2    1    2    0  503  0.75129328687E+02  0.55154643620E+02 -0.45045730066E+03  0.49122291244E+03  0.17234186738E+03 0.  0.
        -24    2    3    3    0    0  0.43056049673E+02 -0.28467335666E+02 -0.13898735434E+03  0.16709801660E+03  0.77071719013E+02 0.  0.
          6    2    1    2  501    0 -0.75129328687E+02 -0.55154643620E+02 -0.32824120875E+03  0.38162671476E+03  0.17090993989E+03 0.  0.
         24    2    5    5    0    0 -0.11643704487E+03 -0.38990381876E+02 -0.21396223932E+03  0.25895078547E+03  0.78726324308E+02 0.  0.
          5    1    5    5  501    0  0.41307716187E+02 -0.16164261744E+02 -0.11427896943E+03  0.12267592929E+03  0.47000000000E+01 0. -1.
        -11    1    6    6    0    0 -0.82977796787E+02 -0.49213724507E+02 -0.19849522322E+03  0.22069811753E+03  0.00000000000E+00 0.  1.
         12    1    6    6    0    0 -0.33459248086E+02  0.10223342632E+02 -0.15467016102E+02  0.38252667935E+02  0.00000000000E+00 0. -1.
         -5    1    3    3    0  503  0.32073279013E+02  0.83621979286E+02 -0.31146994632E+03  0.32412489584E+03  0.47000000000E+01 0.  1.
         11    1    4    4    0    0 -0.27297065557E+00  0.93698677233E+01 -0.92945182214E+02  0.93416678548E+02  0.00000000000E+00 0. -1.
        -12    1    4    4    0    0  0.43329020329E+02 -0.37837203390E+02 -0.46042172126E+02  0.73681338052E+02  0.00000000000E+00 0.  1.
</event>
<event>
12    1  0.1032880E+000  0.2152617E+03  0.7818608E-02  0.1140294E+00
         21   -1    0    0  501  502  0.00000000000E+00  0.00000000000E+00  0.74701402924E+03  0.74701402924E+03  0.00000000000E+00 0.  1.
         21   -1    0    0  502  503 -0.00000000000E+00 -0.00000000000E+00 -0.25120539301E+03  0.25120539301E+03  0.00000000000E+00 0.  1.
         -6    2    1    2    0  503  0.61195867928E+02 -0.69168159417E+02 -0.19170774353E+03  0.27779152671E+03  0.17856960787E+03 0.  0.
        -24    2    3    3    0    0  0.95637776571E+02 -0.82635835605E+01 -0.93470258949E+02  0.15709228973E+03  0.82014797830E+02 0.  0.
          6    2    1    2  501    0 -0.61195867928E+02  0.69168159417E+02  0.68751637976E+03  0.72042789555E+03  0.19444385236E+03 0.  0.
         24    2    5    5    0    0 -0.77208518011E+02  0.11866188146E+03  0.53722111693E+03  0.56131538971E+03  0.80166332659E+02 0.  0.
          5    1    5    5  501    0  0.16012650083E+02 -0.49493722039E+02  0.15029526283E+03  0.15911250584E+03  0.47000000000E+01 0. -1.
        -11    1    6    6    0    0 -0.52842012064E+02  0.88776641261E+02  0.23582430819E+03  0.25746198672E+03  0.00000000000E+00 0.  1.
         12    1    6    6    0    0 -0.24366505947E+02  0.29885240195E+02  0.30139680873E+03  0.30385340299E+03  0.00000000000E+00 0. -1.
         -5    1    3    3    0  503 -0.34441908644E+02 -0.60904575857E+02 -0.98237484580E+02  0.12069923698E+03  0.47000000000E+01 0.  1.
         13    1    4    4    0    0  0.23226223106E+02 -0.26371624477E+02 -0.70870357402E+02  0.79104535746E+02  0.00000000000E+00 0. -1.
        -14    1    4    4    0    0  0.72411553466E+02  0.18108040917E+02 -0.22599901547E+02  0.77987753982E+02  0.00000000000E+00 0.  1.
</event>
<event>
12    1  0.1032880E+000  0.4077461E+03  0.7818608E-02  0.1041148E+00
         21   -1    0    0  503  502  0.00000000000E+00  0.00000000000E+00  0.13946679297E+03  0.13946679297E+03  0.00000000000E+00 0.  1.
         21   -1    0    0  501  503 -0.00000000000E+00 -0.00000000000E+00 -0.14428958135E+04  0.14428958135E+04  0.00000000000E+00 0. -1.
          6    2    1    2  501    0 -0.20520106434E+03  0.30764133903E+03 -0.32129204112E+03  0.51894832269E+03  0.17125453467E+03 0.  0.
         24    2    3    3    0    0 -0.18252940587E+03  0.15697446554E+03 -0.18226786290E+03  0.31263709420E+03  0.81008715515E+02 0.  0.
         -6    2    1    2    0  502  0.20520106434E+03 -0.30764133903E+03 -0.98213697944E+03  0.10634142838E+04  0.17177375337E+03 0.  0.
        -24    2    5    5    0    0  0.16891034269E+03 -0.19888193444E+03 -0.52471240932E+03  0.59181598874E+03  0.82694161352E+02 0.  0.
          5    1    3    3  501    0 -0.22671658464E+02  0.15066687350E+03 -0.13902417822E+03  0.20631122848E+03  0.47000000000E+01 0. -1.
        -11    1    4    4    0    0 -0.54367811855E+02  0.39601240728E+02 -0.99614423741E+02  0.12019630049E+03  0.00000000000E+00 0.  1.
         12    1    4    4    0    0 -0.12816159402E+03  0.11737322481E+03 -0.82653439154E+02  0.19244079372E+03  0.00000000000E+00 0. -1.
         -5    1    5    5    0  502  0.36290721647E+02 -0.10875940459E+03 -0.45742457012E+03  0.47159829507E+03  0.47000000000E+01 0.  1.
         11    1    6    6    0    0  0.12338380894E+03 -0.81805766981E+02 -0.27743573572E+03  0.31446197747E+03  0.00000000000E+00 0. -1.
        -12    1    6    6    0    0  0.45526533752E+02 -0.11707616746E+03 -0.24727667359E+03  0.27735401127E+03  0.00000000000E+00 0.  1.
</event>
<event>
12    1  0.1032880E+000  0.2103042E+03  0.7818608E-02  0.1143967E+00
         21   -1    0    0  501  502  0.00000000000E+00  0.00000000000E+00  0.96016374098E+03  0.96016374098E+03  0.00000000000E+00 0. -1.
         21   -1    0    0  502  503 -0.00000000000E+00 -0.00000000000E+00 -0.47433380554E+02  0.47433380554E+02  0.00000000000E+00 0. -1.
         -6    2    1    2    0  503 -0.79981632541E+02  0.54995021349E+02  0.61864555959E+03  0.65341425906E+03  0.18656460444E+03 0.  0.
        -24    2    3    3    0    0  0.21724617022E+02  0.20002460256E+02  0.40768088421E+03  0.41656657639E+03  0.80324042544E+02 0.  0.
          6    2    1    2  501    0  0.79981632541E+02 -0.54995021349E+02  0.29408480083E+03  0.35418286247E+03  0.17186656472E+03 0.  0.
         24    2    5    5    0    0  0.16151222610E+02 -0.85964536484E+02  0.14250798749E+03  0.18675809595E+03  0.83182308095E+02 0.  0.
          5    1    5    5  501    0  0.63830409931E+02  0.30969515136E+02  0.15157681335E+03  0.16742476652E+03  0.47000000000E+01 0. -1.
        -11    1    6    6    0    0 -0.22209320605E+02 -0.33176656800E+02  0.10302162795E+03  0.11048710470E+03  0.00000000000E+00 0.  1.
         12    1    6    6    0    0  0.38360543215E+02 -0.52787879685E+02  0.39486359534E+02  0.76270991252E+02  0.00000000000E+00 0. -1.
         -5    1    3    3    0  503 -0.10170624956E+03  0.34992561093E+02  0.21096467538E+03  0.23684768268E+03  0.47000000000E+01 0.  1.
         13    1    4    4    0    0  0.51647013759E+01 -0.19155354965E+02  0.30204716960E+03  0.30269802515E+03  0.00000000000E+00 0. -1.
        -14    1    4    4    0    0  0.16559915646E+02  0.39157815221E+02  0.10563371461E+03  0.11386855124E+03  0.00000000000E+00 0.  1.
</event>
<event>
12    1  0.1032880E+000  0.3255001E+03  0.7818608E-02  0.1073157E+00
         21   -1    0    0  503  502  0.00000000000E+00  0.00000000000E+00  0.23531938374E+03  0.23531938374E+03  0.00000000000E+00 0.  1.
         21   -1    0    0  501  503 -0.00000000000E+00 -0.00000000000E+00 -0.46438938726E+03  0.46438938726E+03  0.00000000000E+00 0.  1.
          6    2    1    2  501    0 -0.19271665076E+03 -0.19782759231E+03 -0.17587738258E+03  0.36989098364E+03  0.17207853532E+03 0.  0.
         24    2    3    3    0    0 -0.13458006341E+03 -0.13903812358E+03 -0.43116920018E+02  0.21341895789E+03  0.79026511495E+02 0.  0.
         -6    2    1    2    0  502  0.19271665076E+03  0.19782759231E+03 -0.53192620936E+02  0.32981778735E+03  0.17226390851E+03 0.  0.
        -24    2    5    5    0    0  0.17883479171E+03  0.15916355018E+03  0.11503509688E+02  0.25303697281E+03  0.81120037223E+02 0.  0.
          5    1    3    3  501    0 -0.58136587345E+02 -0.58789468725E+02 -0.13276046256E+03  0.15647202575E+03  0.47000000000E+01 0. -1.
        -13    1    4    4    0    0 -0.58845405768E+02 -0.72090221814E+02  0.18719540920E+02  0.94922089492E+02  0.00000000000E+00 0.  1.
         14    1    4    4    0    0 -0.75734657644E+02 -0.66947901769E+02 -0.61836460938E+02  0.11849686840E+03  0.00000000000E+00 0. -1.
         -5    1    5    5    0  502  0.13881859044E+02  0.38664042124E+02 -0.64696130624E+02  0.76780814542E+02  0.47000000000E+01 0.  1.
         11    1    6    6    0    0  0.48971059440E+01  0.29002629540E+02 -0.16929627543E+02  0.33937390230E+02  0.00000000000E+00 0. -1.
        -12    1    6    6    0    0  0.17393768577E+03  0.13016092064E+03  0.28433137231E+02  0.21909958258E+03  0.00000000000E+00 0.  1.
</event>
<event>
12    1  0.1032880E+000  0.2185658E+03  0.7818608E-02  0.1135181E+00
         21   -1    0    0  501  502  0.00000000000E+00  0.00000000000E+00  0.21977537059E+04  0.21977537059E+04  0.00000000000E+00 0.  1.
         21   -1    0    0  502  503 -0.00000000000E+00 -0.00000000000E+00 -0.35765342187E+02  0.35765342187E+02  0.00000000000E+00 0.  1.
         -6    2    1    2    0  503 -0.12521476615E+03 -0.46563639245E+02  0.17851310414E+04  0.17984615274E+04  0.17298589578E+03 0.  0.
        -24    2    3    3    0    0 -0.15419567924E+03 -0.17193247252E+02  0.13049912970E+04  0.13165291903E+04  0.78580586688E+02 0.  0.
          6    2    1    2  501    0  0.12521476615E+03  0.46563639245E+02  0.37685732231E+03  0.43505752076E+03  0.17148380340E+03 0.  0.
         24    2    5    5    0    0  0.23766574377E+02  0.61203276743E+02  0.25728464075E+03  0.27749556223E+03  0.80608371465E+02 0.  0.
          5    1    5    5  501    0  0.10144819177E+03 -0.14639637498E+02  0.11957268156E+03  0.15756195853E+03  0.47000000000E+01 0. -1.
        -11    1    6    6    0    0  0.26098588587E+02 -0.13237949272E+02  0.64659088954E+02  0.70973075257E+02  0.00000000000E+00 0.  1.
         12    1    6    6    0    0 -0.23320142099E+01  0.74441226015E+02  0.19262555180E+03  0.20652248697E+03  0.00000000000E+00 0. -1.
         -5    1    3    3    0  503  0.28980913094E+02 -0.29370391993E+02  0.48013974448E+03  0.48193233704E+03  0.47000000000E+01 0.  1.
         13    1    4    4    0    0 -0.10964997002E+03 -0.46571575351E+02  0.97506755850E+03  0.98231806010E+03  0.00000000000E+00 0. -1.
        -14    1    4    4    0    0 -0.44545709225E+02  0.29378328099E+02  0.32992373846E+03  0.33421113023E+03  0.00000000000E+00 0.  1.
</event>
<event>
12    1  0.1032880E+000  0.2268729E+03  0.7818608E-02  0.1128926E+00
         21   -1    0    0  503  502  0.00000000000E+00  0.00000000000E+00  0.40306972902E+03  0.40306972902E+03  0.00000000000E+00 0. -1.
         21   -1    0    0  501  503 -0.00000000000E+00 -0.00000000000E+00 -0.18568723008E+03  0.18568723008E+03  0.00000000000E+00 0. -1.
          6    2    1    2  501    0 -0.81651195513E+02  0.12389184340E+03  0.27343019446E+03  0.35506347377E+03  0.17114290105E+03 0.  0.
         24    2    3    3    0    0 -0.84550246894E+02  0.80173688299E+02  0.91452378442E+02  0.16782646593E+03  0.78902601979E+02 0.  0.
         -6    2    1    2    0  502  0.81651195513E+02 -0.12389184340E+03 -0.56047695518E+02  0.23369348533E+03  0.17162515645E+03 0.  0.
        -24    2    5    5    0    0  0.72636205776E+02 -0.65144663219E+02 -0.99360460449E+02  0.16000096994E+03  0.78790632351E+02 0.  0.
          5    1    3    3  501    0  0.28990513804E+01  0.43718155098E+02  0.18197781602E+03  0.18723700784E+03  0.47000000000E+01 0. -1.
        -11    1    4    4    0    0 -0.33386679777E+02  0.64159189316E+02  0.88275423152E+02  0.11412108610E+03  0.00000000000E+00 0.  1.
         12    1    4    4    0    0 -0.51163567117E+02  0.16014498983E+02  0.31769552896E+01  0.53705379830E+02  0.00000000000E+00 0. -1.
         -5    1    5    5    0  502  0.90149897370E+01 -0.58747180178E+02  0.43312764931E+02  0.73692515392E+02  0.47000000000E+01 0.  1.
         13    1    6    6    0    0  0.36455561822E+02 -0.60575376517E+02 -0.21293642929E+02  0.73836328843E+02  0.00000000000E+00 0. -1.
        -14    1    6    6    0    0  0.36180643955E+02 -0.45692867018E+01 -0.78066817519E+02  0.86164641098E+02  0.00000000000E+00 0.  1.
</event>
<event>
12    1  0.1032880E+000  0.2159668E+03  0.7818608E-02  0.1136994E+00
         21   -1    0    0  503  502  0.00000000000E+00  0.00000000000E+00  0.18277267863E+04  0.18277267863E+04  0.00000000000E+00 0. -1.
         21   -1    0    0  501  503 -0.00000000000E+00 -0.00000000000E+00 -0.26539640511E+02  0.26539640511E+02  0.00000000000E+00 0. -1.
          6    2    1    2  501    0  0.21854031937E+02 -0.12631259095E+03  0.10854161773E+04  0.11066236312E+04  0.17336410799E+03 0.  0.
         24    2    3    3    0    0 -0.18061397327E+02 -0.11418468042E+03  0.48198761541E+03  0.50173649548E+03  0.77865872968E+02 0.  0.
         -6    2    1    2    0  502 -0.21854031937E+02  0.12631259095E+03  0.71577096846E+03  0.74764279554E+03  0.17380794310E+03 0.  0.
        -24    2    5    5    0    0 -0.12323830656E+02  0.21453169036E+00  0.18201823552E+03  0.19909415120E+03  0.79724024946E+02 0.  0.
          5    1    3    3  501    0  0.39915429264E+02 -0.12127910531E+02  0.60342856187E+03  0.60488713574E+03  0.47000000000E+01 0. -1.
        -13    1    4    4    0    0 -0.35416607366E+02 -0.11588157881E+03  0.40175499077E+03  0.41963072932E+03  0.00000000000E+00 0.  1.
         14    1    4    4    0    0  0.17355210039E+02  0.16968983883E+01  0.80232624647E+02  0.82105766164E+02  0.00000000000E+00 0. -1.
         -5    1    5    5    0  502 -0.95302012817E+01  0.12609805926E+03  0.53375273293E+03  0.54854864433E+03  0.47000000000E+01 0.  1.
         11    1    6    6    0    0  0.20882998913E+02  0.17340057666E+02  0.14108741390E+03  0.14367475632E+03  0.00000000000E+00 0. -1.
        -12    1    6    6    0    0 -0.33206829568E+02 -0.17125525975E+02  0.40930821623E+02  0.55419394878E+02  0.00000000000E+00 0.  1.
</event>
<event>
12    1  0.1032880E+000  0.1919079E+03  0.7818608E-02  0.1156953E+00
         21   -1    0    0  501  502  0.00000000000E+00  0.00000000000E+00  0.10785704546E+04  0.10785704546E+04  0.00000000000E+00 0. -1.
         21   -1    0    0  502  503 -0.00000000000E+00 -0.00000000000E+00 -0.42778776702E+02  0.42778776702E+02  0.00000000000E+00 0. -1.
         -6    2    1    2    0  503  0.33632718115E+02  0.77903511580E+02  0.77112466478E+03  0.79442833462E+03  0.17112280199E+03 0.  0.
        -24    2    3    3    0    0 -0.24898127927E+02  0.71542176833E+02  0.64995597049E+03  0.65963119446E+03  0.83260730771E+02 0.  0.
          6    2    1    2  501    0 -0.33632718115E+02 -0.77903511580E+02  0.26466701307E+03  0.32692089664E+03  0.17212939321E+03 0.  0.
         24    2    5    5    0    0 -0.88238994954E+02 -0.36641785625E+02  0.14852572327E+03  0.19203107235E+03  0.75414200206E+02 0.  0.
          5    1    5    5  501    0  0.54606276839E+02 -0.41261725955E+02  0.11614128980E+03  0.13488982429E+03  0.47000000000E+01 0. -1.
        -11    1    6    6    0    0 -0.84761485794E+01 -0.39283087583E+02  0.35192855630E+02  0.53418565613E+02  0.00000000000E+00 0.  1.
         12    1    6    6    0    0 -0.79762846374E+02  0.26413019580E+01  0.11333286764E+03  0.13861250674E+03  0.00000000000E+00 0. -1.
         -5    1    3    3    0  503  0.58530846042E+02  0.63613347464E+01  0.12116869429E+03  0.13479714016E+03  0.47000000000E+01 0.  1.
         11    1    4    4    0    0 -0.51569525340E+02  0.30158184410E+02  0.27208579495E+03  0.27856706884E+03  0.00000000000E+00 0. -1.
        -12    1    4    4    0    0  0.26671397413E+02  0.41383992423E+02  0.37787017554E+03  0.38106412561E+03  0.00000000000E+00 0.  1.
</event>
<event>
12    1  0.1032880E+000  0.2360534E+03  0.7818608E-02  0.1122523E+00
         21   -1    0    0  501  502  0.00000000000E+00  0.00000000000E+00  0.42824113857E+03  0.42824113857E+03  0.00000000000E+00 0. -1.
         21   -1    0    0  502  503 -0.00000000000E+00 -0.00000000000E+00 -0.13052521445E+03  0.13052521445E+03  0.00000000000E+00 0.  1.
         -6    2    1    2    0  503  0.15176002555E+03 -0.55435617014E+02  0.12910203925E+03  0.26867694300E+03  0.17151020428E+03 0.  0.
        -24    2    3    3    0    0  0.40628799528E+02 -0.81736312585E+02  0.52841690740E+02  0.13127386174E+03  0.78160465394E+02 0.  0.
          6    2    1    2  501    0 -0.15176002555E+03  0.55435617014E+02  0.16861388486E+03  0.29008941002E+03  0.17209593444E+03 0.  0.
         24    2    5    5    0    0 -0.38168524069E+02  0.55895103474E+02  0.27461245353E+02  0.10884538122E+03  0.80697572419E+02 0.  0.
          5    1    5    5  501    0 -0.11359150148E+03 -0.45948645983E+00  0.14115263951E+03  0.18124402880E+03  0.47000000000E+01 0. -1.
        -13    1    6    6    0    0 -0.55582155286E+02  0.28006457537E+02 -0.52572486632E+01  0.62460998339E+02  0.00000000000E+00 0.  1.
         14    1    6    6    0    0  0.17413631217E+02  0.27888645938E+02  0.32718494016E+02  0.46384382879E+02  0.00000000000E+00 0. -1.
         -5    1    3    3    0  503  0.11113122602E+03  0.26300695570E+02  0.76260348515E+02  0.13740308126E+03  0.47000000000E+01 0.  1.
         13    1    4    4    0    0 -0.12078915770E+02 -0.39273656489E+00  0.29058534533E+02  0.31471461317E+02  0.00000000000E+00 0. -1.
        -14    1    4    4    0    0  0.52707715299E+02 -0.81343576020E+02  0.23783156207E+02  0.99802400426E+02  0.00000000000E+00 0.  1.
</event>
<event>
12    1  0.1032880E+000  0.1769144E+03  0.7818608E-02  0.1171088E+00
         21   -1    0    0  501  502  0.00000000000E+00  0.00000000000E+00  0.14022044715E+03  0.14022044715E+03  0.00000000000E+00 0.  1.
         21   -1    0    0  502  503 -0.00000000000E+00 -0.00000000000E+00 -0.37968010868E+03  0.37968010868E+03  0.00000000000E+00 0.  1.
         -6    2    1    2    0  503  0.31813120922E+02 -0.25392326485E+02  0.48071897750E+02  0.18230155415E+03  0.17107338889E+03 0.  0.
        -24    2    3    3    0    0  0.70790125215E+02  0.20985522679E+01 -0.95613633232E+01  0.10734397908E+03  0.80097842838E+02 0.  0.
          6    2    1    2  501    0 -0.31813120922E+02  0.25392326485E+02 -0.28753155928E+03  0.33759900168E+03  0.17216806743E+03 0.  0.
         24    2    5    5    0    0 -0.21787345090E+02 -0.52425440469E+02 -0.18123296697E+03  0.20539612061E+03  0.78224438835E+02 0.  0.
          5    1    5    5  501    0 -0.10025775833E+02  0.77817766954E+02 -0.10629859231E+03  0.13220288107E+03  0.47000000000E+01 0. -1.
        -13    1    6    6    0    0 -0.19547035655E+02  0.12045790477E+02 -0.94814453743E+02  0.97554950206E+02  0.00000000000E+00 0.  1.
         14    1    6    6    0    0 -0.22403094348E+01 -0.64471230946E+02 -0.86418513225E+02  0.10784117040E+03  0.00000000000E+00 0. -1.
         -5    1    3    3    0  503 -0.38977004292E+02 -0.27490878753E+02  0.57633261073E+02  0.74957575068E+02  0.47000000000E+01 0.  1.
         13    1    4    4    0    0 -0.17451536527E+02 -0.56078961024E+01 -0.11051720953E+01  0.18363715071E+02  0.00000000000E+00 0. -1.
        -14    1    4    4    0    0  0.88241661742E+02  0.77064483702E+01 -0.84561912279E+01  0.88980264011E+02  0.00000000000E+00 0.  1.
</event>
<event>
12    1  0.1032880E+000  0.3822227E+03  0.7818608E-02  0.1050315E+00
         21   -1    0    0  503  502  0.00000000000E+00  0.00000000000E+00  0.35681981600E+03  0.35681981600E+03  0.00000000000E+00 0. -1.
         21   -1    0    0  501  503 -0.00000000000E+00 -0.00000000000E+00 -0.44323231773E+03  0.44323231773E+03  0.00000000000E+00 0. -1.
          6    2    1    2  501    0  0.21254442153E+03  0.26649355655E+03  0.71096672147E+02  0.38664761722E+03  0.16807050991E+03 0.  0.
         24    2    3    3    0    0  0.55009944347E+02  0.13784634617E+03 -0.65690421830E+01  0.16888336527E+03  0.80316434322E+02 0.  0.
         -6    2    1    2    0  502 -0.21254442153E+03 -0.26649355655E+03 -0.15750917388E+03  0.41340451652E+03  0.17291676499E+03 0.  0.
        -24    2    5    5    0    0 -0.19744636540E+03 -0.17302674535E+03 -0.16164599825E+03  0.31851932584E+03  0.80011313983E+02 0.  0.
          5    1    3    3  501    0  0.15753447719E+03  0.12864721038E+03  0.77665714330E+02  0.21776425194E+03  0.47000000000E+01 0. -1.
        -11    1    4    4    0    0  0.56113366115E+02  0.14324576881E+03  0.72407268554E+01  0.15401457160E+03  0.00000000000E+00 0.  1.
         12    1    4    4    0    0 -0.11034217685E+01 -0.53994226437E+01 -0.13809769038E+02  0.14868793676E+02  0.00000000000E+00 0. -1.
         -5    1    5    5    0  502 -0.15098056132E+02 -0.93466811200E+02  0.41368243714E+01  0.94885190682E+02  0.47000000000E+01 0.  1.
         11    1    6    6    0    0 -0.29475522353E+02 -0.12285346454E+00 -0.23245820854E+01  0.29567299383E+02  0.00000000000E+00 0. -1.
        -12    1    6    6    0    0 -0.16797084305E+03 -0.17290389188E+03 -0.15932141617E+03  0.28895202645E+03  0.00000000000E+00 0.  1.
</event>
<event>
12    1  0.1032880E+000  0.2849369E+03  0.7818608E-02  0.1093098E+00
         21   -1    0    0  503  502  0.00000000000E+00  0.00000000000E+00  0.11627571802E+04  0.11627571802E+04  0.00000000000E+00 0. -1.
         21   -1    0    0  501  503 -0.00000000000E+00 -0.00000000000E+00 -0.69793642119E+02  0.69793642119E+02  0.00000000000E+00 0. -1.
          6    2    1    2  501    0 -0.22557350412E+03 -0.25197541367E+02  0.57115642180E+03  0.63828574884E+03  0.17225190030E+03 0.  0.
         24    2    3    3    0    0 -0.98532363636E+02  0.44114282438E+02  0.24081470119E+03  0.27760400177E+03  0.86125286010E+02 0.  0.
         -6    2    1    2    0  502  0.22557350412E+03  0.25197541367E+02  0.52180711632E+03  0.59426507351E+03  0.17131838519E+03 0.  0.
        -24    2    5    5    0    0  0.13203249812E+03 -0.42258945992E+02  0.37492263200E+03  0.40745651048E+03  0.78964731792E+02 0.  0.
          5    1    3    3  501    0 -0.12704114049E+03 -0.69311823805E+02  0.33034172061E+03  0.36068174707E+03  0.47000000000E+01 0. -1.
        -13    1    4    4    0    0 -0.22845242154E+02 -0.22619938582E+02  0.94897817309E+02  0.10019562086E+03  0.00000000000E+00 0.  1.
         14    1    4    4    0    0 -0.75687121483E+02  0.66734221020E+02  0.14591688388E+03  0.17740838090E+03  0.00000000000E+00 0. -1.
         -5    1    5    5    0  502  0.93541006001E+02  0.67456487359E+02  0.14688448431E+03  0.18680856303E+03  0.47000000000E+01 0.  1.
         11    1    6    6    0    0  0.12522127918E+03 -0.22930100050E+02  0.24673120663E+03  0.27763725718E+03  0.00000000000E+00 0. -1.
        -12    1    6    6    0    0  0.68112189439E+01 -0.19328845942E+02  0.12819142537E+03  0.12981925330E+03  0.00000000000E+00 0.  1.
</event>
<event>
12    1  0.1032880E+000  0.3111414E+03  0.7818608E-02  0.1079992E+00
         21   -1    0    0  503  502  0.00000000000E+00  0.00000000000E+00  0.15334703224E+03  0.15334703224E+03  0.00000000000E+00 0.  1.
         21   -1    0    0  501  503 -0.00000000000E+00 -0.00000000000E+00 -0.64705646638E+03  0.64705646638E+03  0.00000000000E+00 0.  1.
          6    2    1    2  501    0  0.24743333956E+03  0.76187043705E+02 -0.31480477278E+03  0.44149425613E+03  0.16966853001E+03 0.  0.
         24    2    3    3    0    0  0.17831422949E+03  0.12178797532E+03 -0.23440822984E+03  0.32598412472E+03  0.68484713490E+02 0.  0.
         -6    2    1    2    0  502 -0.24743333956E+03 -0.76187043705E+02 -0.17890466136E+03  0.35890924249E+03  0.17257242925E+03 0.  0.
        -24    2    5    5    0    0 -0.69649489831E+02 -0.14897824179E+02 -0.13528287603E+02  0.10843988179E+03  0.80642400747E+02 0.  0.
          5    1    3    3  501    0  0.69119110068E+02 -0.45600931616E+02 -0.80396542934E+02  0.11551013140E+03  0.47000000000E+01 0. -1.
        -13    1    4    4    0    0  0.90403980002E+02  0.65623512279E+02 -0.71818356093E+02  0.13280512504E+03  0.00000000000E+00 0.  1.
         14    1    4    4    0    0  0.87910249488E+02  0.56164463042E+02 -0.16258987375E+03  0.19317899969E+03  0.00000000000E+00 0. -1.
         -5    1    5    5    0  502 -0.17778384973E+03 -0.61289219525E+02 -0.16537637376E+03  0.25046936070E+03  0.47000000000E+01 0.  1.
         11    1    6    6    0    0 -0.64933429744E+01  0.23553139319E+02 -0.23416240274E+02  0.33841308830E+02  0.00000000000E+00 0. -1.
        -12    1    6    6    0    0 -0.63156146857E+02 -0.38450963498E+02  0.98879526705E+01  0.74598572960E+02  0.00000000000E+00 0.  1.
</event>
<event>
12    1  0.1032880E+000  0.1939134E+03  0.7818608E-02  0.1155048E+00
         21   -1    0    0  501  502  0.00000000000E+00  0.00000000000E+00  0.72759828921E+03  0.72759828921E+03  0.00000000000E+00 0.  1.
         21   -1    0    0  502  503 -0.00000000000E+00 -0.00000000000E+00 -0.33900826732E+03  0.33900826732E+03  0.00000000000E+00 0.  1.
         -6    2    1    2    0  503 -0.41034076919E+02  0.80305062130E+02  0.68536429508E+03  0.71226863671E+03  0.17166739759E+03 0.  0.
        -24    2    3    3    0    0 -0.29124324856E+02 -0.49180790523E+01  0.17898100677E+03  0.19860439747E+03  0.80852285756E+02 0.  0.
          6    2    1    2  501    0  0.41034076919E+02 -0.80305062130E+02 -0.29677427318E+03  0.35433791982E+03  0.17131168591E+03 0.  0.
         24    2    5    5    0    0 -0.54088577097E+01 -0.81622087101E+02 -0.98735400996E+02  0.15086761332E+03  0.79504317458E+02 0.  0.
          5    1    5    5  501    0  0.46442934629E+02  0.13170249703E+01 -0.19803887219E+03  0.20347030650E+03  0.47000000000E+01 0. -1.
        -11    1    6    6    0    0 -0.40262210476E+02 -0.61652746018E+02 -0.58876840177E+02  0.94279313708E+02  0.00000000000E+00 0.  1.
         12    1    6    6    0    0  0.34853352766E+02 -0.19969341082E+02 -0.39858560820E+02  0.56588299612E+02  0.00000000000E+00 0. -1.
         -5    1    3    3    0  503 -0.11909752062E+02  0.85223141183E+02  0.50638328831E+03  0.51366423924E+03  0.47000000000E+01 0.  1.
         13    1    4    4    0    0 -0.29125148970E+02 -0.18464812977E+02  0.18156714579E+03  0.18481301916E+03  0.00000000000E+00 0. -1.
        -14    1    4    4    0    0  0.82411307489E-03  0.13546733925E+02 -0.25861390229E+01  0.13791378312E+02  0.00000000000E+00 0.  1.
</event>
<event>
12    1  0.1032880E+000  0.2220335E+03  0.7818608E-02  0.1133130E+00
         21   -1    0    0  503  502  0.00000000000E+00  0.00000000000E+00  0.25217590382E+03  0.25217590382E+03  0.00000000000E+00 0. -1.
         21   -1    0    0  501  503 -0.00000000000E+00 -0.00000000000E+00 -0.19244331235E+03  0.19244331235E+03  0.00000000000E+00 0. -1.
          6    2    1    2  501    0 -0.21209415074E+02 -0.13185364203E+03  0.41491215592E+02  0.22587694880E+03  0.17737996737E+03 0.  0.
         24    2    3    3    0    0  0.88921347650E+01 -0.57116034517E+02  0.88620259424E+02  0.13241545913E+03  0.79617786812E+02 0.  0.
         -6    2    1    2    0  502  0.21209415074E+02  0.13185364203E+03  0.18241375876E+02  0.21874226737E+03  0.17227945187E+03 0.  0.
        -24    2    5    5    0    0 -0.48866699365E+02  0.11083016648E+03  0.15457992258E+02  0.14537684252E+03  0.78893578367E+02 0.  0.
          5    1    3    3  501    0 -0.30101549839E+02 -0.74737607509E+02 -0.47129043832E+02  0.93461489671E+02  0.47000000000E+01 0. -1.
        -13    1    4    4    0    0  0.26533658438E+01  0.20424662738E+02  0.18312867647E+02  0.27560267047E+02  0.00000000000E+00 0.  1.
         14    1    4    4    0    0  0.62387689212E+01 -0.77540697254E+02  0.70307391777E+02  0.10485519208E+03  0.00000000000E+00 0. -1.
         -5    1    5    5    0  502  0.70076114439E+02  0.21023475550E+02  0.27833836182E+01  0.73365424850E+02  0.47000000000E+01 0.  1.
         11    1    6    6    0    0 -0.91335867351E+01  0.96807753688E+02 -0.72588700782E+01  0.97508229271E+02  0.00000000000E+00 0. -1.
        -12    1    6    6    0    0 -0.39733112630E+02  0.14022412788E+02  0.22716862336E+02  0.47868613246E+02  0.00000000000E+00 0.  1.
</event>
<event>
12    1  0.1032880E+000  0.1820268E+03  0.7818608E-02  0.1166011E+00
         21   -1    0    0  501  502  0.00000000000E+00  0.00000000000E+00  0.25196353355E+02  0.25196353355E+02  0.00000000000E+00 0.  1.
         21   -1    0    0  502  503 -0.00000000000E+00 -0.00000000000E+00 -0.13804702939E+04  0.13804702939E+04  0.00000000000E+00 0.  1.
         -6    2    1    2    0  503 -0.52100909920E+02  0.27775003851E+02 -0.52036663764E+03  0.55128503597E+03  0.17218535844E+03 0.  0.
        -24    2    3    3    0    0 -0.31268893994E+01  0.50112092598E+02 -0.14532710065E+03  0.17237324607E+03  0.77920283076E+02 0.  0.
          6    2    1    2  501    0  0.52100909920E+02 -0.27775003851E+02 -0.83490730289E+03  0.85438161128E+03  0.17149862276E+03 0.  0.
         24    2    5    5    0    0  0.18672824788E+02  0.45808942373E+02 -0.55860109552E+03  0.56645932272E+03  0.79961533165E+02 0.  0.
          5    1    5    5  501    0  0.33428085132E+02 -0.73583946224E+02 -0.27630620737E+03  0.28792228856E+03  0.47000000000E+01 0. -1.
        -13    1    6    6    0    0 -0.27601174089E+02  0.26079909935E+01 -0.24263643192E+03  0.24421520125E+03  0.00000000000E+00 0.  1.
         14    1    6    6    0    0  0.46273998877E+02  0.43200951379E+02 -0.31596466360E+03  0.32224412146E+03  0.00000000000E+00 0. -1.
         -5    1    3    3    0  503 -0.48974020520E+02 -0.22337088747E+02 -0.37503953699E+03  0.37891178990E+03  0.47000000000E+01 0.  1.
         11    1    4    4    0    0 -0.12472069865E+02 -0.16388213459E+02 -0.14090857508E+02  0.24953523446E+02  0.00000000000E+00 0. -1.
        -12    1    4    4    0    0  0.93451804657E+01  0.66500306057E+02 -0.13123624314E+03  0.14741972262E+03  0.00000000000E+00 0.  1.
</event>
<event>
12    1  0.1032880E+000  0.1797689E+03  0.7818608E-02  0.1168435E+00
         21   -1    0    0  501  502  0.00000000000E+00  0.00000000000E+00  0.28419890785E+02  0.28419890785E+02  0.00000000000E+00 0.  1.
         21   -1    0    0  502  503 -0.00000000000E+00 -0.00000000000E+00 -0.12115330470E+04  0.12115330470E+04  0.00000000000E+00 0.  1.
         -6    2    1    2    0  503  0.52653275870E+02 -0.11890317322E+02 -0.75834613545E+03  0.77936238308E+03  0.17147336787E+03 0.  0.
        -24    2    3    3    0    0  0.52623400678E+02 -0.67120427837E+02 -0.52712089237E+03  0.54158608266E+03  0.90469197107E+02 0.  0.
          6    2    1    2  501    0 -0.52653275870E+02  0.11890317322E+02 -0.42476702073E+03  0.46059055468E+03  0.16971414218E+03 0.  0.
         24    2    5    5    0    0 -0.73346910036E+02  0.61039951063E+02 -0.29956152784E+03  0.32442000558E+03  0.80034906272E+02 0.  0.
          5    1    5    5  501    0  0.20693634167E+02 -0.49149633741E+02 -0.12520549289E+03  0.13617054910E+03  0.47000000000E+01 0. -1.
        -13    1    6    6    0    0 -0.24606525320E+02 -0.15967033694E+02 -0.11361861070E+03  0.11734400688E+03  0.00000000000E+00 0.  1.
         14    1    6    6    0    0 -0.48740384716E+02  0.77006984757E+02 -0.18594291714E+03  0.20707599870E+03  0.00000000000E+00 0. -1.
         -5    1    3    3    0  503  0.29875191098E-01  0.55230110515E+02 -0.23122524308E+03  0.23777630042E+03  0.47000000000E+01 0.  1.
         13    1    4    4    0    0  0.16105694271E+02 -0.50932973706E+02 -0.46278888823E+03  0.46586169221E+03  0.00000000000E+00 0. -1.
        -14    1    4    4    0    0  0.36517706407E+02 -0.16187454132E+02 -0.64332004144E+02  0.75724390454E+02  0.00000000000E+00 0.  1.
</event>
<event>
12    1  0.1032880E+000  0.2016297E+03  0.7818608E-02  0.1149325E+00
         21   -1    0    0  503  502  0.00000000000E+00  0.00000000000E+00  0.34644717264E+03  0.34644717264E+03  0.00000000000E+00 0.  1.
         21   -1    0    0  501  503 -0.00000000000E+00 -0.00000000000E+00 -0.11492207975E+03  0.11492207975E+03  0.00000000000E+00 0.  1.
          6    2    1    2  501    0  0.26255065257E+02 -0.10190944815E+03  0.12640837898E+03  0.23797814952E+03  0.17198737540E+03 0.  0.
         24    2    3    3    0    0 -0.10533925080E+02 -0.55510691069E+02  0.14574812624E+03  0.17550903481E+03  0.79802910955E+02 0.  0.
         -6    2    1    2    0  502 -0.26255065257E+02  0.10190944815E+03  0.10511671391E+03  0.22339110287E+03  0.16667092495E+03 0.  0.
        -24    2    5    5    0    0 -0.25190880238E+02  0.10325315089E+03  0.13410980402E+03  0.19396955803E+03  0.91339784808E+02 0.  0.
          5    1    3    3  501    0  0.36788990337E+02 -0.46398757084E+02 -0.19339747258E+02  0.62469114712E+02  0.47000000000E+01 0. -1.
        -11    1    4    4    0    0 -0.27393992300E+02 -0.51134787398E+02  0.45409415984E+02  0.73669616236E+02  0.00000000000E+00 0.  1.
         12    1    4    4    0    0  0.16860067220E+02 -0.43759036709E+01  0.10033871025E+03  0.10183941857E+03  0.00000000000E+00 0. -1.
         -5    1    5    5    0  502 -0.10641850189E+01 -0.13437027383E+01 -0.28993090113E+02  0.29421544845E+02  0.47000000000E+01 0.  1.
         11    1    6    6    0    0  0.29573976626E+02  0.44702078092E+02  0.26539623098E+02  0.59810095079E+02  0.00000000000E+00 0. -1.
        -12    1    6    6    0    0 -0.54764856864E+02  0.58551072800E+02  0.10757018093E+03  0.13415946295E+03  0.00000000000E+00 0.  1.
</event>
<event>
12    1  0.1032880E+000  0.2509029E+03  0.7818608E-02  0.1112892E+00
         21   -1    0    0  501  502  0.00000000000E+00  0.00000000000E+00  0.52450877946E+02  0.52450877946E+02  0.00000000000E+00 0.  1.
         21   -1    0    0  502  503 -0.00000000000E+00 -0.00000000000E+00 -0.11987047438E+04  0.11987047438E+04  0.00000000000E+00 0.  1.
         -6    2    1    2    0  503  0.15687210579E+03 -0.90981001166E+02 -0.60678441289E+03  0.65661218920E+03  0.17339504932E+03 0.  0.
        -24    2    3    3    0    0  0.16518287641E+03 -0.26382189054E+02 -0.46192513600E+03  0.49771481497E+03  0.79773449325E+02 0.  0.
          6    2    1    2  501    0 -0.15687210579E+03  0.90981001166E+02 -0.53946945301E+03  0.59454343259E+03  0.17195407050E+03 0.  0.
         24    2    5    5    0    0 -0.65467852299E+02  0.45756037609E+02 -0.12562434740E+03  0.16829245450E+03  0.78493432342E+02 0.  0.
          5    1    5    5  501    0 -0.91404253491E+02  0.45224963557E+02 -0.41384510561E+03  0.42625097809E+03  0.47000000000E+01 0. -1.
        -11    1    6    6    0    0 -0.73856277515E+01 -0.18963959088E+02 -0.46348047659E+02  0.50619371424E+02  0.00000000000E+00 0.  1.
         12    1    6    6    0    0 -0.58082224548E+02  0.64719996696E+02 -0.79276299739E+02  0.11767308308E+03  0.00000000000E+00 0. -1.
         -5    1    3    3    0  503 -0.83107706175E+01 -0.64598812111E+02 -0.14485927689E+03  0.15889737422E+03  0.47000000000E+01 0.  1.
         11    1    4    4    0    0  0.81557997133E+02 -0.43320910071E+02 -0.16863691243E+03  0.19226756456E+03  0.00000000000E+00 0. -1.
        -12    1    4    4    0    0  0.83624879275E+02  0.16938721017E+02 -0.29328822357E+03  0.30544725042E+03  0.00000000000E+00 0.  1.
</event>
<event>
12    1  0.1032880E+000  0.2251895E+03  0.7818608E-02  0.1130096E+00
         21   -1    0    0  503  502  0.00000000000E+00  0.00000000000E+00  0.12387658124E+03  0.12387658124E+03  0.00000000000E+00 0.  1.
         21   -1    0    0  501  503 -0.00000000000E+00 -0.00000000000E+00 -0.45459084666E+03  0.45459084666E+03  0.00000000000E+00 0. -1.
          6    2    1    2  501    0 -0.12310273457E+03 -0.75816578764E+02 -0.73842579161E+02  0.23686328296E+03  0.17247913336E+03 0.  0.
         24    2    3    3    0    0 -0.94872998774E+02  0.11628484085E+02 -0.74111238650E+02  0.14485394008E+03  0.79712487879E+02 0.  0.
         -6    2    1    2    0  502  0.12310273457E+03  0.75816578764E+02 -0.25687168626E+03  0.34160414493E+03  0.17264962136E+03 0.  0.
        -24    2    5    5    0    0  0.10008584278E+02  0.54644258272E+02 -0.69514063966E+02  0.12168706370E+03  0.83002226845E+02 0.  0.
          5    1    3    3  501    0 -0.28229735800E+02 -0.87445062849E+02  0.26865948907E+00  0.92009342884E+02  0.47000000000E+01 0. -1.
        -11    1    4    4    0    0 -0.46706842860E+01  0.17453117047E+02  0.10622018637E+02  0.20958384152E+02  0.00000000000E+00 0.  1.
         12    1    4    4    0    0 -0.90202314488E+02 -0.58246329623E+01 -0.84733257286E+02  0.12389555593E+03  0.00000000000E+00 0. -1.
         -5    1    5    5    0  502  0.11309415030E+03  0.21172320492E+02 -0.18735762229E+03  0.21991708123E+03  0.47000000000E+01 0.  1.
         11    1    6    6    0    0  0.18692945948E+02  0.41395726659E+02 -0.86969064804E+02  0.98115496466E+02  0.00000000000E+00 0. -1.
        -12    1    6    6    0    0 -0.86843616706E+01  0.13248531613E+02  0.17455000838E+02  0.23571567232E+02  0.00000000000E+00 0.  1.
</event>
<event>
12    1  0.1032880E+000  0.2161430E+03  0.7818608E-02  0.1136800E+00
         21   -1    0    0  503  502  0.00000000000E+00  0.00000000000E+00  0.11490883209E+04  0.11490883209E+04  0.00000000000E+00 0.  1.
         21   -1    0    0  501  503 -0.00000000000E+00 -0.00000000000E+00 -0.42990581794E+02  0.42990581794E+02  0.00000000000E+00 0.  1.
          6    2    1    2  501    0  0.12967926910E+03 -0.22080922629E+02  0.41384994584E+03  0.46687216265E+03  0.17144549748E+03 0.  0.
         24    2    3    3    0    0  0.25769267207E+01 -0.32209764644E+02  0.17616214007E+03  0.19710340632E+03  0.82295465852E+02 0.  0.
         -6    2    1    2    0  502 -0.12967926910E+03  0.22080922629E+02  0.69224779332E+03  0.72520674010E+03  0.17150372750E+03 0.  0.
        -24    2    5    5    0    0  0.12568932052E+01 -0.63185092121E+01  0.22192497684E+03  0.23615004805E+03  0.80465188201E+02 0.  0.
          5    1    3    3  501    0  0.12710234238E+03  0.10128842015E+02  0.23768780577E+03  0.26976875633E+03  0.47000000000E+01 0. -1.
        -11    1    4    4    0    0 -0.72111609630E+01 -0.21407539546E+02  0.18048937758E+03  0.18189749589E+03  0.00000000000E+00 0.  1.
         12    1    4    4    0    0  0.97880876837E+01 -0.10802225098E+02 -0.43272375106E+01  0.15205910431E+02  0.00000000000E+00 0. -1.
         -5    1    5    5    0  502 -0.13093616231E+03  0.28399431841E+02  0.47032281648E+03  0.48905669204E+03  0.47000000000E+01 0.  1.
         13    1    6    6    0    0  0.15239140618E+02 -0.36642193504E+01  0.22135237172E+03  0.22190658029E+03  0.00000000000E+00 0. -1.
        -14    1    6    6    0    0 -0.13982247413E+02 -0.26542898617E+01  0.57260512087E+00  0.14243467766E+02  0.00000000000E+00 0.  1.
</event>
<event>
12    1  0.1032880E+000  0.2051222E+03  0.7818608E-02  0.1146311E+00
         21   -1    0    0  503  502  0.00000000000E+00  0.00000000000E+00  0.60834799424E+03  0.60834799424E+03  0.00000000000E+00 0. -1.
         21   -1    0    0  501  503 -0.00000000000E+00 -0.00000000000E+00 -0.11465895456E+03  0.11465895456E+03  0.00000000000E+00 0. -1.
          6    2    1    2  501    0  0.21804599096E+02  0.10295963724E+03  0.14371958081E+02  0.20164335075E+03  0.17139825051E+03 0.  0.
         24    2    3    3    0    0  0.31140592351E+02  0.13114268565E+03  0.41071012331E+02  0.16143919069E+03  0.78788601629E+02 0.  0.
         -6    2    1    2    0  502 -0.21804599096E+02 -0.10295963724E+03  0.47931708160E+03  0.52136359806E+03  0.17606535500E+03 0.  0.
        -24    2    5    5    0    0 -0.17978961604E+02 -0.62830296145E+00  0.91614910878E+02  0.12033816164E+03  0.75923273285E+02 0.  0.
          5    1    3    3  501    0 -0.93359932549E+01 -0.28183048408E+02 -0.26699054250E+02  0.40204160052E+02  0.47000000000E+01 0. -1.
        -13    1    4    4    0    0  0.73241115883E+01  0.87398524278E+02  0.62007084787E+02  0.10741053589E+03  0.00000000000E+00 0.  1.
         14    1    4    4    0    0  0.23816480762E+02  0.43744161371E+02 -0.20936072455E+02  0.54028654803E+02  0.00000000000E+00 0. -1.
         -5    1    5    5    0  502 -0.38256374914E+01 -0.10233133428E+03  0.38770217072E+03  0.40102543642E+03  0.47000000000E+01 0.  1.
         11    1    6    6    0    0 -0.39177660125E+01  0.34095078925E+02  0.67675158413E+02  0.75879841616E+02  0.00000000000E+00 0. -1.
        -12    1    6    6    0    0 -0.14061195592E+02 -0.34723381887E+02  0.23939752465E+02  0.44458320023E+02  0.00000000000E+00 0.  1.
</event>
<event>
12    1  0.1032880E+000  0.1759484E+03  0.7818608E-02  0.1172046E+00
         21   -1    0    0  501  502  0.00000000000E+00  0.00000000000E+00  0.61637936967E+02  0.61637936967E+02  0.00000000000E+00 0.  1.
         21   -1    0    0  502  503 -0.00000000000E+00 -0.00000000000E+00 -0.50635609312E+03  0.50635609312E+03  0.00000000000E+00 0.  1.
         -6    2    1    2    0  503 -0.11886201776E+02 -0.31356997475E+02 -0.18806553581E+03  0.25682137093E+03  0.17165088908E+03 0.  0.
        -24    2    3    3    0    0 -0.14953438972E+02 -0.14167237942E+01 -0.17404356352E+02  0.83462909625E+02  0.80234239696E+02 0.  0.
          6    2    1    2  501    0  0.11886201776E+02  0.31356997475E+02 -0.25665262034E+03  0.31117265915E+03  0.17272322714E+03 0.  0.
         24    2    5    5    0    0 -0.45455476812E+01  0.17725619364E+02 -0.39525893063E+02  0.92948181706E+02  0.82110953438E+02 0.  0.
          5    1    5    5  501    0  0.16431749457E+02  0.13631378111E+02 -0.21712672727E+03  0.21822447745E+03  0.47000000000E+01 0. -1.
        -11    1    6    6    0    0 -0.55291807231E+01 -0.21061773124E+02  0.14698521938E+02  0.26271975064E+02  0.00000000000E+00 0.  1.
         12    1    6    6    0    0  0.98363304193E+00  0.38787392488E+02 -0.54224415001E+02  0.66676206642E+02  0.00000000000E+00 0. -1.
         -5    1    3    3    0  503  0.30672371967E+01 -0.29940273681E+02 -0.17066117946E+03  0.17335846131E+03  0.47000000000E+01 0.  1.
         13    1    4    4    0    0 -0.28387351096E+02 -0.65132377181E+01 -0.44272874607E+02  0.52993880721E+02  0.00000000000E+00 0. -1.
        -14    1    4    4    0    0  0.13433912124E+02  0.50965139239E+01  0.26868518255E+02  0.30469028904E+02  0.00000000000E+00 0.  1.
</event>
<event>
12    1  0.1032880E+000  0.2121786E+03  0.7818608E-02  0.1140042E+00
         21   -1    0    0  503  502  0.00000000000E+00  0.00000000000E+00  0.16322897600E+04  0.16322897600E+04  0.00000000000E+00 0. -1.
         21   -1    0    0  501  503 -0.00000000000E+00 -0.00000000000E+00 -0.42652806872E+02  0.42652806872E+02  0.00000000000E+00 0. -1.
          6    2    1    2  501    0 -0.11054161197E+03  0.50676128955E+02  0.12958908087E+04  0.13131461254E+04  0.17387420958E+03 0.  0.
         24    2    3    3    0    0 -0.14134815199E+03  0.54001108685E+02  0.89397896666E+03  0.91001423990E+03  0.77666622024E+02 0.  0.
         -6    2    1    2    0  502  0.11054161197E+03 -0.50676128955E+02  0.29374614444E+03  0.36179644141E+03  0.17269148681E+03 0.  0.
        -24    2    5    5    0    0 -0.74429166690E+01 -0.19729977504E+02  0.16655580143E+03  0.18550836284E+03  0.78916719863E+02 0.  0.
          5    1    3    3  501    0  0.30806540017E+02 -0.33249797302E+01  0.40191184201E+03  0.40313188555E+03  0.47000000000E+01 0. -1.
        -11    1    4    4    0    0 -0.41909150351E+02  0.51609610703E+02  0.46018322846E+03  0.46496078604E+03  0.00000000000E+00 0.  1.
         12    1    4    4    0    0 -0.99439001640E+02  0.23914979826E+01  0.43379573820E+03  0.44505345386E+03  0.00000000000E+00 0. -1.
         -5    1    5    5    0  502  0.11798452864E+03 -0.30946151451E+02  0.12719034301E+03  0.17628807856E+03  0.47000000000E+01 0.  1.
         13    1    6    6    0    0  0.96095543379E+01 -0.21411982841E+02  0.16672853413E+03  0.16837226801E+03  0.00000000000E+00 0. -1.
        -14    1    6    6    0    0 -0.17052471007E+02  0.16820053371E+01 -0.17273269839E+00  0.17136094829E+02  0.00000000000E+00 0.  1.
</event>
<event>
12    1  0.1032880E+000  0.1831500E+03  0.7818608E-02  0.1165694E+00
         21   -1    0    0  503  502  0.00000000000E+00  0.00000000000E+00  0.49276821908E+03  0.49276821908E+03  0.00000000000E+00 0. -1.
         21   -1    0    0  501  503 -0.00000000000E+00 -0.00000000000E+00 -0.67958129546E+02  0.67958129546E+02  0.00000000000E+00 0. -1.
          6    2    1    2  501    0  0.53634754319E+01  0.63933725334E+02  0.24878643517E+03  0.30670223100E+03  0.16749710466E+03 0.  0.
         24    2    3    3    0    0 -0.57858882922E+02  0.49811897472E+02  0.18513359501E+03  0.21576122442E+03  0.80309292715E+02 0.  0.
         -6    2    1    2    0  502 -0.53634754319E+01 -0.63933725334E+02  0.17602365436E+03  0.25402411762E+03  0.17154485517E+03 0.  0.
        -24    2    5    5    0    0 -0.46168067090E+00  0.14283225762E+02  0.15462028070E+03  0.17264774861E+03  0.75469134137E+02 0.  0.
          5    1    3    3  501    0  0.63222358354E+02  0.14121827862E+02  0.63652840156E+02  0.90941006580E+02  0.47000000000E+01 0. -1.
        -11    1    4    4    0    0 -0.75583488924E+02  0.48925526303E+02  0.13233385466E+03  0.16005880173E+03  0.00000000000E+00 0.  1.
         12    1    4    4    0    0  0.17724606003E+02  0.88637116859E+00  0.52799740352E+02  0.55702422686E+02  0.00000000000E+00 0. -1.
         -5    1    5    5    0  502 -0.49017947610E+01 -0.78216951096E+02  0.21403373659E+02  0.81376369018E+02  0.47000000000E+01 0.  1.
         11    1    6    6    0    0  0.25867542713E+02  0.33886408191E+00  0.13385385094E+03  0.13633084026E+03  0.00000000000E+00 0. -1.
        -12    1    6    6    0    0 -0.26329223384E+02  0.13944361680E+02  0.20766429761E+02  0.36316908344E+02  0.00000000000E+00 0.  1.
</event>
<event>
12    1  0.1032880E+000  0.2001760E+03  0.7818608E-02  0.1149691E+00
         21   -1    0    0  501  502  0.00000000000E+00  0.00000000000E+00  0.90598782234E+03  0.90598782234E+03  0.00000000000E+00 0.  1.
         21   -1    0    0  502  503 -0.00000000000E+00 -0.00000000000E+00 -0.50524186318E+02  0.50524186318E+02  0.00000000000E+00 0.  1.
         -6    2    1    2    0  503  0.12978249659E+02  0.98919459250E+02  0.59839628813E+03  0.63099014622E+03  0.17354236542E+03 0.  0.
        -24    2    3    3    0    0 -0.17266689087E+02  0.77960328983E+02  0.18780813910E+03  0.21872959804E+03  0.78706978722E+02 0.  0.
          6    2    1    2  501    0 -0.12978249659E+02 -0.98919459250E+02  0.25706734789E+03  0.32552186244E+03  0.17299528083E+03 0.  0.
         24    2    5    5    0    0  0.13922413491E+01 -0.79722427869E+01  0.20180723382E+03  0.21803382868E+03  0.82140707538E+02 0.  0.
          5    1    5    5  501    0 -0.14370491008E+02 -0.90947216463E+02  0.55260114071E+02  0.10748803376E+03  0.47000000000E+01 0. -1.
        -11    1    6    6    0    0 -0.10190638367E+02 -0.37199216957E+02  0.50768854980E+02  0.63758195461E+02  0.00000000000E+00 0.  1.
         12    1    6    6    0    0  0.11582879716E+02  0.29226974170E+02  0.15103837884E+03  0.15427563322E+03  0.00000000000E+00 0. -1.
         -5    1    3    3    0  503  0.30244938746E+02  0.20959130267E+02  0.41058814903E+03  0.41226054818E+03  0.47000000000E+01 0.  1.
         11    1    4    4    0    0  0.22198669755E+02 -0.26581154880E+01  0.37989866060E+02  0.44080340744E+02  0.00000000000E+00 0. -1.
        -12    1    4    4    0    0 -0.39465358843E+02  0.80618444471E+02  0.14981827304E+03  0.17464925730E+03  0.00000000000E+00 0.  1.
</event>
<event>
12    1  0.1032880E+000  0.1834754E+03  0.7818608E-02  0.1164795E+00
         21   -1    0    0  501  502  0.00000000000E+00  0.00000000000E+00  0.61069470438E+02  0.61069470438E+02  0.00000000000E+00 0. -1.
         21   -1    0    0  502  503 -0.00000000000E+00 -0.00000000000E+00 -0.73589535069E+03  0.73589535069E+03  0.00000000000E+00 0. -1.
         -6    2    1    2    0  503 -0.40963193452E+02 -0.45765286268E+02 -0.54007003869E+03  0.57038484416E+03  0.17288949972E+03 0.  0.
        -24    2    3    3    0    0 -0.39281845837E+02 -0.57268348500E+02 -0.54636488646E+03  0.55635407515E+03  0.78692697459E+02 0.  0.
          6    2    1    2  501    0  0.40963193452E+02  0.45765286268E+02 -0.13475584156E+03  0.22657997697E+03  0.17148441469E+03 0.  0.
         24    2    5    5    0    0  0.79746750126E+01 -0.29842539937E+02 -0.11064301613E+03  0.14050847133E+03  0.80910944036E+02 0.  0.
          5    1    5    5  501    0  0.32988518439E+02  0.75607826205E+02 -0.24112825428E+02  0.86071505636E+02  0.47000000000E+01 0. -1.
        -13    1    6    6    0    0  0.14628276275E+02 -0.32665628475E+02 -0.68215741763E+01  0.36435746522E+02  0.00000000000E+00 0.  1.
         14    1    6    6    0    0 -0.66536012620E+01  0.28230885372E+01 -0.10382144196E+03  0.10407272481E+03  0.00000000000E+00 0. -1.
         -5    1    3    3    0  503 -0.16813476145E+01  0.11503062231E+02  0.62948477692E+01  0.14030769007E+02  0.47000000000E+01 0.  1.
         11    1    4    4    0    0 -0.73332920728E+01  0.19363628807E+02 -0.14692959049E+03  0.14838137300E+03  0.00000000000E+00 0. -1.
        -12    1    4    4    0    0 -0.31948553764E+02 -0.76631977307E+02 -0.39943529597E+03  0.40797270215E+03  0.00000000000E+00 0.  1.
</event>
<event>
12    1  0.1032880E+000  0.2217888E+03  0.7818608E-02  0.1134312E+00
         21   -1    0    0  501  502  0.00000000000E+00  0.00000000000E+00  0.28773730967E+03  0.28773730967E+03  0.00000000000E+00 0. -1.
         21   -1    0    0  502  503 -0.00000000000E+00 -0.00000000000E+00 -0.26657526822E+03  0.26657526822E+03  0.00000000000E+00 0. -1.
         -6    2    1    2    0  503 -0.12322301570E+03 -0.63634418414E+02 -0.16129548846E+03  0.27423804752E+03  0.17308096747E+03 0.  0.
        -24    2    3    3    0    0 -0.10462002916E+03 -0.88506006993E+02 -0.17833776600E+03  0.23850016495E+03  0.79368168189E+02 0.  0.
          6    2    1    2  501    0  0.12322301570E+03  0.63634418414E+02  0.18245752991E+03  0.28007453037E+03  0.16098988022E+03 0.  0.
         24    2    5    5    0    0  0.83805170399E+02  0.39232735542E+02  0.19614265931E+03  0.23150930184E+03  0.81006789292E+02 0.  0.
          5    1    5    5  501    0  0.39417845303E+02  0.24401682872E+02 -0.13685129401E+02  0.48565228529E+02  0.47000000000E+01 0. -1.
        -11    1    6    6    0    0  0.66371859279E+02  0.61500634895E+02  0.12005150658E+03  0.15033268450E+03  0.00000000000E+00 0.  1.
         12    1    6    6    0    0  0.17433311120E+02 -0.22267899354E+02  0.76091152735E+02  0.81176617340E+02  0.00000000000E+00 0. -1.
         -5    1    3    3    0  503 -0.18602986544E+02  0.24871588579E+02  0.17042277541E+02  0.35737882570E+02  0.47000000000E+01 0.  1.
         13    1    4    4    0    0 -0.46482160979E+02 -0.13401740854E+02 -0.11384315883E+03  0.12369503935E+03  0.00000000000E+00 0. -1.
        -14    1    4    4    0    0 -0.58137868179E+02 -0.75104266139E+02 -0.64494607168E+02  0.11480512559E+03  0.00000000000E+00 0.  1.
</event>
<event>
12    1  0.1032880E+000  0.2487188E+03  0.7818608E-02  0.1114121E+00
         21   -1    0    0  503  502  0.00000000000E+00  0.00000000000E+00  0.32031698205E+03  0.32031698205E+03  0.00000000000E+00 0. -1.
         21   -1    0    0  501  503 -0.00000000000E+00 -0.00000000000E+00 -0.19362227086E+03  0.19362227086E+03  0.00000000000E+00 0. -1.
          6    2    1    2  501    0 -0.32941765648E+02 -0.17617658671E+03  0.76635382530E+02  0.26025758311E+03  0.17244615995E+03 0.  0.
         24    2    3    3    0    0 -0.55620537730E+02 -0.13730095779E+03  0.11217133674E+03  0.20272033197E+03  0.81042747857E+02 0.  0.
         -6    2    1    2    0  502  0.32941765648E+02  0.17617658671E+03  0.50059328664E+02  0.25368166980E+03  0.17240969687E+03 0.  0.
        -24    2    5    5    0    0  0.62434917302E+02  0.59588126756E+02  0.46584868717E+02  0.13327869284E+03  0.90245200547E+02 0.  0.
          5    1    3    3  501    0  0.22678772082E+02 -0.38875628921E+02 -0.35535954212E+02  0.57537251141E+02  0.47000000000E+01 0. -1.
        -13    1    4    4    0    0 -0.31342258321E+02 -0.75001278288E+02  0.11831106650E+02  0.82143191964E+02  0.00000000000E+00 0.  1.
         14    1    4    4    0    0 -0.24278279410E+02 -0.62299679502E+02  0.10034023009E+03  0.12057714001E+03  0.00000000000E+00 0. -1.
         -5    1    5    5    0  502 -0.29493151654E+02  0.11658845996E+03  0.34744599465E+01  0.12040297696E+03  0.47000000000E+01 0.  1.
         13    1    6    6    0    0 -0.21840964748E+02  0.46991562866E+01  0.18087460088E+02  0.28744843422E+02  0.00000000000E+00 0. -1.
        -14    1    6    6    0    0  0.84275882051E+02  0.54888970469E+02  0.28497408629E+02  0.10453384941E+03  0.00000000000E+00 0.  1.
</event>
<event>
12    1  0.1032880E+000  0.2267135E+03  0.7818608E-02  0.1129676E+00
         21   -1    0    0  503  502  0.00000000000E+00  0.00000000000E+00  0.44134551057E+02  0.44134551057E+02  0.00000000000E+00 0. -1.
         21   -1    0    0  501  503 -0.00000000000E+00 -0.00000000000E+00 -0.11498856888E+04  0.11498856888E+04  0.00000000000E+00 0. -1.
          6    2    1    2  501    0 -0.53882717767E+02  0.13687149226E+03 -0.58796605871E+03  0.62877659403E+03  0.16738807109E+03 0.  0.
         24    2    3    3    0    0 -0.15914362499E+02  0.15096432948E+03 -0.38024093143E+03  0.41708809042E+03  0.79597823588E+02 0.  0.
         -6    2    1    2    0  502  0.53882717767E+02 -0.13687149226E+03 -0.51778507900E+03  0.56524364579E+03  0.17251619751E+03 0.  0.
        -24    2    5    5    0    0  0.53993891758E+02 -0.16531551760E+03 -0.48578265411E+03  0.52217021853E+03  0.80202178118E+02 0.  0.
          5    1    3    3  501    0 -0.37968355268E+02 -0.14092837222E+02 -0.20772512728E+03  0.21168850362E+03  0.47000000000E+01 0. -1.
        -11    1    4    4    0    0  0.51795167957E+01  0.10262858781E+03 -0.32437118580E+03  0.34025890232E+03  0.00000000000E+00 0.  1.
         12    1    4    4    0    0 -0.21093879294E+02  0.48335741670E+02 -0.55869745636E+02  0.76829188099E+02  0.00000000000E+00 0. -1.
         -5    1    5    5    0  502 -0.11117399076E+00  0.28444025344E+02 -0.32002424891E+02  0.43073427265E+02  0.47000000000E+01 0.  1.
         13    1    6    6    0    0  0.12954139442E+01 -0.10493159734E+03 -0.20677655874E+03  0.23188114081E+03  0.00000000000E+00 0. -1.
        -14    1    6    6    0    0  0.52698477813E+02 -0.60383920263E+02 -0.27900609537E+03  0.29028907772E+03  0.00000000000E+00 0.  1.
</event>
<event>
12    1  0.1032880E+000  0.2128602E+03  0.7818608E-02  0.1139518E+00
         21   -1    0    0  501  502  0.00000000000E+00  0.00000000000E+00  0.14888090635E+04  0.14888090635E+04  0.00000000000E+00 0.  1.
         21   -1    0    0  502  503 -0.00000000000E+00 -0.00000000000E+00 -0.32316013078E+02  0.32316013078E+02  0.00000000000E+00 0.  1.
         -6    2    1    2    0  503  0.11896974875E+02  0.12449063971E+03  0.53938662875E+03  0.57986845001E+03  0.17224989597E+03 0.  0.
        -24    2    3    3    0    0  0.74969497105E+02  0.66809693445E+02  0.30555862114E+03  0.33086471156E+03  0.77597846406E+02 0.  0.
          6    2    1    2  501    0 -0.11896974875E+02 -0.12449063971E+03  0.91710642170E+03  0.94125662659E+03  0.17099821927E+03 0.  0.
         24    2    5    5    0    0 -0.19588009030E+02  0.30927750329E+01  0.33396133466E+03  0.34424995807E+03  0.81145580445E+02 0.  0.
          5    1    5    5  501    0  0.76910341547E+01 -0.12758341475E+03  0.58314508704E+03  0.59700666853E+03  0.47000000000E+01 0. -1.
        -11    1    6    6    0    0 -0.13756382724E+02 -0.61843640298E+01  0.33289932763E+03  0.33324082397E+03  0.00000000000E+00 0.  1.
         12    1    6    6    0    0 -0.58316263062E+01  0.92771390627E+01  0.10620070276E+01  0.11009134094E+02  0.00000000000E+00 0. -1.
         -5    1    3    3    0  503 -0.63072522230E+02  0.57680946268E+02  0.23382800761E+03  0.24900373846E+03  0.47000000000E+01 0.  1.
         13    1    4    4    0    0  0.12621512426E+02  0.59060917342E+02  0.18950341816E+03  0.19889454499E+03  0.00000000000E+00 0. -1.
        -14    1    4    4    0    0  0.62347984679E+02  0.77487761028E+01  0.11605520298E+03  0.13197016656E+03  0.00000000000E+00 0.  1.
</event>
<event>
12    1  0.1032880E+000  0.2433639E+03  0.7818608E-02  0.1117847E+00
         21   -1    0    0  503  502  0.00000000000E+00  0.00000000000E+00  0.22299391079E+03  0.22299391079E+03  0.00000000000E+00 0. -1.
         21   -1    0    0  501  503 -0.00000000000E+00 -0.00000000000E+00 -0.26664355606E+03  0.26664355606E+03  0.00000000000E+00 0. -1.
          6    2    1    2  501    0 -0.12048653119E+02 -0.16899906933E+03  0.35196109979E+01  0.24338933455E+03  0.17470010026E+03 0.  0.
         24    2    3    3    0    0 -0.36760990736E+01 -0.17105303395E+02 -0.32732804673E+02  0.86934409939E+02  0.78613294175E+02 0.  0.
         -6    2    1    2    0  502  0.12048653119E+02  0.16899906933E+03 -0.47169256269E+02  0.24624813230E+03  0.17235819808E+03 0.  0.
        -24    2    5    5    0    0  0.63003312871E+02  0.91851760590E+02  0.96253720809E+01  0.13763964089E+03  0.80286110878E+02 0.  0.
          5    1    3    3  501    0 -0.83725540458E+01 -0.15189376594E+03  0.36252415671E+02  0.15645492461E+03  0.47000000000E+01 0. -1.
        -11    1    4    4    0    0 -0.29537930782E+02 -0.19612001641E+02 -0.45743736548E+02  0.57875810116E+02  0.00000000000E+00 0.  1.
         12    1    4    4    0    0  0.25861831709E+02  0.25066982455E+01  0.13010931875E+02  0.29058599823E+02  0.00000000000E+00 0. -1.
         -5    1    5    5    0  502 -0.50954659751E+02  0.77147308745E+02 -0.56794628350E+02  0.10860849141E+03  0.47000000000E+01 0.  1.
         13    1    6    6    0    0  0.68812022510E+02  0.49795800087E+02 -0.18214526513E+02  0.86870507793E+02  0.00000000000E+00 0. -1.
        -14    1    6    6    0    0 -0.58087096390E+01  0.42055960503E+02  0.27839898593E+02  0.50769133095E+02  0.00000000000E+00 0.  1.
</event>
<event>
12    1  0.1032880E+000  0.3107491E+03  0.7818608E-02  0.1080142E+00
         21   -1    0    0  501  502  0.00000000000E+00  0.00000000000E+00  0.52507322749E+03  0.52507322749E+03  0.00000000000E+00 0.  1.
         21   -1    0    0  502  503 -0.00000000000E+00 -0.00000000000E+00 -0.45950972482E+03  0.45950972482E+03  0.00000000000E+00 0.  1.
         -6    2    1    2    0  503 -0.19455634850E+02  0.25782341191E+03  0.41453788220E+03  0.51730562013E+03  0.17003533571E+03 0.  0.
        -24    2    3    3    0    0 -0.22441661291E+02  0.20272407098E+03  0.40576689718E+03  0.46123536150E+03  0.80564301871E+02 0.  0.
          6    2    1    2  501    0  0.19455634850E+02 -0.25782341191E+03 -0.34897437953E+03  0.46727733218E+03  0.17237619949E+03 0.  0.
         24    2    5    5    0    0  0.17842618207E+02 -0.65872621934E+02 -0.18324877915E+03  0.21363433067E+03  0.86034590937E+02 0.  0.
          5    1    5    5  501    0  0.16130166432E+01 -0.19195078997E+03 -0.16572560038E+03  0.25364300151E+03  0.47000000000E+01 0. -1.
        -11    1    6    6    0    0 -0.13506053696E+02 -0.21387967624E+02 -0.31474746243E+01  0.25490493170E+02  0.00000000000E+00 0.  1.
         12    1    6    6    0    0  0.31348671902E+02 -0.44484654309E+02 -0.18010130452E+03  0.18814383750E+03  0.00000000000E+00 0. -1.
         -5    1    3    3    0  503  0.29860264417E+01  0.55099340932E+02  0.87709850162E+01  0.56070258633E+02  0.47000000000E+01 0.  1.
         13    1    4    4    0    0 -0.40259756139E+02  0.11050929881E+03  0.28448713074E+03  0.30784099896E+03  0.00000000000E+00 0. -1.
        -14    1    4    4    0    0  0.17818094847E+02  0.92214772164E+02  0.12127976644E+03  0.15339436254E+03  0.00000000000E+00 0.  1.
</event>
<event>
12    1  0.1032880E+000  0.2723310E+03  0.7818608E-02  0.1100009E+00
         21   -1    0    0  503  502  0.00000000000E+00  0.00000000000E+00  0.10940483842E+03  0.10940483842E+03  0.00000000000E+00 0.  1.
         21   -1    0    0  501  503 -0.00000000000E+00 -0.00000000000E+00 -0.11610765646E+04  0.11610765646E+04  0.00000000000E+00 0.  1.
          6    2    1    2  501    0 -0.19559028766E+03  0.78820875775E+02 -0.11584647474E+03  0.29594688650E+03  0.17232487584E+03 0.  0.
         24    2    3    3    0    0 -0.35822653632E+02  0.42576992352E+02 -0.89508398330E+00  0.95758904326E+02  0.77928837995E+02 0.  0.
         -6    2    1    2    0  502  0.19559028766E+03 -0.78820875775E+02 -0.93582525143E+03  0.97453451652E+03  0.17169837387E+03 0.  0.
        -24    2    5    5    0    0  0.21333581644E+03 -0.57219469296E+02 -0.73640732663E+03  0.77311176883E+03  0.81362264928E+02 0.  0.
          5    1    3    3  501    0 -0.15976763403E+03  0.36243883423E+02 -0.11495139076E+03  0.20018798217E+03  0.47000000000E+01 0. -1.
        -11    1    4    4    0    0 -0.53242106612E+02  0.36911141280E+02  0.20161170506E+02  0.67850033628E+02  0.00000000000E+00 0.  1.
         12    1    4    4    0    0  0.17419452980E+02  0.56658510723E+01 -0.21056254490E+02  0.27908870698E+02  0.00000000000E+00 0. -1.
         -5    1    5    5    0  502 -0.17745528779E+02 -0.21601406480E+02 -0.19941792480E+03  0.20142274769E+03  0.47000000000E+01 0.  1.
         11    1    6    6    0    0  0.14500078548E+03 -0.71959126972E+02 -0.44783581986E+03  0.47619351664E+03  0.00000000000E+00 0. -1.
        -12    1    6    6    0    0  0.68335030965E+02  0.14739657676E+02 -0.28857150677E+03  0.29691825219E+03  0.00000000000E+00 0.  1.
</event>
<event>
12    1  0.1032880E+000  0.2139144E+03  0.7818608E-02  0.1138640E+00
         21   -1    0    0  503  502  0.00000000000E+00  0.00000000000E+00  0.27560323583E+03  0.27560323583E+03  0.00000000000E+00 0.  1.
         21   -1    0    0  501  503 -0.00000000000E+00 -0.00000000000E+00 -0.16890635389E+03  0.16890635389E+03  0.00000000000E+00 0.  1.
          6    2    1    2  501    0 -0.11832375406E+03  0.47632677900E+02  0.84891934298E+02  0.22948674315E+03  0.17084537451E+03 0.  0.
         24    2    3    3    0    0 -0.33350968026E+02 -0.27935131995E+02  0.71094239440E+02  0.11484235976E+03  0.79004544458E+02 0.  0.
         -6    2    1    2    0  502  0.11832375406E+03 -0.47632677900E+02  0.21804947650E+02  0.21502284657E+03  0.17172648610E+03 0.  0.
        -24    2    5    5    0    0  0.12803859950E+03  0.18116823901E+01  0.47835093242E+02  0.15811255343E+03  0.79462055418E+02 0.  0.
          5    1    3    3  501    0 -0.84972786038E+02  0.75567809895E+02  0.13797694858E+02  0.11464438339E+03  0.47000000000E+01 0. -1.
        -13    1    4    4    0    0 -0.22073773438E+02  0.26280977928E+02  0.33124342296E+02  0.47698672174E+02  0.00000000000E+00 0.  1.
         14    1    4    4    0    0 -0.11277194588E+02 -0.54216109923E+02  0.37969897145E+02  0.67143687582E+02  0.00000000000E+00 0. -1.
         -5    1    5    5    0  502 -0.97148454363E+01 -0.49444360290E+02 -0.26030145592E+02  0.56910293145E+02  0.47000000000E+01 0.  1.
         13    1    6    6    0    0  0.14728203571E+02  0.12910003317E+02 -0.17995912670E+02  0.26597763795E+02  0.00000000000E+00 0. -1.
        -14    1    6    6    0    0  0.11331039593E+03 -0.11098320927E+02  0.65831005912E+02  0.13151478963E+03  0.00000000000E+00 0.  1.
</event>
<event>
12    1  0.1032880E+000  0.2174118E+03  0.7818608E-02  0.1137672E+00
         21   -1    0    0  503  502  0.00000000000E+00  0.00000000000E+00  0.58601240300E+03  0.58601240300E+03  0.00000000000E+00 0.  1.
         21   -1    0    0  501  503 -0.00000000000E+00 -0.00000000000E+00 -0.81602760426E+02  0.81602760426E+02  0.00000000000E+00 0.  1.
          6    2    1    2  501    0 -0.11307866580E+03 -0.27554006133E+02  0.33534052541E+03  0.39965129003E+03  0.18363517563E+03 0.  0.
         24    2    3    3    0    0 -0.58900280324E+02 -0.22625801754E+02  0.32927807748E+03  0.34471106865E+03  0.80128013908E+02 0.  0.
         -6    2    1    2    0  502  0.11307866580E+03  0.27554006133E+02  0.16906911717E+03  0.26796387340E+03  0.17226219305E+03 0.  0.
        -24    2    5    5    0    0  0.14140342881E+03  0.49650224190E+02  0.15728748222E+03  0.22986620976E+03  0.75093594177E+02 0.  0.
          5    1    3    3  501    0 -0.54178385471E+02 -0.49282043787E+01  0.60624479307E+01  0.54940221383E+02  0.47000000000E+01 0. -1.
        -11    1    4    4    0    0 -0.80868162556E+00  0.61487433869E+01 -0.24794852117E+01  0.66789863096E+01  0.00000000000E+00 0.  1.
         12    1    4    4    0    0 -0.58091598698E+02 -0.28774545141E+02  0.33175756269E+03  0.33803208234E+03  0.00000000000E+00 0. -1.
         -5    1    5    5    0  502 -0.28324763015E+02 -0.22096218057E+02  0.11781634947E+02  0.38097663634E+02  0.47000000000E+01 0.  1.
         13    1    6    6    0    0  0.25369108357E+02  0.17019712496E+02 -0.14119238606E+01  0.30581952215E+02  0.00000000000E+00 0. -1.
        -14    1    6    6    0    0  0.11603432045E+03  0.32630511694E+02  0.15869940608E+03  0.19928425755E+03  0.00000000000E+00 0.  1.
</event>
<event>
12    1  0.1032880E+000  0.2326521E+03  0.7818608E-02  0.1124920E+00
         21   -1    0    0  501  502  0.00000000000E+00  0.00000000000E+00  0.41882975202E+03  0.41882975202E+03  0.00000000000E+00 0.  1.
         21   -1    0    0  502  503 -0.00000000000E+00 -0.00000000000E+00 -0.23296240198E+03  0.23296240198E+03  0.00000000000E+00 0.  1.
         -6    2    1    2    0  503 -0.80794207000E+01  0.15528399812E+03  0.31075697473E+03  0.38773836112E+03  0.17202541159E+03 0.  0.
        -24    2    3    3    0    0 -0.54509304871E+02  0.78642409378E+02  0.24876830980E+03  0.27867713131E+03  0.81359564168E+02 0.  0.
          6    2    1    2  501    0  0.80794207000E+01 -0.15528399812E+03 -0.12488962469E+03  0.26405379287E+03  0.17305660942E+03 0.  0.
         24    2    5    5    0    0 -0.43033307014E+02 -0.47131018344E+02 -0.17959053339E+02  0.10353645718E+03  0.79524033888E+02 0.  0.
          5    1    5    5  501    0  0.51112727714E+02 -0.10815297978E+03 -0.10693057135E+03  0.16051733569E+03  0.47000000000E+01 0. -1.
        -11    1    6    6    0    0  0.66986816070E+01 -0.39008348824E+02  0.16085316931E+02  0.42723073789E+02  0.00000000000E+00 0.  1.
         12    1    6    6    0    0 -0.49731988621E+02 -0.81226695193E+01 -0.34044370269E+02  0.60813383390E+02  0.00000000000E+00 0. -1.
         -5    1    3    3    0  503  0.46429884171E+02  0.76641588743E+02  0.61988664927E+02  0.10906122981E+03  0.47000000000E+01 0.  1.
         11    1    4    4    0    0 -0.37846858543E+02  0.86293784617E+02  0.14248842888E+03  0.17082726460E+03  0.00000000000E+00 0. -1.
        -12    1    4    4    0    0 -0.16662446328E+02 -0.76513752393E+01  0.10627988092E+03  0.10784986671E+03  0.00000000000E+00 0.  1.
</event>
<event>
12    1  0.1032880E+000  0.2197685E+03  0.7818608E-02  0.1134376E+00
         21   -1    0    0  503  502  0.00000000000E+00  0.00000000000E+00  0.15113610638E+03  0.15113610638E+03  0.00000000000E+00 0.  1.
         21   -1    0    0  501  503 -0.00000000000E+00 -0.00000000000E+00 -0.32705497923E+03  0.32705497923E+03  0.00000000000E+00 0.  1.
          6    2    1    2  501    0 -0.20636413023E+02 -0.13248683282E+03 -0.46548205186E+02  0.22464396078E+03  0.17412510242E+03 0.  0.
         24    2    3    3    0    0 -0.36986502068E+02 -0.46580869819E+02 -0.83712723587E+02  0.12951010078E+03  0.78913036593E+02 0.  0.
         -6    2    1    2    0  502  0.20636413023E+02  0.13248683282E+03 -0.12937066767E+03  0.25354712483E+03  0.17196148536E+03 0.  0.
        -24    2    5    5    0    0 -0.39037912118E+02  0.12662768846E+03 -0.11324810435E+03  0.19127849950E+03  0.78764212453E+02 0.  0.
          5    1    3    3  501    0  0.16350089046E+02 -0.85905962998E+02  0.37164518401E+02  0.95133859999E+02  0.47000000000E+01 0. -1.
        -13    1    4    4    0    0  0.94675334470E+01  0.15619021124E+02 -0.29947252324E+02  0.35077427674E+02  0.00000000000E+00 0.  1.
         14    1    4    4    0    0 -0.46454035515E+02 -0.62199890943E+02 -0.53765471263E+02  0.94432673102E+02  0.00000000000E+00 0. -1.
         -5    1    5    5    0  502  0.59674325141E+02  0.58591443594E+01 -0.16122563312E+02  0.62268625337E+02  0.47000000000E+01 0.  1.
         13    1    6    6    0    0  0.11984603586E+02  0.36094236216E+02 -0.62780237407E+00  0.38037070694E+02  0.00000000000E+00 0. -1.
        -14    1    6    6    0    0 -0.51022515704E+02  0.90533452241E+02 -0.11262030198E+03  0.15324142880E+03  0.00000000000E+00 0.  1.
</event>
<event>
12    1  0.1032880E+000  0.1892710E+03  0.7818608E-02  0.1159288E+00
         21   -1    0    0  503  502  0.00000000000E+00  0.00000000000E+00  0.10804736814E+03  0.10804736814E+03  0.00000000000E+00 0. -1.
         21   -1    0    0  501  503 -0.00000000000E+00 -0.00000000000E+00 -0.41025210839E+03  0.41025210839E+03  0.00000000000E+00 0. -1.
          6    2    1    2  501    0  0.78061637452E+02  0.16267661620E+01 -0.36431776255E+02  0.19201927958E+03  0.17160379890E+03 0.  0.
         24    2    3    3    0    0  0.33028477865E+01 -0.50556007034E+02 -0.36499542202E+02  0.10072846381E+03  0.79039156058E+02 0.  0.
         -6    2    1    2    0  502 -0.78061637452E+02 -0.16267661620E+01 -0.26577296400E+03  0.32628019696E+03  0.17241587203E+03 0.  0.
        -24    2    5    5    0    0 -0.63420683139E+02  0.63832302930E+02 -0.18264657512E+03  0.21936278118E+03  0.81630340051E+02 0.  0.
          5    1    3    3  501    0  0.74758789666E+02  0.52182773196E+02  0.67765947211E-01  0.91290815764E+02  0.47000000000E+01 0. -1.
        -13    1    4    4    0    0  0.23739141338E+02 -0.51950440776E+02 -0.50235260886E+02  0.76065606976E+02  0.00000000000E+00 0.  1.
         14    1    4    4    0    0 -0.20436293551E+02  0.13944337423E+01  0.13735718684E+02  0.24662856837E+02  0.00000000000E+00 0. -1.
         -5    1    5    5    0  502 -0.14640954313E+02 -0.65459069092E+02 -0.83126388881E+02  0.10691741578E+03  0.47000000000E+01 0.  1.
         13    1    6    6    0    0  0.89792806244E+01  0.45859746577E+02 -0.64861250281E+02  0.79942014140E+02  0.00000000000E+00 0. -1.
        -14    1    6    6    0    0 -0.72399963763E+02  0.17972556353E+02 -0.11778532483E+03  0.13942076704E+03  0.00000000000E+00 0.  1.
</event>
<event>
12    1  0.1032880E+000  0.2876104E+03  0.7818608E-02  0.1091664E+00
         21   -1    0    0  503  502  0.00000000000E+00  0.00000000000E+00  0.19124423365E+04  0.19124423365E+04  0.00000000000E+00 0. -1.
         21   -1    0    0  501  503 -0.00000000000E+00 -0.00000000000E+00 -0.54924760909E+02  0.54924760909E+02  0.00000000000E+00 0. -1.
          6    2    1    2  501    0  0.21288322508E+03 -0.92512729889E+02  0.13841373468E+04  0.14137029252E+04  0.16982901232E+03 0.  0.
         24    2    3    3    0    0  0.98353078524E+02 -0.10174862607E+03  0.60767383951E+03  0.62876972786E+03  0.77831641982E+02 0.  0.
         -6    2    1    2    0  502 -0.21288322508E+03  0.92512729889E+02  0.47338022881E+03  0.55366417215E+03  0.16904822324E+03 0.  0.
        -24    2    5    5    0    0 -0.15915283474E+03  0.12888616983E+03  0.33136698904E+03  0.39745971559E+03  0.78923219079E+02 0.  0.
          5    1    3    3  501    0  0.11453014655E+03  0.92358961847E+01  0.77646350725E+03  0.78493319737E+03  0.47000000000E+01 0. -1.
        -11    1    4    4    0    0  0.93182894224E+02 -0.10130855350E+03  0.60817474260E+03  0.62355672743E+03  0.00000000000E+00 0.  1.
         12    1    4    4    0    0  0.51701842995E+01 -0.44007257337E+00 -0.50090309641E+00  0.52130004290E+01  0.00000000000E+00 0. -1.
         -5    1    5    5    0  502 -0.53730390339E+02 -0.36373439944E+02  0.14201323977E+03  0.15620445656E+03  0.47000000000E+01 0.  1.
         11    1    6    6    0    0 -0.75112452959E+02  0.96855606220E+02  0.14039540731E+03  0.18636995316E+03  0.00000000000E+00 0. -1.
        -12    1    6    6    0    0 -0.84040381780E+02  0.32030563613E+02  0.19097158173E+03  0.21108976243E+03  0.00000000000E+00 0.  1.
</event>
<event>
12    1  0.1032880E+000  0.1997484E+03  0.7818608E-02  0.1150310E+00
         21   -1    0    0  501  502  0.00000000000E+00  0.00000000000E+00  0.11876841618E+04  0.11876841618E+04  0.00000000000E+00 0.  1.
         21   -1    0    0  502  503 -0.00000000000E+00 -0.00000000000E+00 -0.33643479075E+02  0.33643479075E+02  0.00000000000E+00 0.  1.
         -6    2    1    2    0  503  0.35999829780E+02 -0.88793477599E+02  0.51872929360E+03  0.55585926331E+03  0.17526885395E+03 0.  0.
        -24    2    3    3    0    0  0.44490910749E+02  0.82476121834E+01  0.16504882708E+03  0.18897912763E+03  0.80153172817E+02 0.  0.
          6    2    1    2  501    0 -0.35999829780E+02  0.88793477599E+02  0.63531138911E+03  0.66546837754E+03  0.17334165966E+03 0.  0.
         24    2    5    5    0    0 -0.22216290863E+02  0.57570601489E+02  0.61916313932E+03  0.62741959427E+03  0.80525874364E+02 0.  0.
          5    1    5    5  501    0 -0.13783538917E+02  0.31222876110E+02  0.16148249787E+02  0.38048783277E+02  0.47000000000E+01 0. -1.
        -13    1    6    6    0    0  0.25384835517E+01  0.30216597171E+02  0.53078449802E+03  0.53164995061E+03  0.00000000000E+00 0.  1.
         14    1    6    6    0    0 -0.24754774415E+02  0.27354004318E+02  0.88378641302E+02  0.95769643661E+02  0.00000000000E+00 0. -1.
         -5    1    3    3    0  503 -0.84910809691E+01 -0.97041089783E+02  0.35368046652E+03  0.36688013568E+03  0.47000000000E+01 0.  1.
         13    1    4    4    0    0  0.29021026534E+02 -0.20019763590E+02  0.14874405374E+03  0.15286531470E+03  0.00000000000E+00 0. -1.
        -14    1    4    4    0    0  0.15469884216E+02  0.28267375773E+02  0.16304773346E+02  0.36113812934E+02  0.00000000000E+00 0.  1.
</event>
<event>
12    1  0.1032880E+000  0.1862761E+03  0.7818608E-02  0.1161949E+00
         21   -1    0    0  503  502  0.00000000000E+00  0.00000000000E+00  0.79499153386E+03  0.79499153386E+03  0.00000000000E+00 0.  1.
         21   -1    0    0  501  503 -0.00000000000E+00 -0.00000000000E+00 -0.50439909036E+02  0.50439909036E+02  0.00000000000E+00 0.  1.
          6    2    1    2  501    0 -0.17462709080E+02 -0.67939187046E+02  0.21647808981E+03  0.28558981869E+03  0.17256332700E+03 0.  0.
         24    2    3    3    0    0 -0.67711943048E+02 -0.15448110913E+02  0.16632837560E+03  0.19717385619E+03  0.79930280089E+02 0.  0.
         -6    2    1    2    0  502  0.17462709080E+02  0.67939187046E+02  0.52807353501E+03  0.55984162421E+03  0.17216360380E+03 0.  0.
        -24    2    5    5    0    0  0.11745424541E+02  0.10954143323E+03  0.31929001292E+03  0.34682499733E+03  0.78766654301E+02 0.  0.
          5    1    3    3  501    0  0.50249233967E+02 -0.52491076133E+02  0.50149714213E+02  0.88415962493E+02  0.47000000000E+01 0. -1.
        -11    1    4    4    0    0  0.12589995783E+02  0.11639038087E+02  0.52721662305E+02  0.55439596658E+02  0.00000000000E+00 0.  1.
         12    1    4    4    0    0 -0.80301938831E+02 -0.27087149000E+02  0.11360671329E+03  0.14173425954E+03  0.00000000000E+00 0. -1.
         -5    1    5    5    0  502  0.57172845395E+01 -0.41602246186E+02  0.20878352209E+03  0.21301662688E+03  0.47000000000E+01 0.  1.
         13    1    6    6    0    0 -0.11410256242E+02  0.63371164228E+02  0.26152500402E+03  0.26933515577E+03  0.00000000000E+00 0. -1.
        -14    1    6    6    0    0  0.23155680783E+02  0.46170269004E+02  0.57765008899E+02  0.77489841564E+02  0.00000000000E+00 0.  1.
</event>
<event>
12    1  0.1032880E+000  0.2098538E+03  0.7818608E-02  0.1142415E+00
         21   -1    0    0  501  502  0.00000000000E+00  0.00000000000E+00  0.62931378761E+02  0.62931378761E+02  0.00000000000E+00 0.  1.
         21   -1    0    0  502  503 -0.00000000000E+00 -0.00000000000E+00 -0.69311963206E+03  0.69311963206E+03  0.00000000000E+00 0.  1.
         -6    2    1    2    0  503 -0.11921162668E+03 -0.97599139107E+01 -0.35154375070E+03  0.40941618519E+03  0.17242951077E+03 0.  0.
        -24    2    3    3    0    0 -0.23075160883E+02 -0.51784158720E+02 -0.22470547499E+03  0.24473984994E+03  0.78682790444E+02 0.  0.
          6    2    1    2  501    0  0.11921162668E+03  0.97599139107E+01 -0.27864450260E+03  0.34663482563E+03  0.16794724069E+03 0.  0.
         24    2    5    5    0    0  0.13858802264E+03 -0.27405270154E+02 -0.20719851732E+03  0.26366908306E+03  0.81439983616E+02 0.  0.
          5    1    5    5  501    0 -0.19376395964E+02  0.37165184065E+02 -0.71445985277E+02  0.82965742565E+02  0.47000000000E+01 0. -1.
        -13    1    6    6    0    0  0.25357568589E+02  0.27344125515E+02 -0.47095586009E+02  0.60072470454E+02  0.00000000000E+00 0.  1.
         14    1    6    6    0    0  0.11323045406E+03 -0.54749395669E+02 -0.16010293131E+03  0.20359661261E+03  0.00000000000E+00 0. -1.
         -5    1    3    3    0  503 -0.96136465797E+02  0.42024244810E+02 -0.12683827571E+03  0.16467633525E+03  0.47000000000E+01 0.  1.
         13    1    4    4    0    0 -0.32511734328E+02 -0.60716408945E+02 -0.11338549884E+03  0.13266411169E+03  0.00000000000E+00 0. -1.
        -14    1    4    4    0    0  0.94365734450E+01  0.89322502245E+01 -0.11131997616E+03  0.11207573825E+03  0.00000000000E+00 0.  1.
</event>
<event>
12    1  0.1032880E+000  0.1863545E+03  0.7818608E-02  0.1161797E+00
         21   -1    0    0  501  502  0.00000000000E+00  0.00000000000E+00  0.11222580445E+03  0.11222580445E+03  0.00000000000E+00 0.  1.
         21   -1    0    0  502  503 -0.00000000000E+00 -0.00000000000E+00 -0.31028069307E+03  0.31028069307E+03  0.00000000000E+00 0.  1.
         -6    2    1    2    0  503  0.31725457174E+02 -0.64813100110E+02 -0.87802805205E+02  0.20598048692E+03  0.17178878255E+03 0.  0.
        -24    2    3    3    0    0  0.31048645039E+01  0.22061733006E+02 -0.56004821780E+01  0.82912672827E+02  0.79666716186E+02 0.  0.
          6    2    1    2  501    0 -0.31725457174E+02  0.64813100110E+02 -0.11025208341E+03  0.21652601060E+03  0.17181603182E+03 0.  0.
         24    2    5    5    0    0 -0.14571051501E+02 -0.29699365043E+02 -0.75828833687E+02  0.11437940114E+03  0.78982704184E+02 0.  0.
          5    1    5    5  501    0 -0.17154405673E+02  0.94512465153E+02 -0.34423249725E+02  0.10214660946E+03  0.47000000000E+01 0. -1.
        -13    1    6    6    0    0 -0.21143649871E+02 -0.29690890548E+02  0.17793393550E+01  0.36493409815E+02  0.00000000000E+00 0.  1.
         14    1    6    6    0    0  0.65725983700E+01 -0.84744955300E-02 -0.77608173042E+02  0.77885991321E+02  0.00000000000E+00 0. -1.
         -5    1    3    3    0  503  0.28620592670E+02 -0.86874833116E+02 -0.82202323027E+02  0.12306781409E+03  0.47000000000E+01 0.  1.
         13    1    4    4    0    0 -0.31536609627E+02  0.32929335635E+02 -0.89051376238E+01  0.46456435165E+02  0.00000000000E+00 0. -1.
        -14    1    4    4    0    0  0.34641474131E+02 -0.10867602629E+02  0.33046554458E+01  0.36456237662E+02  0.00000000000E+00 0.  1.
</event>
<event>
12    1  0.1032880E+000  0.3228956E+03  0.7818608E-02  0.1074371E+00
         21   -1    0    0  503  502  0.00000000000E+00  0.00000000000E+00  0.54007343076E+03  0.54007343076E+03  0.00000000000E+00 0.  1.
         21   -1    0    0  501  503 -0.00000000000E+00 -0.00000000000E+00 -0.28405999454E+03  0.28405999454E+03  0.00000000000E+00 0.  1.
          6    2    1    2  501    0 -0.26299636943E+03 -0.76150285545E+02 -0.10549490949E+03  0.33969214447E+03  0.17115963532E+03 0.  0.
         24    2    3    3    0    0 -0.64863879178E+02 -0.68322443788E+02 -0.52476057854E+02  0.13438542897E+03  0.80189947775E+02 0.  0.
         -6    2    1    2    0  502  0.26299636943E+03  0.76150285545E+02  0.36150834571E+03  0.48444128083E+03  0.17037932455E+03 0.  0.
        -24    2    5    5    0    0  0.22615885226E+03  0.68726563675E+01  0.30284142967E+03  0.38635820577E+03  0.79778893093E+02 0.  0.
          5    1    3    3  501    0 -0.19813249025E+03 -0.78278417574E+01 -0.53018851641E+02  0.20530671550E+03  0.47000000000E+01 0. -1.
        -13    1    4    4    0    0 -0.18877265100E+02 -0.16964973494E+02 -0.59894494658E+02  0.65050072664E+02  0.00000000000E+00 0.  1.
         14    1    4    4    0    0 -0.45986614078E+02 -0.51357470294E+02  0.74184368036E+01  0.69335356305E+02  0.00000000000E+00 0. -1.
         -5    1    5    5    0  502  0.36837517174E+02  0.69277629178E+02  0.58666916043E+02  0.98083075064E+02  0.47000000000E+01 0.  1.
         13    1    6    6    0    0  0.13102290261E+03  0.30702288109E+02  0.12711456549E+03  0.18511548899E+03  0.00000000000E+00 0. -1.
        -14    1    6    6    0    0  0.95135949646E+02 -0.23829631741E+02  0.17572686418E+03  0.20124271678E+03  0.00000000000E+00 0.  1.
</event>
<event>
12    1  0.1032880E+000  0.2951979E+03  0.7818608E-02  0.1087747E+00
         21   -1    0    0  503  502  0.00000000000E+00  0.00000000000E+00  0.78721404132E+03  0.78721404132E+03  0.00000000000E+00 0. -1.
         21   -1    0    0  501  503 -0.00000000000E+00 -0.00000000000E+00 -0.11622564708E+03  0.11622564708E+03  0.00000000000E+00 0. -1.
          6    2    1    2  501    0 -0.18113602247E+03 -0.15678627731E+03  0.43576530859E+03  0.52598546373E+03  0.17139751603E+03 0.  0.
         24    2    3    3    0    0 -0.12787498612E+03 -0.46591657254E+02  0.32475077408E+03  0.36067996124E+03  0.78129217150E+02 0.  0.
         -6    2    1    2    0  502  0.18113602247E+03  0.15678627731E+03  0.23522308566E+03  0.37745422467E+03  0.17248071284E+03 0.  0.
        -24    2    5    5    0    0  0.12374119711E+03  0.10505140726E+03  0.23903101846E+03  0.29994775326E+03  0.80530397173E+02 0.  0.
          5    1    3    3  501    0 -0.53261036352E+02 -0.11019462006E+03  0.11101453451E+03  0.16530550250E+03  0.47000000000E+01 0. -1.
        -11    1    4    4    0    0 -0.62796466714E+02 -0.63602382776E+02  0.17445002895E+03  0.19601395850E+03  0.00000000000E+00 0.  1.
         12    1    4    4    0    0 -0.65078519407E+02  0.17010725522E+02  0.15030074513E+03  0.16466600273E+03  0.00000000000E+00 0. -1.
         -5    1    5    5    0  502  0.57394825359E+02  0.51734870054E+02 -0.38079328032E+01  0.77506471405E+02  0.47000000000E+01 0.  1.
         13    1    6    6    0    0  0.24933052271E+02  0.16180403241E+02  0.11282514498E+03  0.11667465828E+03  0.00000000000E+00 0. -1.
        -14    1    6    6    0    0  0.98808144844E+02  0.88871004020E+02  0.12620587348E+03  0.18327309498E+03  0.00000000000E+00 0.  1.
</event>
<event>
12    1  0.1032880E+000  0.2486110E+03  0.7818608E-02  0.1114897E+00
         21   -1    0    0  501  502  0.00000000000E+00  0.00000000000E+00  0.13121981693E+04  0.13121981693E+04  0.00000000000E+00 0.  1.
         21   -1    0    0  502  503 -0.00000000000E+00 -0.00000000000E+00 -0.55908842764E+02  0.55908842764E+02  0.00000000000E+00 0. -1.
         -6    2    1    2    0  503 -0.16947232279E+03 -0.61705434914E+02  0.33942652033E+03  0.41813605861E+03  0.16461765373E+03 0.  0.
        -24    2    3    3    0    0 -0.77207421107E+02  0.27712444769E+02  0.17665879685E+03  0.21071428759E+03  0.80394123041E+02 0.  0.
          6    2    1    2  501    0  0.16947232279E+03  0.61705434914E+02  0.91686280620E+03  0.94997095345E+03  0.17111101107E+03 0.  0.
         24    2    5    5    0    0  0.18197038062E+03  0.83282295173E+02  0.87240602839E+03  0.89878250317E+03  0.81661187380E+02 0.  0.
          5    1    5    5  501    0 -0.12498057834E+02 -0.21576860259E+02  0.44456777810E+02  0.51188450274E+02  0.47000000000E+01 0. -1.
        -11    1    6    6    0    0  0.34153052519E+02  0.26008963489E+02  0.35636259355E+03  0.35893898543E+03  0.00000000000E+00 0.  1.
         12    1    6    6    0    0  0.14781732810E+03  0.57273331684E+02  0.51604343484E+03  0.53984351775E+03  0.00000000000E+00 0. -1.
         -5    1    3    3    0  503 -0.92264901679E+02 -0.89417879683E+02  0.16276772348E+03  0.20742177103E+03  0.47000000000E+01 0.  1.
         11    1    4    4    0    0 -0.71181019469E+01  0.11192874642E+02 -0.58619484212E+01  0.14502077691E+02  0.00000000000E+00 0. -1.
        -12    1    4    4    0    0 -0.70089319160E+02  0.16519570127E+02  0.18252074527E+03  0.19621220990E+03  0.00000000000E+00 0.  1.
</event>
<event>
12    1  0.1032880E+000  0.3133460E+03  0.7818608E-02  0.1078855E+00
         21   -1    0    0  503  502  0.00000000000E+00  0.00000000000E+00  0.12425885974E+04  0.12425885974E+04  0.00000000000E+00 0. -1.
         21   -1    0    0  501  503 -0.00000000000E+00 -0.00000000000E+00 -0.11116943854E+03  0.11116943854E+03  0.00000000000E+00 0. -1.
          6    2    1    2  501    0  0.21354883995E+01  0.26075847796E+03  0.93151297817E+03  0.98280321157E+03  0.17374170495E+03 0.  0.
         24    2    3    3    0    0 -0.37807150164E+02  0.14317310355E+03  0.70157227043E+03  0.72142885604E+03  0.79548887591E+02 0.  0.
         -6    2    1    2    0  502 -0.21354883995E+01 -0.26075847796E+03  0.19990618074E+03  0.37095482442E+03  0.17217856000E+03 0.  0.
        -24    2    5    5    0    0  0.19340603822E+02 -0.18018696524E+03  0.57337337151E+02  0.20572481394E+03  0.78700237884E+02 0.  0.
          5    1    3    3  501    0  0.39942638563E+02  0.11758537441E+03  0.22994070774E+03  0.26137435553E+03  0.47000000000E+01 0. -1.
        -13    1    4    4    0    0 -0.35642680411E+02  0.75798537270E+02  0.22447711598E+03  0.23959506363E+03  0.00000000000E+00 0.  1.
         14    1    4    4    0    0 -0.21644697521E+01  0.67374566277E+02  0.47709515445E+03  0.48183379241E+03  0.00000000000E+00 0. -1.
         -5    1    5    5    0  502 -0.21476092221E+02 -0.80571512723E+02  0.14256884359E+03  0.16523001047E+03  0.47000000000E+01 0.  1.
         13    1    6    6    0    0 -0.28103500489E+02 -0.97951069697E+02  0.20848450443E+02  0.10401382927E+03  0.00000000000E+00 0. -1.
        -14    1    6    6    0    0  0.47444104310E+02 -0.82235895538E+02  0.36488886708E+02  0.10171098467E+03  0.00000000000E+00 0.  1.
</event>
<event>
12    1  0.1032880E+000  0.1757649E+03  0.7818608E-02  0.1172813E+00
         21   -1    0    0  501  502  0.00000000000E+00  0.00000000000E+00  0.16310592767E+04  0.16310592767E+04  0.00000000000E+00 0. -1.
         21   -1    0    0  502  503 -0.00000000000E+00 -0.00000000000E+00 -0.25505377639E+02  0.25505377639E+02  0.00000000000E+00 0. -1.
         -6    2    1    2    0  503  0.15650911389E+02  0.13247079902E+02  0.12287137317E+04  0.12407500269E+04  0.17118048552E+03 0.  0.
        -24    2    3    3    0    0 -0.52412950209E+02 -0.13940501907E+02  0.67620381857E+03  0.68338017844E+03  0.82555491007E+02 0.  0.
          6    2    1    2  501    0 -0.15650911389E+02 -0.13247079902E+02  0.37684016738E+03  0.41581462746E+03  0.17456476307E+03 0.  0.
         24    2    5    5    0    0 -0.12193784086E+02 -0.67722379633E+02  0.15980691525E+03  0.19197309302E+03  0.81119721456E+02 0.  0.
          5    1    5    5  501    0 -0.34571273028E+01  0.54475299731E+02  0.21703325213E+03  0.22384153444E+03  0.47000000000E+01 0. -1.
        -11    1    6    6    0    0 -0.26964513397E+02  0.23290240377E+01  0.16285597619E+02  0.31586864763E+02  0.00000000000E+00 0.  1.
         12    1    6    6    0    0  0.14770729311E+02 -0.70051403671E+02  0.14352131763E+03  0.16038622826E+03  0.00000000000E+00 0. -1.
         -5    1    3    3    0  503  0.68063861597E+02  0.27187581809E+02  0.55250991313E+03  0.55736984846E+03  0.47000000000E+01 0.  1.
         13    1    4    4    0    0 -0.14043166156E+02  0.24344815740E+02  0.44585714028E+03  0.44674206217E+03  0.00000000000E+00 0. -1.
        -14    1    4    4    0    0 -0.38369784053E+02 -0.38285317647E+02  0.23034667829E+03  0.23663811627E+03  0.00000000000E+00 0.  1.
</event>
<event>
12    1  0.1032880E+000  0.2271735E+03  0.7818608E-02  0.1130590E+00
         21   -1    0    0  503  502  0.00000000000E+00  0.00000000000E+00  0.32982433552E+03  0.32982433552E+03  0.00000000000E+00 0. -1.
         21   -1    0    0  501  503 -0.00000000000E+00 -0.00000000000E+00 -0.17162510343E+03  0.17162510343E+03  0.00000000000E+00 0. -1.
          6    2    1    2  501    0 -0.14849255210E+03  0.86985807531E+01  0.17124177944E+03  0.28448468223E+03  0.17170347714E+03 0.  0.
         24    2    3    3    0    0 -0.15541888726E+02  0.32649984536E+02  0.95763488650E+02  0.12966668904E+03  0.79594174993E+02 0.  0.
         -6    2    1    2    0  502  0.14849255210E+03 -0.86985807531E+01 -0.13042547350E+02  0.21696475672E+03  0.15740995610E+03 0.  0.
        -24    2    5    5    0    0  0.10897225979E+03  0.20010294285E+02 -0.60611276365E+02  0.14862057635E+03  0.78351666293E+02 0.  0.
          5    1    3    3  501    0 -0.13295066337E+03 -0.23951403783E+02  0.75478290788E+02  0.15481799319E+03  0.47000000000E+01 0. -1.
        -13    1    4    4    0    0 -0.46956290448E+02  0.23337823207E+02  0.44231406220E+02  0.68600032805E+02  0.00000000000E+00 0.  1.
         14    1    4    4    0    0  0.31414401722E+02  0.93121613293E+01  0.51532082430E+02  0.61066656235E+02  0.00000000000E+00 0. -1.
         -5    1    5    5    0  502  0.39520292307E+02 -0.28708875038E+02  0.47568729014E+02  0.68344180367E+02  0.47000000000E+01 0.  1.
         11    1    6    6    0    0  0.98724552426E+02  0.14535278606E+02 -0.14220506293E+02  0.10079699586E+03  0.00000000000E+00 0. -1.
        -12    1    6    6    0    0  0.10247707368E+02  0.54750156792E+01 -0.46390770072E+02  0.47823580489E+02  0.00000000000E+00 0.  1.
</event>
<event>
12    1  0.1032880E+000  0.2824264E+03  0.7818608E-02  0.1095187E+00
         21   -1    0    0  501  502  0.00000000000E+00  0.00000000000E+00  0.62431946239E+02  0.62431946239E+02  0.00000000000E+00 0. -1.
         21   -1    0    0  502  503 -0.00000000000E+00 -0.00000000000E+00 -0.14653236270E+04  0.14653236270E+04  0.00000000000E+00 0. -1.
         -6    2    1    2    0  503 -0.20901708623E+03  0.63094638166E+02 -0.41554933026E+03  0.50243998554E+03  0.17915249786E+03 0.  0.
        -24    2    3    3    0    0 -0.52176757862E+02 -0.29317538441E+02 -0.11989583961E+03  0.15520522991E+03  0.78305293008E+02 0.  0.
          6    2    1    2  501    0  0.20901708623E+03 -0.63094638166E+02 -0.98734235055E+03  0.10253155877E+04  0.16958202024E+03 0.  0.
         24    2    5    5    0    0  0.17850381786E+03  0.13045898426E+01 -0.82600956113E+03  0.84888237359E+03  0.80275613822E+02 0.  0.
          5    1    5    5  501    0  0.30513268372E+02 -0.64399228009E+02 -0.16133278942E+03  0.17643321415E+03  0.47000000000E+01 0. -1.
        -11    1    6    6    0    0  0.12014921170E+03 -0.11748199266E+02 -0.68746600312E+03  0.69798521382E+03  0.00000000000E+00 0.  1.
         12    1    6    6    0    0  0.58354606154E+02  0.13052789109E+02 -0.13854355801E+03  0.15089715978E+03  0.00000000000E+00 0. -1.
         -5    1    3    3    0  503 -0.15684032837E+03  0.92412176607E+02 -0.29565349065E+03  0.34723475563E+03  0.47000000000E+01 0.  1.
         13    1    4    4    0    0  0.67879134652E+01  0.99935341311E+01  0.37850963130E+01  0.12659914997E+02  0.00000000000E+00 0. -1.
        -14    1    4    4    0    0 -0.58964671327E+02 -0.39311072572E+02 -0.12368093593E+03  0.14254531491E+03  0.00000000000E+00 0.  1.
</event>
<event>
12    1  0.1032880E+000  0.1859040E+03  0.7818608E-02  0.1162219E+00
         21   -1    0    0  501  502  0.00000000000E+00  0.00000000000E+00  0.19745904745E+03  0.19745904745E+03  0.00000000000E+00 0. -1.
         21   -1    0    0  502  503 -0.00000000000E+00 -0.00000000000E+00 -0.18184847725E+03  0.18184847725E+03  0.00000000000E+00 0. -1.
         -6    2    1    2    0  503  0.67253810582E+02 -0.23549273909E+02 -0.29044872659E+02  0.18815921053E+03  0.17170509760E+03 0.  0.
        -24    2    3    3    0    0  0.17365633201E+02 -0.54391716502E+02 -0.66201644327E+02  0.11856896561E+03  0.80099424805E+02 0.  0.
          6    2    1    2  501    0 -0.67253810582E+02  0.23549273909E+02  0.44655442861E+02  0.19114831417E+03  0.17165641873E+03 0.  0.
         24    2    5    5    0    0 -0.11239527677E+03  0.23766522896E+02  0.25143083545E+02  0.14174566917E+03  0.79133521506E+02 0.  0.
          5    1    5    5  501    0  0.45141466191E+02 -0.21724898703E+00  0.19512359317E+02  0.49402645001E+02  0.47000000000E+01 0. -1.
        -13    1    6    6    0    0 -0.99616777359E+02  0.49147176508E+02  0.20247586630E+02  0.11291108030E+03  0.00000000000E+00 0.  1.
         14    1    6    6    0    0 -0.12778499414E+02 -0.25380653613E+02  0.48954969149E+01  0.28834588867E+02  0.00000000000E+00 0. -1.
         -5    1    3    3    0  503  0.49888177381E+02  0.30842442593E+02  0.37156771669E+02  0.69590244922E+02  0.47000000000E+01 0.  1.
         11    1    4    4    0    0 -0.25459923031E+02 -0.48891804257E+02 -0.34971983359E+02  0.65281358934E+02  0.00000000000E+00 0. -1.
        -12    1    4    4    0    0  0.42825556232E+02 -0.54999122453E+01 -0.31229660969E+02  0.53287606678E+02  0.00000000000E+00 0.  1.
</event>
<event>
12    1  0.1032880E+000  0.1759731E+03  0.7818608E-02  0.1177717E+00
         21   -1    0    0  501  502  0.00000000000E+00  0.00000000000E+00  0.19186804847E+04  0.19186804847E+04  0.00000000000E+00 0.  1.
         21   -1    0    0  502  503 -0.00000000000E+00 -0.00000000000E+00 -0.16328711089E+02  0.16328711089E+02  0.00000000000E+00 0.  1.
         -6    2    1    2    0  503 -0.20613938212E+02  0.29140870562E+02  0.13584700146E+04  0.13698201744E+04  0.17231484174E+03 0.  0.
        -24    2    3    3    0    0 -0.20144362217E+02 -0.10958865810E+02  0.12690393629E+04  0.12716970842E+04  0.78909297777E+02 0.  0.
          6    2    1    2  501    0  0.20613938212E+02 -0.29140870562E+02  0.54388175899E+03  0.56518902143E+03  0.14952303298E+03 0.  0.
         24    2    5    5    0    0 -0.24199645225E+02 -0.41145266814E+02  0.45965605854E+03  0.46891638042E+03  0.79500464543E+02 0.  0.
          5    1    5    5  501    0  0.44813583437E+02  0.12004396252E+02  0.84225700455E+02  0.96272641010E+02  0.47000000000E+01 0. -1.
        -13    1    6    6    0    0  0.13150026890E+02 -0.18868036735E+01  0.11722582100E+02  0.17717284397E+02  0.00000000000E+00 0.  1.
         14    1    6    6    0    0 -0.37349672115E+02 -0.39258463140E+02  0.44793347644E+03  0.45119909602E+03  0.00000000000E+00 0. -1.
         -5    1    3    3    0  503 -0.46957599567E+00  0.40099736372E+02  0.89430651743E+02  0.98123090198E+02  0.47000000000E+01 0.  1.
         13    1    4    4    0    0  0.12686280145E+02  0.75142947968E+01  0.51345519919E+02  0.53420677139E+02  0.00000000000E+00 0. -1.
        -14    1    4    4    0    0 -0.32830642362E+02 -0.18473160607E+02  0.12176938430E+04  0.12182764070E+04  0.00000000000E+00 0.  1.
</event>
<event>
12    1  0.1032880E+000  0.1777576E+03  0.7818608E-02  0.1175462E+00
         21   -1    0    0  501  502  0.00000000000E+00  0.00000000000E+00  0.60325351623E+02  0.60325351623E+02  0.00000000000E+00 0. -1.
         21   -1    0    0  502  503 -0.00000000000E+00 -0.00000000000E+00 -0.49648743234E+03  0.49648743234E+03  0.00000000000E+00 0. -1.
         -6    2    1    2    0  503  0.40578567432E+02 -0.23566803556E+02 -0.15994832499E+03  0.23912596806E+03  0.17145188120E+03 0.  0.
        -24    2    3    3    0    0 -0.33925928510E+02 -0.25546467013E+02 -0.13158952008E+03  0.15924386243E+03  0.78988703784E+02 0.  0.
          6    2    1    2  501    0 -0.40578567432E+02  0.23566803556E+02 -0.27621375573E+03  0.31768681591E+03  0.14976267821E+03 0.  0.
         24    2    5    5    0    0  0.26236527948E+02  0.90994462260E+01 -0.13825055216E+03  0.16364300092E+03  0.83034096952E+02 0.  0.
          5    1    5    5  501    0 -0.66815095381E+02  0.14467357330E+02 -0.13796320356E+03  0.15404381499E+03  0.47000000000E+01 0. -1.
        -11    1    6    6    0    0  0.96782679762E+01  0.26467969997E+02 -0.13672349062E+03  0.13959776214E+03  0.00000000000E+00 0.  1.
         12    1    6    6    0    0  0.16558259972E+02 -0.17368523771E+02 -0.15270615463E+01  0.24045238785E+02  0.00000000000E+00 0. -1.
         -5    1    3    3    0  503  0.74504495942E+02  0.19796634569E+01 -0.28358804918E+02  0.79882105627E+02  0.47000000000E+01 0.  1.
         11    1    4    4    0    0 -0.33627419140E+02  0.18639029391E+02 -0.31039276744E+02  0.49413089717E+02  0.00000000000E+00 0. -1.
        -12    1    4    4    0    0 -0.29850937031E+00 -0.44185496404E+02 -0.10055024333E+03  0.10983077271E+03  0.00000000000E+00 0.  1.
</event>
<event>
12    1  0.1032880E+000  0.3290439E+03  0.7818608E-02  0.1072253E+00
         21   -1    0    0  501  502  0.00000000000E+00  0.00000000000E+00  0.12673032774E+03  0.12673032774E+03  0.00000000000E+00 0. -1.
         21   -1    0    0  502  503 -0.00000000000E+00 -0.00000000000E+00 -0.94363268170E+03  0.94363268170E+03  0.00000000000E+00 0. -1.
         -6    2    1    2    0  503  0.18969061069E+03 -0.20690560129E+03 -0.23315260400E+03  0.40327413626E+03  0.17168994321E+03 0.  0.
        -24    2    3    3    0    0  0.13257096603E+03 -0.53627877516E+02 -0.13169491854E+03  0.21073202048E+03  0.81322952517E+02 0.  0.
          6    2    1    2  501    0 -0.18969061069E+03  0.20690560129E+03 -0.58374974997E+03  0.66708887317E+03  0.15953475640E+03 0.  0.
         24    2    5    5    0    0 -0.13078553600E+03  0.19917010092E+03 -0.38874126020E+03  0.46317701263E+03  0.81483692356E+02 0.  0.
          5    1    5    5  501    0 -0.58905074688E+02  0.77355003734E+01 -0.19500848977E+03  0.20391186055E+03  0.47000000000E+01 0. -1.
        -11    1    6    6    0    0 -0.10126575212E+03  0.89019330230E+02 -0.17499732189E+03  0.22091459068E+03  0.00000000000E+00 0.  1.
         12    1    6    6    0    0 -0.29519783876E+02  0.11015077069E+03 -0.21374393832E+03  0.24226242195E+03  0.00000000000E+00 0. -1.
         -5    1    3    3    0  503  0.57119644658E+02 -0.15327772377E+03 -0.10145768545E+03  0.19254211578E+03  0.47000000000E+01 0.  1.
         11    1    4    4    0    0  0.13508404648E+02 -0.20852890314E+02  0.62160597177E+01  0.25611704922E+02  0.00000000000E+00 0. -1.
        -12    1    4    4    0    0  0.11906256138E+03 -0.32774987201E+02 -0.13791097826E+03  0.18512031556E+03  0.00000000000E+00 0.  1.
</event>
<event>
12    1  0.1032880E+000  0.2020209E+03  0.7818608E-02  0.1149133E+00
         21   -1    0    0  503  502  0.00000000000E+00  0.00000000000E+00  0.64610079189E+03  0.64610079189E+03  0.00000000000E+00 0.  1.
         21   -1    0    0  501  503 -0.00000000000E+00 -0.00000000000E+00 -0.67057957612E+02  0.67057957612E+02  0.00000000000E+00 0.  1.
          6    2    1    2  501    0  0.33295895791E+02  0.85651712743E+02  0.39499733306E+03  0.44366127591E+03  0.17990998318E+03 0.  0.
         24    2    3    3    0    0  0.46825354903E+01  0.74859834859E+02  0.39838423790E+03  0.41253652466E+03  0.76488313879E+02 0.  0.
         -6    2    1    2    0  502 -0.33295895791E+02 -0.85651712743E+02  0.18404550121E+03  0.26949747358E+03  0.17410143359E+03 0.  0.
        -24    2    5    5    0    0 -0.14959147001E+02 -0.11378789900E+03  0.18912180176E+03  0.23520840593E+03  0.79902917855E+02 0.  0.
          5    1    3    3  501    0  0.28613360301E+02  0.10791877885E+02 -0.33869048396E+01  0.31124751250E+02  0.47000000000E+01 0. -1.
        -13    1    4    4    0    0  0.53236484601E+01 -0.57383717314E+01  0.17294355007E+03  0.17312059858E+03  0.00000000000E+00 0.  1.
         14    1    4    4    0    0 -0.64111296980E+00  0.80598206590E+02  0.22544068784E+03  0.23941592608E+03  0.00000000000E+00 0. -1.
         -5    1    5    5    0  502 -0.18336748790E+02  0.28136186255E+02 -0.50763005496E+01  0.34289067652E+02  0.47000000000E+01 0.  1.
         13    1    6    6    0    0 -0.13676943224E+02  0.72858403087E+01  0.41399817046E+02  0.44205057363E+02  0.00000000000E+00 0. -1.
        -14    1    6    6    0    0 -0.12822037771E+01 -0.12107373931E+03  0.14772198472E+03  0.19100334857E+03  0.00000000000E+00 0.  1.
</event>
<event>
12    1  0.1032880E+000  0.1750997E+03  0.7818608E-02  0.1173391E+00
         21   -1    0    0  501  502  0.00000000000E+00  0.00000000000E+00  0.22496483394E+03  0.22496483394E+03  0.00000000000E+00 0.  1.
         21   -1    0    0  502  503 -0.00000000000E+00 -0.00000000000E+00 -0.13419695282E+03  0.13419695282E+03  0.00000000000E+00 0.  1.
         -6    2    1    2    0  503  0.94242626784E+01  0.21417840066E+02  0.38265695134E+02  0.17923212552E+03  0.17352910648E+03 0.  0.
        -24    2    3    3    0    0 -0.40336517961E+02 -0.36045267920E+02  0.18978949623E+02  0.10066869496E+03  0.82750767944E+02 0.  0.
          6    2    1    2  501    0 -0.94242626784E+01 -0.21417840066E+02  0.52502185984E+02  0.17992966123E+03  0.17050121072E+03 0.  0.
         24    2    5    5    0    0 -0.58349725355E+02  0.27370700444E+02  0.30477622988E+02  0.10725783754E+03  0.80134340452E+02 0.  0.
          5    1    5    5  501    0  0.48925462677E+02 -0.48788540510E+02  0.22024562996E+02  0.72671823690E+02  0.47000000000E+01 0. -1.
        -13    1    6    6    0    0 -0.17631213931E+02 -0.26210502618E+02 -0.36547656880E+01  0.31799488430E+02  0.00000000000E+00 0.  1.
         14    1    6    6    0    0 -0.40718511424E+02  0.53581203062E+02  0.34132388676E+02  0.75458349114E+02  0.00000000000E+00 0. -1.
         -5    1    3    3    0  503  0.49760780640E+02  0.57463107986E+02  0.19286745511E+02  0.78563430562E+02  0.47000000000E+01 0.  1.
         13    1    4    4    0    0 -0.11226733463E+02  0.11172617749E+02 -0.25194055775E+02  0.29759156204E+02  0.00000000000E+00 0. -1.
        -14    1    4    4    0    0 -0.29109784498E+02 -0.47217885669E+02  0.44173005397E+02  0.70909538755E+02  0.00000000000E+00 0.  1.
</event>
<event>
12    1  0.1032880E+000  0.2206322E+03  0.7818608E-02  0.1133627E+00
         21   -1    0    0  501  502  0.00000000000E+00  0.00000000000E+00  0.71147486285E+02  0.71147486285E+02  0.00000000000E+00 0.  1.
         21   -1    0    0  502  503 -0.00000000000E+00 -0.00000000000E+00 -0.93777082594E+03  0.93777082594E+03  0.00000000000E+00 0.  1.
         -6    2    1    2    0  503 -0.42695209584E+02  0.13068052710E+03 -0.16833112830E+03  0.27659967844E+03  0.17108983684E+03 0.  0.
        -24    2    3    3    0    0 -0.10773278854E+02  0.44450638647E+02 -0.15812292514E+03  0.18396652704E+03  0.82151693872E+02 0.  0.
          6    2    1    2  501    0  0.42695209584E+02 -0.13068052710E+03 -0.69829221136E+03  0.73231863379E+03  0.17256386604E+03 0.  0.
         24    2    5    5    0    0  0.42262165236E+02 -0.30167874798E+01 -0.23572918972E+03  0.25243858947E+03  0.79760886110E+02 0.  0.
          5    1    5    5  501    0  0.43304434827E+00 -0.12766373962E+03 -0.46256302164E+03  0.47988004432E+03  0.47000000000E+01 0. -1.
        -11    1    6    6    0    0  0.62767670605E+02 -0.84885607312E+01 -0.20854187167E+03  0.21794849937E+03  0.00000000000E+00 0.  1.
         12    1    6    6    0    0 -0.20505505368E+02  0.54717732514E+01 -0.27187318046E+02  0.34490090106E+02  0.00000000000E+00 0. -1.
         -5    1    3    3    0  503 -0.31921930730E+02  0.86229888457E+02 -0.10208203161E+02  0.92633151391E+02  0.47000000000E+01 0.  1.
         13    1    4    4    0    0 -0.11693372274E+02  0.17910083055E+02  0.21602856425E+01  0.21498206070E+02  0.00000000000E+00 0. -1.
        -14    1    4    4    0    0  0.92009341921E+00  0.26540555592E+02 -0.16028321078E+03  0.16246832097E+03  0.00000000000E+00 0.  1.
</event>
<event>
12    1  0.1032880E+000  0.2562059E+03  0.7818608E-02  0.1109544E+00
         21   -1    0    0  501  502  0.00000000000E+00  0.00000000000E+00  0.85784379066E+02  0.85784379066E+02  0.00000000000E+00 0.  1.
         21   -1    0    0  502  503 -0.00000000000E+00 -0.00000000000E+00 -0.99016757530E+03  0.99016757530E+03  0.00000000000E+00 0.  1.
         -6    2    1    2    0  503  0.18139869969E+03  0.56324967640E+02 -0.19510035394E+03  0.32203354438E+03  0.17194029593E+03 0.  0.
        -24    2    3    3    0    0  0.19060487625E+03  0.57539155294E+02 -0.21234847281E+03  0.30188868044E+03  0.80024547673E+02 0.  0.
          6    2    1    2  501    0 -0.18139869969E+03 -0.56324967640E+02 -0.70928284228E+03  0.75391840999E+03  0.17097610455E+03 0.  0.
         24    2    5    5    0    0 -0.39008385261E+02 -0.35270608135E+02 -0.41964881636E+03  0.43045551154E+03  0.80132068644E+02 0.  0.
          5    1    5    5  501    0 -0.14239031443E+03 -0.21054359505E+02 -0.28963402592E+03  0.32346289844E+03  0.47000000000E+01 0. -1.
        -13    1    6    6    0    0  0.15428400533E+02 -0.16461720878E+02 -0.35844701553E+02  0.42354060333E+02  0.00000000000E+00 0.  1.
         14    1    6    6    0    0 -0.54436785794E+02 -0.18808887257E+02 -0.38380411481E+03  0.38810145121E+03  0.00000000000E+00 0. -1.
         -5    1    3    3    0  503 -0.92061765603E+01 -0.12141876536E+01  0.17248118868E+02  0.20144863936E+02  0.47000000000E+01 0.  1.
         13    1    4    4    0    0  0.92274253680E+02  0.25958573071E+02 -0.46565852861E+02  0.10656811935E+03  0.00000000000E+00 0. -1.
        -14    1    4    4    0    0  0.98330622568E+02  0.31580582223E+02 -0.16578261995E+03  0.19532056109E+03  0.00000000000E+00 0.  1.
</event>
<event>
12    1  0.1032880E+000  0.2215335E+03  0.7818608E-02  0.1132877E+00
         21   -1    0    0  501  502  0.00000000000E+00  0.00000000000E+00  0.12894240828E+04  0.12894240828E+04  0.00000000000E+00 0. -1.
         21   -1    0    0  502  503 -0.00000000000E+00 -0.00000000000E+00 -0.62013028285E+02  0.62013028285E+02  0.00000000000E+00 0. -1.
         -6    2    1    2    0  503  0.34474031703E+02  0.13438369492E+03  0.10341177429E+04  0.10574313329E+04  0.17179662803E+03 0.  0.
        -24    2    3    3    0    0 -0.20581729446E+02  0.13890072930E+03  0.85680933590E+03  0.87165754140E+03  0.77120757265E+02 0.  0.
          6    2    1    2  501    0 -0.34474031703E+02 -0.13438369492E+03  0.19329331164E+03  0.29400577816E+03  0.17271264268E+03 0.  0.
         24    2    5    5    0    0 -0.65826194930E+00 -0.15706266296E+03  0.13062512134E+03  0.21912431215E+03  0.79268079623E+02 0.  0.
          5    1    5    5  501    0 -0.33815769754E+02  0.22678968036E+02  0.62668190300E+02  0.74881466003E+02  0.47000000000E+01 0. -1.
        -13    1    6    6    0    0  0.18518729464E+02 -0.16518529600E+02 -0.20500115407E+01  0.24899953985E+02  0.00000000000E+00 0.  1.
         14    1    6    6    0    0 -0.19176991413E+02 -0.14054413336E+03  0.13267513288E+03  0.19422435817E+03  0.00000000000E+00 0. -1.
         -5    1    3    3    0  503  0.55055761149E+02 -0.45170343810E+01  0.17730840697E+03  0.18577379153E+03  0.47000000000E+01 0.  1.
         13    1    4    4    0    0  0.28253549537E+02  0.65483753070E+02  0.42420951748E+03  0.43016287578E+03  0.00000000000E+00 0. -1.
        -14    1    4    4    0    0 -0.48835278982E+02  0.73416976234E+02  0.43259981842E+03  0.44149466561E+03  0.00000000000E+00 0.  1.
</event>
<event>
12    1  0.1032880E+000  0.1747919E+03  0.7818608E-02  0.1174015E+00
         21   -1    0    0  501  502  0.00000000000E+00  0.00000000000E+00  0.53361801190E+03  0.53361801190E+03  0.00000000000E+00 0. -1.
         21   -1    0    0  502  503 -0.00000000000E+00 -0.00000000000E+00 -0.56704382591E+02  0.56704382591E+02  0.00000000000E+00 0. -1.
         -6    2    1    2    0  503 -0.46856095562E+01 -0.20756536929E+02  0.27686077467E+03  0.32742034437E+03  0.17349179979E+03 0.  0.
        -24    2    3    3    0    0  0.40798214874E+02 -0.39516670646E+02  0.82251195097E+02  0.12663264713E+03  0.77746425180E+02 0.  0.
          6    2    1    2  501    0  0.46856095562E+01  0.20756536929E+02  0.20005285464E+03  0.26290205012E+03  0.16924406798E+03 0.  0.
         24    2    5    5    0    0 -0.11501986510E+01 -0.39957369865E+02  0.17503853393E+03  0.19681089053E+03  0.80610941605E+02 0.  0.
          5    1    5    5  501    0  0.58358082072E+01  0.60713906794E+02  0.25014320709E+02  0.66091159592E+02  0.47000000000E+01 0. -1.
        -11    1    6    6    0    0  0.35290566896E+02 -0.36942874726E+02  0.79359461928E+02  0.94382860214E+02  0.00000000000E+00 0.  1.
         12    1    6    6    0    0 -0.36440765547E+02 -0.30144951396E+01  0.95679072006E+02  0.10242803032E+03  0.00000000000E+00 0. -1.
         -5    1    3    3    0  503 -0.45483824430E+02  0.18760133717E+02  0.19460957957E+03  0.20078769724E+03  0.47000000000E+01 0.  1.
         11    1    4    4    0    0 -0.90758770584E+00 -0.27667674439E+02 -0.59829595267E+01  0.28321718327E+02  0.00000000000E+00 0. -1.
        -12    1    4    4    0    0  0.41705802579E+02 -0.11848996208E+02  0.88234154623E+02  0.98310928802E+02  0.00000000000E+00 0.  1.
</event>
<event>
12    1  0.1032880E+000  0.2135942E+03  0.7818608E-02  0.1139283E+00
         21   -1    0    0  501  502  0.00000000000E+00  0.00000000000E+00  0.19445838259E+03  0.19445838259E+03  0.00000000000E+00 0.  1.
         21   -1    0    0  502  503 -0.00000000000E+00 -0.00000000000E+00 -0.28747921529E+03  0.28747921529E+03  0.00000000000E+00 0.  1.
         -6    2    1    2    0  503 -0.11620533413E+03  0.49788575107E+02  0.59945177992E+02  0.21921893015E+03  0.16876294937E+03 0.  0.
        -24    2    3    3    0    0 -0.61711622563E+01  0.59509198018E+02  0.34173281873E+02  0.10569232481E+03  0.80147529210E+02 0.  0.
          6    2    1    2  501    0  0.11620533413E+03 -0.49788575107E+02 -0.15296601069E+03  0.26271866772E+03  0.17216246993E+03 0.  0.
         24    2    5    5    0    0 -0.10580737926E+02  0.82222546513E+01 -0.35345810618E+02  0.80245201425E+02  0.70784239326E+02 0.  0.
          5    1    5    5  501    0  0.12678607206E+03 -0.58010829758E+02 -0.11762020007E+03  0.18247346630E+03  0.47000000000E+01 0. -1.
        -11    1    6    6    0    0  0.22883151960E+02  0.17565603278E+02  0.23951570683E+01  0.28946948709E+02  0.00000000000E+00 0.  1.
         12    1    6    6    0    0 -0.33463889886E+02 -0.93433486272E+01 -0.37740967686E+02  0.51298252716E+02  0.00000000000E+00 0. -1.
         -5    1    3    3    0  503 -0.11003417188E+03 -0.97206229110E+01  0.25771896119E+02  0.11352660534E+03  0.47000000000E+01 0.  1.
         13    1    4    4    0    0  0.78121049019E+01  0.68880694294E+02  0.19645967648E+01  0.69350116582E+02  0.00000000000E+00 0. -1.
        -14    1    4    4    0    0 -0.13983267158E+02 -0.93714962761E+01  0.32208685108E+02  0.36342208233E+02  0.00000000000E+00 0.  1.
</event>
<event>
12    1  0.1032880E+000  0.2127197E+03  0.7818608E-02  0.1139597E+00
         21   -1    0    0  503  502  0.00000000000E+00  0.00000000000E+00  0.64515252267E+02  0.64515252267E+02  0.00000000000E+00 0. -1.
         21   -1    0    0  501  503 -0.00000000000E+00 -0.00000000000E+00 -0.14093836372E+04  0.14093836372E+04  0.00000000000E+00 0. -1.
          6    2    1    2  501    0 -0.16459422975E+02 -0.12420393100E+03 -0.14840155797E+03  0.25866946258E+03  0.17084887879E+03 0.  0.
         24    2    3    3    0    0  0.15877376537E+02 -0.27717895408E+02 -0.98676061575E+01  0.86713161530E+02  0.80008936499E+02 0.  0.
         -6    2    1    2    0  502  0.16459422975E+02  0.12420393100E+03 -0.11964668269E+04  0.12152294269E+04  0.17190742529E+03 0.  0.
        -24    2    5    5    0    0 -0.32376826271E+02  0.13411050286E+03 -0.98627038122E+03  0.99915593196E+03  0.80928521836E+02 0.  0.
          5    1    3    3  501    0 -0.32336799513E+02 -0.96486035587E+02 -0.13853395181E+03  0.17195630105E+03  0.47000000000E+01 0. -1.
        -11    1    4    4    0    0  0.51390226431E+01 -0.54532909665E+02 -0.16244123335E+02  0.57132471793E+02  0.00000000000E+00 0.  1.
         12    1    4    4    0    0  0.10738353894E+02  0.26815014257E+02  0.63765171775E+01  0.29580689736E+02  0.00000000000E+00 0. -1.
         -5    1    5    5    0  502  0.48836249247E+02 -0.99065718598E+01 -0.21019644572E+03  0.21607349490E+03  0.47000000000E+01 0.  1.
         11    1    6    6    0    0 -0.41595865999E+02  0.40223097830E+02 -0.23658528505E+03  0.24355843400E+03  0.00000000000E+00 0. -1.
        -12    1    6    6    0    0  0.92190397278E+01  0.93887405025E+02 -0.74968509617E+03  0.75559749797E+03  0.00000000000E+00 0.  1.
</event>
<event>
12    1  0.1032880E+000  0.1981541E+03  0.7818608E-02  0.1152029E+00
         21   -1    0    0  503  502  0.00000000000E+00  0.00000000000E+00  0.56776817802E+03  0.56776817802E+03  0.00000000000E+00 0. -1.
         21   -1    0    0  501  503 -0.00000000000E+00 -0.00000000000E+00 -0.13206434998E+03  0.13206434998E+03  0.00000000000E+00 0. -1.
          6    2    1    2  501    0  0.17413522582E+02 -0.96326201542E+02  0.46062138148E+03  0.50011791528E+03  0.16841586694E+03 0.  0.
         24    2    3    3    0    0  0.12045791269E+01 -0.10753132597E+03  0.46078766258E+03  0.47985952663E+03  0.79846466640E+02 0.  0.
         -6    2    1    2    0  502 -0.17413522582E+02  0.96326201542E+02 -0.24917553440E+02  0.19971461272E+03  0.17228776565E+03 0.  0.
        -24    2    5    5    0    0  0.84858550557E+01 -0.16911325330E+02 -0.17152170449E+02  0.83198920958E+02  0.79182452835E+02 0.  0.
          5    1    3    3  501    0  0.16208943456E+02  0.11205124430E+02 -0.16628109899E+00  0.20258388653E+02  0.47000000000E+01 0. -1.
        -13    1    4    4    0    0  0.18680169823E+02  0.24583391183E+01  0.35014150135E+02  0.39761575490E+02  0.00000000000E+00 0.  1.
         14    1    4    4    0    0 -0.17475590696E+02 -0.10998966509E+03  0.42577351245E+03  0.44009795114E+03  0.00000000000E+00 0. -1.
         -5    1    5    5    0  502 -0.25899377638E+02  0.11323752687E+03 -0.77653829911E+01  0.11651569176E+03  0.47000000000E+01 0.  1.
         13    1    6    6    0    0  0.13923128360E+02 -0.21687610470E+02 -0.46395671714E+02  0.53073197614E+02  0.00000000000E+00 0. -1.
        -14    1    6    6    0    0 -0.54372733047E+01  0.47762851405E+01  0.29243501265E+02  0.30125723343E+02  0.00000000000E+00 0.  1.
</event>
<event>
12    1  0.1032880E+000  0.2316915E+03  0.7818608E-02  0.1125610E+00
         21   -1    0    0  501  502  0.00000000000E+00  0.00000000000E+00  0.17510394174E+03  0.17510394174E+03  0.00000000000E+00 0. -1.
         21   -1    0    0  502  503 -0.00000000000E+00 -0.00000000000E+00 -0.91386899777E+03  0.91386899777E+03  0.00000000000E+00 0. -1.
         -6    2    1    2    0  503  0.12047795698E+03  0.94567162511E+02 -0.81343534922E+03  0.84554618781E+03  0.17266557854E+03 0.  0.
        -24    2    3    3    0    0  0.12505034878E+01  0.71855219592E+02 -0.32188201687E+03  0.33920856669E+03  0.79307519115E+02 0.  0.
          6    2    1    2  501    0 -0.12047795698E+03 -0.94567162511E+02  0.74670293198E+02  0.24342675170E+03  0.17384776218E+03 0.  0.
         24    2    5    5    0    0 -0.15036568037E+03 -0.89116783016E+02  0.37423244103E+02  0.19513166590E+03  0.78257453255E+02 0.  0.
          5    1    5    5  501    0  0.29887723389E+02 -0.54503794951E+01  0.37247049095E+02  0.48295085799E+02  0.47000000000E+01 0. -1.
        -11    1    6    6    0    0 -0.30497903550E+02 -0.53942472666E+02 -0.74092043910E+01  0.62408403184E+02  0.00000000000E+00 0.  1.
         12    1    6    6    0    0 -0.11986777682E+03 -0.35174310350E+02  0.44832448494E+02  0.13272326272E+03  0.00000000000E+00 0. -1.
         -5    1    3    3    0  503  0.11922745349E+03  0.22711942919E+02 -0.49155333235E+03  0.50633762112E+03  0.47000000000E+01 0.  1.
         11    1    4    4    0    0 -0.22907696050E+02 -0.74598772590E+01 -0.75308765040E+02  0.79068466526E+02  0.00000000000E+00 0. -1.
        -12    1    4    4    0    0  0.24158199538E+02  0.79315096851E+02 -0.24657325183E+03  0.26014010016E+03  0.00000000000E+00 0.  1.
</event>
<event>
12    1  0.1032880E+000  0.1949098E+03  0.7818608E-02  0.1154157E+00
         21   -1    0    0  503  502  0.00000000000E+00  0.00000000000E+00  0.28389963084E+03  0.28389963084E+03  0.00000000000E+00 0.  1.
         21   -1    0    0  501  503 -0.00000000000E+00 -0.00000000000E+00 -0.16752890993E+03  0.16752890993E+03  0.00000000000E+00 0.  1.
          6    2    1    2  501    0 -0.37599032795E+02 -0.84857495893E+02  0.15965331389E+03  0.25177078524E+03  0.17112821447E+03 0.  0.
         24    2    3    3    0    0 -0.49855740982E+02 -0.12118432642E+03  0.10644205227E+03  0.18601826532E+03  0.78113050531E+02 0.  0.
         -6    2    1    2    0  502  0.37599032795E+02  0.84857495893E+02 -0.43282592979E+02  0.19965775553E+03  0.17139239952E+03 0.  0.
        -24    2    5    5    0    0  0.48254026959E+02  0.32498375660E+02  0.35429829894E+02  0.10440681388E+03  0.79125940114E+02 0.  0.
          5    1    3    3  501    0  0.12256708187E+02  0.36326830530E+02  0.53211261620E+02  0.65752519915E+02  0.47000000000E+01 0. -1.
        -11    1    4    4    0    0  0.12896071605E+02 -0.22473348582E+02  0.49621302387E+02  0.55978868423E+02  0.00000000000E+00 0.  1.
         12    1    4    4    0    0 -0.62751812586E+02 -0.98710977841E+02  0.56820749884E+02  0.13003939690E+03  0.00000000000E+00 0. -1.
         -5    1    5    5    0  502 -0.10654994165E+02  0.52359120233E+02 -0.78712422873E+02  0.95250941658E+02  0.47000000000E+01 0.  1.
         13    1    6    6    0    0  0.10665394799E+02 -0.26311203163E+02  0.91812000191E+01  0.29838305782E+02  0.00000000000E+00 0. -1.
        -14    1    6    6    0    0  0.37588632160E+02  0.58809578823E+02  0.26248629874E+02  0.74568508094E+02  0.00000000000E+00 0.  1.
</event>
<event>
12    1  0.1032880E+000  0.4610465E+03  0.7818608E-02  0.1024499E+00
         21   -1    0    0  501  502  0.00000000000E+00  0.00000000000E+00  0.24311391629E+03  0.24311391629E+03  0.00000000000E+00 0. -1.
         21   -1    0    0  502  503 -0.00000000000E+00 -0.00000000000E+00 -0.92326851886E+03  0.92326851886E+03  0.00000000000E+00 0. -1.
         -6    2    1    2    0  503  0.42515665769E+03 -0.45629246629E+02 -0.20496967654E+03  0.50429136724E+03  0.17163042576E+03 0.  0.
        -24    2    3    3    0    0  0.27629240511E+03  0.34502495744E+02 -0.15163351651E+03  0.32695412411E+03  0.79864639324E+02 0.  0.
          6    2    1    2  501    0 -0.42515665769E+03  0.45629246629E+02 -0.47518492603E+03  0.66209106790E+03  0.17240550034E+03 0.  0.
         24    2    5    5    0    0 -0.42945392388E+03  0.40108783382E+02 -0.42396060379E+03  0.61017803293E+03  0.80840899713E+02 0.  0.
          5    1    5    5  501    0  0.42972661901E+01  0.55204632477E+01 -0.51224322238E+02  0.51913034971E+02  0.47000000000E+01 0. -1.
        -11    1    6    6    0    0 -0.10434281814E+03 -0.17437415658E+02 -0.13428857258E+03  0.17095294057E+03  0.00000000000E+00 0.  1.
         12    1    6    6    0    0 -0.32511110574E+03  0.57546199040E+02 -0.28967203121E+03  0.43922509236E+03  0.00000000000E+00 0. -1.
         -5    1    3    3    0  503  0.14886425258E+03 -0.80131742373E+02 -0.53336160030E+02  0.17733724312E+03  0.47000000000E+01 0.  1.
         13    1    4    4    0    0  0.12986294575E+02  0.81731193872E+01 -0.34127429621E+02  0.37418246616E+02  0.00000000000E+00 0. -1.
        -14    1    4    4    0    0  0.26330611053E+03  0.26329376357E+02 -0.11750608689E+03  0.28953587750E+03  0.00000000000E+00 0.  1.
</event>
<event>
12    1  0.1032880E+000  0.1773992E+03  0.7818608E-02  0.1170841E+00
         21   -1    0    0  503  502  0.00000000000E+00  0.00000000000E+00  0.72319331726E+02  0.72319331726E+02  0.00000000000E+00 0.  1.
         21   -1    0    0  501  503 -0.00000000000E+00 -0.00000000000E+00 -0.47952675110E+03  0.47952675110E+03  0.00000000000E+00 0.  1.
          6    2    1    2  501    0 -0.41092024188E+00  0.31259970438E+02 -0.11412891684E+03  0.20925962461E+03  0.17258860399E+03 0.  0.
         24    2    3    3    0    0 -0.39631692667E+02 -0.30213520349E+02 -0.94530817227E+02  0.13360624023E+03  0.80193666510E+02 0.  0.
         -6    2    1    2    0  502  0.41092024188E+00 -0.31259970438E+02 -0.29307850253E+03  0.34258645821E+03  0.17462278803E+03 0.  0.
        -24    2    5    5    0    0  0.87192523970E+01  0.15478743482E+02 -0.28349066186E+03  0.29392895673E+03  0.75575521028E+02 0.  0.
          5    1    3    3  501    0  0.39220772425E+02  0.61473490787E+02 -0.19598099615E+02  0.75653384377E+02  0.47000000000E+01 0. -1.
        -11    1    4    4    0    0 -0.11144615828E+02 -0.16477735435E+02 -0.99608547934E+02  0.10157549433E+03  0.00000000000E+00 0.  1.
         12    1    4    4    0    0 -0.28487076839E+02 -0.13735784914E+02  0.50777307062E+01  0.32030745904E+02  0.00000000000E+00 0. -1.
         -5    1    5    5    0  502 -0.83083321551E+01 -0.46738713920E+02 -0.95878406693E+01  0.48657501486E+02  0.47000000000E+01 0.  1.
         11    1    6    6    0    0  0.30340453224E+02  0.32735412384E+02 -0.22285947070E+03  0.22728505012E+03  0.00000000000E+00 0. -1.
        -12    1    6    6    0    0 -0.21621200827E+02 -0.17256668901E+02 -0.60631191153E+02  0.66643906604E+02  0.00000000000E+00 0.  1.
</event>
<event>
12    1  0.1032880E+000  0.1810232E+03  0.7818608E-02  0.1166942E+00
         21   -1    0    0  501  502  0.00000000000E+00  0.00000000000E+00  0.67924541282E+03  0.67924541282E+03  0.00000000000E+00 0.  1.
         21   -1    0    0  502  503 -0.00000000000E+00 -0.00000000000E+00 -0.57226996785E+02  0.57226996785E+02  0.00000000000E+00 0.  1.
         -6    2    1    2    0  503 -0.40486237566E+02 -0.37433755536E+02  0.45765336889E+03  0.49196212041E+03  0.17187117378E+03 0.  0.
        -24    2    3    3    0    0 -0.65369925666E+02  0.56801841598E+00  0.14243639283E+03  0.17345440504E+03  0.74328694311E+02 0.  0.
          6    2    1    2  501    0  0.40486237566E+02  0.37433755536E+02  0.16436504715E+03  0.24451028920E+03  0.17242097121E+03 0.  0.
         24    2    5    5    0    0  0.12813139018E+02  0.28807528392E+02  0.81878816773E+01  0.85596447155E+02  0.79155922934E+02 0.  0.
          5    1    5    5  501    0  0.27673098549E+02  0.86262271431E+01  0.15617716548E+03  0.15891384205E+03  0.47000000000E+01 0. -1.
        -11    1    6    6    0    0  0.43926147880E+02  0.20753423624E+02 -0.86000750645E+01  0.49337332222E+02  0.00000000000E+00 0.  1.
         12    1    6    6    0    0 -0.31113008862E+02  0.80541047681E+01  0.16787956742E+02  0.36259114932E+02  0.00000000000E+00 0. -1.
         -5    1    3    3    0  503  0.24883688099E+02 -0.38001773952E+02  0.31521697605E+03  0.31850771537E+03  0.47000000000E+01 0.  1.
         13    1    4    4    0    0 -0.11429712751E+02 -0.21107150027E+02  0.54077000313E+01  0.24604742134E+02  0.00000000000E+00 0. -1.
        -14    1    4    4    0    0 -0.53940212914E+02  0.21675168443E+02  0.13702869280E+03  0.14884966291E+03  0.00000000000E+00 0.  1.
</event>
<event>
12    1  0.1032880E+000  0.2188418E+03  0.7818608E-02  0.1134759E+00
         21   -1    0    0  501  502  0.00000000000E+00  0.00000000000E+00  0.14336323650E+03  0.14336323650E+03  0.00000000000E+00 0. -1.
         21   -1    0    0  502  503 -0.00000000000E+00 -0.00000000000E+00 -0.33550621301E+03  0.33550621301E+03  0.00000000000E+00 0. -1.
         -6    2    1    2    0  503  0.11945920080E+03  0.62482686979E+02 -0.11223720202E+03  0.24594500296E+03  0.17238668201E+03 0.  0.
        -24    2    3    3    0    0  0.39860742692E+02  0.31537517344E+02 -0.12784034455E+03  0.15900211300E+03  0.79718407133E+02 0.  0.
          6    2    1    2  501    0 -0.11945920080E+03 -0.62482686979E+02 -0.79905774487E+02  0.23292444655E+03  0.17232027790E+03 0.  0.
         24    2    5    5    0    0 -0.14762862244E+03 -0.31935351929E+02 -0.83218075040E+02  0.19097546170E+03  0.82050606894E+02 0.  0.
          5    1    5    5  501    0  0.28169421644E+02 -0.30547335050E+02  0.33123005534E+01  0.41948984843E+02  0.47000000000E+01 0. -1.
        -11    1    6    6    0    0 -0.20041358464E+02  0.22283783361E+02 -0.30217306060E+02  0.42559471749E+02  0.00000000000E+00 0.  1.
         12    1    6    6    0    0 -0.12758726398E+03 -0.54219135291E+02 -0.53000768980E+02  0.14841598995E+03  0.00000000000E+00 0. -1.
         -5    1    3    3    0  503  0.79598458110E+02  0.30945169636E+02  0.15603142527E+02  0.86942889956E+02  0.47000000000E+01 0.  1.
         13    1    4    4    0    0  0.47713191273E+02 -0.10311307168E+02 -0.47689406991E+02  0.68243323601E+02  0.00000000000E+00 0. -1.
        -14    1    4    4    0    0 -0.78524485809E+01  0.41848824512E+02 -0.80150937559E+02  0.90758789400E+02  0.00000000000E+00 0.  1.
</event>
<event>
12    1  0.1032880E+000  0.2889658E+03  0.7818608E-02  0.1091577E+00
         21   -1    0    0  501  502  0.00000000000E+00  0.00000000000E+00  0.12459127158E+03  0.12459127158E+03  0.00000000000E+00 0.  1.
         21   -1    0    0  502  503 -0.00000000000E+00 -0.00000000000E+00 -0.83557379223E+03  0.83557379223E+03  0.00000000000E+00 0.  1.
         -6    2    1    2    0  503 -0.14461766884E+03  0.18064579149E+03 -0.13685877320E+03  0.31973671034E+03  0.17307243575E+03 0.  0.
        -24    2    3    3    0    0 -0.12912340256E+03  0.51459309590E+02 -0.67845303898E+02  0.17237942909E+03  0.76097100340E+02 0.  0.
          6    2    1    2  501    0  0.14461766884E+03 -0.18064579149E+03 -0.57412374745E+03  0.64042835346E+03  0.16426571890E+03 0.  0.
         24    2    5    5    0    0  0.53074422576E+02 -0.80663996607E+02 -0.14278365847E+03  0.18826368477E+03  0.75713058309E+02 0.  0.
          5    1    5    5  501    0  0.91543246265E+02 -0.99981794884E+02 -0.43134008899E+03  0.45216466869E+03  0.47000000000E+01 0. -1.
        -11    1    6    6    0    0 -0.44113274943E+01 -0.90724178847E+01 -0.71013527259E+02  0.71726491831E+02  0.00000000000E+00 0.  1.
         12    1    6    6    0    0  0.57485750071E+02 -0.71591578722E+02 -0.71770131207E+02  0.11653719294E+03  0.00000000000E+00 0. -1.
         -5    1    3    3    0  503 -0.15494266282E+02  0.12918648190E+03 -0.69013469301E+02  0.14735728125E+03  0.47000000000E+01 0.  1.
         11    1    4    4    0    0 -0.13016705045E+03  0.50659771863E+02 -0.79455172982E+02  0.16069535781E+03  0.00000000000E+00 0. -1.
        -12    1    4    4    0    0  0.10436478916E+01  0.79953772688E+00  0.11609869084E+02  0.11684071279E+02  0.00000000000E+00 0.  1.
</event>
<event>
12    1  0.1032880E+000  0.4774279E+03  0.7818608E-02  0.1020005E+00
         21   -1    0    0  501  502  0.00000000000E+00  0.00000000000E+00  0.43076416132E+03  0.43076416132E+03  0.00000000000E+00 0. -1.
         21   -1    0    0  502  503 -0.00000000000E+00 -0.00000000000E+00 -0.53139684071E+03  0.53139684071E+03  0.00000000000E+00 0. -1.
         -6    2    1    2    0  503 -0.79006679023E+02  0.43597457583E+03 -0.96186593291E+02  0.48702083283E+03  0.17782447745E+03 0.  0.
        -24    2    3    3    0    0 -0.11313405318E+03  0.31726010384E+03 -0.32030518400E+02  0.34775168523E+03  0.80324298907E+02 0.  0.
          6    2    1    2  501    0  0.79006679023E+02 -0.43597457583E+03 -0.44460860992E+01  0.47514016920E+03  0.17152995833E+03 0.  0.
         24    2    5    5    0    0  0.10079834235E+02 -0.10542741788E+03 -0.31499917479E+02  0.13636836791E+03  0.79922108732E+02 0.  0.
          5    1    5    5  501    0  0.68926844788E+02 -0.33054715795E+03  0.27053831379E+02  0.33877180130E+03  0.47000000000E+01 0. -1.
        -13    1    6    6    0    0  0.35287234835E+02 -0.96998046888E+02 -0.36190765862E+02  0.10937815859E+03  0.00000000000E+00 0.  1.
         14    1    6    6    0    0 -0.25207400601E+02 -0.84293709960E+01  0.46908483839E+01  0.26990209317E+02  0.00000000000E+00 0. -1.
         -5    1    3    3    0  503  0.34127374157E+02  0.11871447200E+03 -0.64156074891E+02  0.13926914760E+03  0.47000000000E+01 0.  1.
         11    1    4    4    0    0 -0.11607266945E+02  0.37910183357E+02  0.22465479513E+02  0.45569819155E+02  0.00000000000E+00 0. -1.
        -12    1    4    4    0    0 -0.10152678624E+03  0.27934992048E+03 -0.54495997912E+02  0.30218186608E+03  0.00000000000E+00 0.  1.
</event>
<event>
12    1  0.1032880E+000  0.2332312E+03  0.7818608E-02  0.1124672E+00
         21   -1    0    0  501  502  0.00000000000E+00  0.00000000000E+00  0.72138130242E+03  0.72138130242E+03  0.00000000000E+00 0.  1.
         21   -1    0    0  502  503 -0.00000000000E+00 -0.00000000000E+00 -0.13690444964E+03  0.13690444964E+03  0.00000000000E+00 0.  1.
         -6    2    1    2    0  503 -0.36041945774E+01  0.15596668195E+03  0.58167207218E+03  0.62668906365E+03  0.17337297034E+03 0.  0.
        -24    2    3    3    0    0 -0.51432725327E+01  0.91733634740E+02  0.15153821164E+03  0.19175748156E+03  0.73250181921E+02 0.  0.
          6    2    1    2  501    0  0.36041945774E+01 -0.15596668195E+03  0.28047805929E+01  0.23159668841E+03  0.17114486026E+03 0.  0.
         24    2    5    5    0    0  0.19487235858E+02 -0.10165149457E+03 -0.61492465919E+02  0.14581419317E+03  0.82265891210E+02 0.  0.
          5    1    5    5  501    0 -0.15883041281E+02 -0.54315187376E+02  0.64297246512E+02  0.85782495237E+02  0.47000000000E+01 0. -1.
        -13    1    6    6    0    0  0.48834156634E+02 -0.77248125300E+02 -0.29562930296E+02  0.96052145027E+02  0.00000000000E+00 0.  1.
         14    1    6    6    0    0 -0.29346920776E+02 -0.24403369269E+02 -0.31929535623E+02  0.49762048147E+02  0.00000000000E+00 0. -1.
         -5    1    3    3    0  503  0.15390779553E+01  0.64233047206E+02  0.43013386054E+03  0.43493158209E+03  0.47000000000E+01 0.  1.
         13    1    4    4    0    0  0.95226131807E+01  0.89627235615E+02  0.15224478133E+03  0.17692426337E+03  0.00000000000E+00 0. -1.
        -14    1    4    4    0    0 -0.14665885713E+02  0.21063991248E+01 -0.70656969537E+00  0.14833218186E+02  0.00000000000E+00 0.  1.
</event>
<event>
12    1  0.1032880E+000  0.2778735E+03  0.7818608E-02  0.1096932E+00
         21   -1    0    0  503  502  0.00000000000E+00  0.00000000000E+00  0.23436006206E+03  0.23436006206E+03  0.00000000000E+00 0. -1.
         21   -1    0    0  501  503 -0.00000000000E+00 -0.00000000000E+00 -0.37533350978E+03  0.37533350978E+03  0.00000000000E+00 0.  1.
          6    2    1    2  501    0 -0.17174923988E+03  0.13417617919E+03 -0.17774573709E+03  0.32939748190E+03  0.17148791669E+03 0.  0.
         24    2    3    3    0    0 -0.19678537164E+03  0.99868766945E+02 -0.15053567704E+03  0.27873898019E+03  0.79600099962E+02 0.  0.
         -6    2    1    2    0  502  0.17174923988E+03 -0.13417617919E+03  0.36772289371E+02  0.28029608994E+03  0.17237357196E+03 0.  0.
        -24    2    5    5    0    0  0.16797485768E+03 -0.98177925201E+02  0.78737421578E+02  0.22467880331E+03  0.80165611653E+02 0.  0.
          5    1    3    3  501    0  0.25036131754E+02  0.34307412243E+02 -0.27210060049E+02  0.50658501714E+02  0.47000000000E+01 0. -1.
        -13    1    4    4    0    0 -0.19491349663E+03  0.10712988867E+03 -0.15395265310E+03  0.27049862035E+03  0.00000000000E+00 0.  1.
         14    1    4    4    0    0 -0.18718750045E+01 -0.72611217299E+01  0.34169760613E+01  0.82403598351E+01  0.00000000000E+00 0. -1.
         -5    1    5    5    0  502  0.37743822048E+01 -0.35998253987E+02 -0.41965132207E+02  0.55617286632E+02  0.47000000000E+01 0.  1.
         11    1    6    6    0    0  0.39682144268E+02 -0.33158247524E+01 -0.11404081940E+02  0.41421254838E+02  0.00000000000E+00 0. -1.
        -12    1    6    6    0    0  0.12829271341E+03 -0.94862100449E+02  0.90141503518E+02  0.18325754847E+03  0.00000000000E+00 0.  1.
</event>
<event>
12    1  0.1032880E+000  0.2464519E+03  0.7818608E-02  0.1115705E+00
         21   -1    0    0  503  502  0.00000000000E+00  0.00000000000E+00  0.48907017316E+03  0.48907017316E+03  0.00000000000E+00 0.  1.
         21   -1    0    0  501  503 -0.00000000000E+00 -0.00000000000E+00 -0.13152229105E+03  0.13152229105E+03  0.00000000000E+00 0.  1.
          6    2    1    2  501    0 -0.13554855109E+03  0.11115399114E+03  0.10370403016E+03  0.26738183183E+03  0.17323365341E+03 0.  0.
         24    2    3    3    0    0 -0.16034947221E+02  0.19376997091E+02  0.76904885631E+02  0.11425834476E+03  0.80672302336E+02 0.  0.
         -6    2    1    2    0  502  0.13554855109E+03 -0.11115399114E+03  0.25384385196E+03  0.35321063238E+03  0.17202450465E+03 0.  0.
        -24    2    5    5    0    0  0.81607282633E+02 -0.14081290586E+03  0.20984680655E+03  0.27740072755E+03  0.80171431279E+02 0.  0.
          5    1    3    3  501    0 -0.11951360387E+03  0.91776994045E+02  0.26799144527E+02  0.15312348707E+03  0.47000000000E+01 0. -1.
        -11    1    4    4    0    0  0.30443813569E+02 -0.66605790614E+01  0.30529891183E+02  0.43626406610E+02  0.00000000000E+00 0.  1.
         12    1    4    4    0    0 -0.46478760790E+02  0.26037576153E+02  0.46374994448E+02  0.70631938148E+02  0.00000000000E+00 0. -1.
         -5    1    5    5    0  502  0.53941268456E+02  0.29658914721E+02  0.43997045409E+02  0.75809904826E+02  0.47000000000E+01 0.  1.
         11    1    6    6    0    0  0.61326024227E+02 -0.48793022056E+02  0.53619269596E+02  0.94956128401E+02  0.00000000000E+00 0. -1.
        -12    1    6    6    0    0  0.20281258406E+02 -0.92019883801E+02  0.15622753695E+03  0.18244459915E+03  0.00000000000E+00 0.  1.
</event>
<event>
12    1  0.1032880E+000  0.2990130E+03  0.7818608E-02  0.1085844E+00
         21   -1    0    0  503  502  0.00000000000E+00  0.00000000000E+00  0.26016541965E+03  0.26016541965E+03  0.00000000000E+00 0.  1.
         21   -1    0    0  501  503 -0.00000000000E+00 -0.00000000000E+00 -0.34527267723E+03  0.34527267723E+03  0.00000000000E+00 0.  1.
          6    2    1    2  501    0 -0.62408698429E+02 -0.23615235794E+03 -0.16293931266E+02  0.29945666426E+03  0.17247034463E+03 0.  0.
         24    2    3    3    0    0 -0.34571132447E+02 -0.23289837980E+03  0.30765155165E+02  0.24448243331E+03  0.58209508754E+02 0.  0.
         -6    2    1    2    0  502  0.62408698429E+02  0.23615235794E+03 -0.68813326305E+02  0.30598143262E+03  0.17095783524E+03 0.  0.
        -24    2    5    5    0    0  0.72816299304E+01  0.17878276899E+03 -0.99932335465E+02  0.22042007365E+03  0.81130984055E+02 0.  0.
          5    1    3    3  501    0 -0.27837565983E+02 -0.32539781343E+01 -0.47059086431E+02  0.54974230956E+02  0.47000000000E+01 0. -1.
        -11    1    4    4    0    0 -0.45197946727E+02 -0.10778575591E+03  0.11373700413E+02  0.11743076525E+03  0.00000000000E+00 0.  1.
         12    1    4    4    0    0  0.10626814281E+02 -0.12511262389E+03  0.19391454752E+02  0.12705166806E+03  0.00000000000E+00 0. -1.
         -5    1    5    5    0  502  0.55127068499E+02  0.57369588945E+02  0.31119009160E+02  0.85561358966E+02  0.47000000000E+01 0.  1.
         13    1    6    6    0    0 -0.26798904925E+02  0.87108659243E+02 -0.18146678780E+02  0.92926862484E+02  0.00000000000E+00 0. -1.
        -14    1    6    6    0    0  0.34080534856E+02  0.91674109749E+02 -0.81785656685E+02  0.12749321117E+03  0.00000000000E+00 0.  1.
</event>
<event>
12    1  0.1032880E+000  0.3257422E+03  0.7818608E-02  0.1073600E+00
         21   -1    0    0  503  502  0.00000000000E+00  0.00000000000E+00  0.18082463634E+04  0.18082463634E+04  0.00000000000E+00 0.  1.
         21   -1    0    0  501  503 -0.00000000000E+00 -0.00000000000E+00 -0.12982683055E+03  0.12982683055E+03  0.00000000000E+00 0.  1.
          6    2    1    2  501    0  0.25605482746E+03 -0.10086286353E+03  0.12025087087E+03  0.34722942546E+03  0.17427165591E+03 0.  0.
         24    2    3    3    0    0  0.56937419024E+02 -0.11172325207E+02  0.22585501848E+01  0.98962607803E+02  0.80136172598E+02 0.  0.
         -6    2    1    2    0  502 -0.25605482746E+03  0.10086286353E+03  0.15581686620E+04  0.15908437685E+04  0.16479358198E+03 0.  0.
        -24    2    5    5    0    0 -0.49119086029E+02  0.45811545542E+02  0.36969112346E+03  0.38322048358E+03  0.75332794665E+02 0.  0.
          5    1    3    3  501    0  0.19911740843E+03 -0.89690538325E+02  0.11799232069E+03  0.24826681765E+03  0.47000000000E+01 0. -1.
        -11    1    4    4    0    0  0.11241527858E+02 -0.41003345042E+02  0.10445646272E+02  0.43780792355E+02  0.00000000000E+00 0.  1.
         12    1    4    4    0    0  0.45695891165E+02  0.29831019835E+02 -0.81870960875E+01  0.55181815448E+02  0.00000000000E+00 0. -1.
         -5    1    5    5    0  502 -0.20693574143E+03  0.55051317990E+02  0.11884775385E+04  0.12076232849E+04  0.47000000000E+01 0.  1.
         13    1    6    6    0    0 -0.13936960439E+02  0.21338422225E+02  0.30219426813E+03  0.30326711464E+03  0.00000000000E+00 0. -1.
        -14    1    6    6    0    0 -0.35182125589E+02  0.24473123317E+02  0.67496855336E+02  0.79953368948E+02  0.00000000000E+00 0.  1.
</event>
<event>
12    1  0.1032880E+000  0.1821205E+03  0.7818608E-02  0.1166606E+00
         21   -1    0    0  503  502  0.00000000000E+00  0.00000000000E+00  0.68461828355E+03  0.68461828355E+03  0.00000000000E+00 0. -1.
         21   -1    0    0  501  503 -0.00000000000E+00 -0.00000000000E+00 -0.48547652453E+02  0.48547652453E+02  0.00000000000E+00 0. -1.
          6    2    1    2  501    0 -0.54394773741E+02 -0.28733408713E+02  0.36824925314E+03  0.40928916963E+03  0.16770722033E+03 0.  0.
         24    2    3    3    0    0 -0.63342135553E+02 -0.93099502709E+01  0.10600131227E+03  0.14612876510E+03  0.77578582590E+02 0.  0.
         -6    2    1    2    0  502  0.54394773741E+02  0.28733408713E+02  0.26782137795E+03  0.32387676637E+03  0.17141607019E+03 0.  0.
        -24    2    5    5    0    0  0.24329122860E+02 -0.44852647172E+02  0.97645462911E+02  0.13599174024E+03  0.79721081331E+02 0.  0.
          5    1    3    3  501    0  0.89473618115E+01 -0.19423458442E+02  0.26224794087E+03  0.26316040453E+03  0.47000000000E+01 0. -1.
        -13    1    4    4    0    0 -0.19041224405E+02  0.16241216662E+02 -0.35030238021E+01  0.25270863089E+02  0.00000000000E+00 0.  1.
         14    1    4    4    0    0 -0.44300911147E+02 -0.25551166933E+02  0.10950433607E+03  0.12085790201E+03  0.00000000000E+00 0. -1.
         -5    1    5    5    0  502  0.30065650881E+02  0.73586055885E+02  0.17017591504E+03  0.18788502613E+03  0.47000000000E+01 0.  1.
         11    1    6    6    0    0  0.12966292136E+02 -0.18418536489E+01 -0.11939046125E+02  0.17721681043E+02  0.00000000000E+00 0. -1.
        -12    1    6    6    0    0  0.11362830724E+02 -0.43010793523E+02  0.10958450904E+03  0.11827005920E+03  0.00000000000E+00 0.  1.
</event>
<event>
12    1  0.1032880E+000  0.2914816E+03  0.7818608E-02  0.1089721E+00
         21   -1    0    0  503  502  0.00000000000E+00  0.00000000000E+00  0.30359781170E+03  0.30359781170E+03  0.00000000000E+00 0. -1.
         21   -1    0    0  501  503 -0.00000000000E+00 -0.00000000000E+00 -0.44695008460E+03  0.44695008460E+03  0.00000000000E+00 0. -1.
          6    2    1    2  501    0 -0.89102309370E+02 -0.21719069848E+03 -0.30194583519E+03  0.41968177268E+03  0.17277292002E+03 0.  0.
         24    2    3    3    0    0 -0.89708254446E+02 -0.23893385567E+03 -0.28955344044E+03  0.39421034748E+03  0.80147644290E+02 0.  0.
         -6    2    1    2    0  502  0.89102309370E+02  0.21719069848E+03  0.15859356230E+03  0.33086612362E+03  0.17090773158E+03 0.  0.
        -24    2    5    5    0    0  0.59554908134E+02  0.15525223048E+03  0.18194189695E+03  0.25822551879E+03  0.76990405495E+02 0.  0.
          5    1    3    3  501    0  0.60594507629E+00  0.21743157194E+02 -0.12392394745E+02  0.25471425200E+02  0.47000000000E+01 0. -1.
        -13    1    4    4    0    0 -0.96544545536E+02 -0.23219849152E+03 -0.29089334569E+03  0.38452038607E+03  0.00000000000E+00 0.  1.
         14    1    4    4    0    0  0.68362910897E+01 -0.67353641521E+01  0.13399052419E+01  0.96899614128E+01  0.00000000000E+00 0. -1.
         -5    1    5    5    0  502  0.29547401236E+02  0.61938467998E+02 -0.23348334654E+02  0.72640604822E+02  0.47000000000E+01 0.  1.
         13    1    6    6    0    0  0.33416778951E+02  0.12466783031E+02  0.54090749668E+02  0.64791287950E+02  0.00000000000E+00 0. -1.
        -14    1    6    6    0    0  0.26138129183E+02  0.14278544745E+03  0.12785114728E+03  0.19343423084E+03  0.00000000000E+00 0.  1.
</event>
<event>
12    1  0.1032880E+000  0.1744916E+03  0.7818608E-02  0.1173747E+00
         21   -1    0    0  501  502  0.00000000000E+00  0.00000000000E+00  0.16238882053E+03  0.16238882053E+03  0.00000000000E+00 0.  1.
         21   -1    0    0  502  503 -0.00000000000E+00 -0.00000000000E+00 -0.23050634758E+03  0.23050634758E+03  0.00000000000E+00 0.  1.
         -6    2    1    2    0  503  0.74383529266E+00 -0.32315513798E+02  0.53029900918E+02  0.18047102096E+03  0.16944843844E+03 0.  0.
        -24    2    3    3    0    0 -0.45809608976E+02 -0.60709111519E+02  0.42808925722E+01  0.10717726011E+03  0.75395772741E+02 0.  0.
          6    2    1    2  501    0 -0.74383529266E+00  0.32315513798E+02 -0.12114742797E+03  0.21242414715E+03  0.17147149403E+03 0.  0.
         24    2    5    5    0    0  0.13175050826E+01  0.86016786890E+02 -0.98095702461E+02  0.15375943966E+03  0.81354624918E+02 0.  0.
          5    1    5    5  501    0 -0.20613403753E+01 -0.53701273092E+02 -0.23051725511E+02  0.58664707490E+02  0.47000000000E+01 0. -1.
        -13    1    6    6    0    0 -0.14957738468E+02  0.69886519455E+02 -0.10741805148E+03  0.12902130570E+03  0.00000000000E+00 0.  1.
         14    1    6    6    0    0  0.16275243550E+02  0.16130267435E+02  0.93223490208E+01  0.24738133952E+02  0.00000000000E+00 0. -1.
         -5    1    3    3    0  503  0.46553444269E+02  0.28393597721E+02  0.48749008346E+02  0.73293760850E+02  0.47000000000E+01 0.  1.
         13    1    4    4    0    0 -0.60166028385E+02 -0.19207613827E+02  0.15151793701E+01  0.63175779924E+02  0.00000000000E+00 0. -1.
        -14    1    4    4    0    0  0.14356419409E+02 -0.41501497692E+02  0.27657132021E+01  0.44001480185E+02  0.00000000000E+00 0.  1.
</event>
<event>
12    1  0.1032880E+000  0.2331650E+03  0.7818608E-02  0.1124626E+00
         21   -1    0    0  501  502  0.00000000000E+00  0.00000000000E+00  0.94199014088E+03  0.94199014088E+03  0.00000000000E+00 0. -1.
         21   -1    0    0  502  503 -0.00000000000E+00 -0.00000000000E+00 -0.61409673834E+02  0.61409673834E+02  0.00000000000E+00 0. -1.
         -6    2    1    2    0  503  0.15225872260E+03 -0.39467804741E+02  0.31168520957E+03  0.38857646425E+03  0.17059769189E+03 0.  0.
        -24    2    3    3    0    0  0.10000051882E+03 -0.13314009983E+02  0.84743803370E+02  0.15418484176E+03  0.80087992813E+02 0.  0.
          6    2    1    2  501    0 -0.15225872260E+03  0.39467804741E+02  0.56889525747E+03  0.61482335047E+03  0.17212063236E+03 0.  0.
         24    2    5    5    0    0 -0.10824391500E+03 -0.38262381007E+02  0.29383076070E+03  0.32557976376E+03  0.80528949475E+02 0.  0.
          5    1    5    5  501    0 -0.44014807603E+02  0.77730185748E+02  0.27506449677E+03  0.28924358670E+03  0.47000000000E+01 0. -1.
        -11    1    6    6    0    0 -0.29192488119E+02  0.25277840054E+02  0.73509551834E+02  0.83035081569E+02  0.00000000000E+00 0.  1.
         12    1    6    6    0    0 -0.79051426882E+02 -0.63540221061E+02  0.22032120887E+03  0.24254468220E+03  0.00000000000E+00 0. -1.
         -5    1    3    3    0  503  0.52258203786E+02 -0.26153794759E+02  0.22694140620E+03  0.23439162249E+03  0.47000000000E+01 0.  1.
         11    1    4    4    0    0  0.82246867219E+02 -0.32496352861E+02  0.91435502086E+02  0.12720460353E+03  0.00000000000E+00 0. -1.
        -12    1    4    4    0    0  0.17753651598E+02  0.19182342878E+02 -0.66916987157E+01  0.26980238232E+02  0.00000000000E+00 0.  1.
</event>
<event>
12    1  0.1032880E+000  0.1968636E+03  0.7818608E-02  0.1152578E+00
         21   -1    0    0  503  502  0.00000000000E+00  0.00000000000E+00  0.74178411280E+02  0.74178411280E+02  0.00000000000E+00 0. -1.
         21   -1    0    0  501  503 -0.00000000000E+00 -0.00000000000E+00 -0.69860189452E+03  0.69860189452E+03  0.00000000000E+00 0. -1.
          6    2    1    2  501    0  0.63482011234E+02 -0.71060869674E+02 -0.50779692470E+03  0.54462188255E+03  0.17226626273E+03 0.  0.
         24    2    3    3    0    0  0.91776197599E+02 -0.84476971948E+02 -0.30917989147E+03  0.34349662638E+03  0.82695210328E+02 0.  0.
         -6    2    1    2    0  502 -0.63482011234E+02  0.71060869674E+02 -0.11662655854E+03  0.22815842325E+03  0.17139107034E+03 0.  0.
        -24    2    5    5    0    0 -0.56978050876E+02  0.11308516077E+03 -0.10735944510E+03  0.18438272298E+03  0.80225845045E+02 0.  0.
          5    1    3    3  501    0 -0.28294186365E+02  0.13416102274E+02 -0.19861703323E+03  0.20112525617E+03  0.47000000000E+01 0. -1.
        -11    1    4    4    0    0 -0.24697483623E+00 -0.44435057584E+02 -0.58412774148E+02  0.73393375196E+02  0.00000000000E+00 0.  1.
         12    1    4    4    0    0  0.92023172436E+02 -0.40041914364E+02 -0.25076711732E+03  0.27010325119E+03  0.00000000000E+00 0. -1.
         -5    1    5    5    0  502 -0.65039603580E+01 -0.42024291094E+02 -0.92671134395E+01  0.43775700266E+02  0.47000000000E+01 0.  1.
         13    1    6    6    0    0 -0.66253435779E+02  0.61455581318E+02 -0.39527959417E+02  0.98634506149E+02  0.00000000000E+00 0. -1.
        -14    1    6    6    0    0  0.92753849029E+01  0.51629579450E+02 -0.67831485687E+02  0.85748216831E+02  0.00000000000E+00 0.  1.
</event>
<event>
12    1  0.1032880E+000  0.1867339E+03  0.7818608E-02  0.1162320E+00
         21   -1    0    0  501  502  0.00000000000E+00  0.00000000000E+00  0.10497381455E+03  0.10497381455E+03  0.00000000000E+00 0. -1.
         21   -1    0    0  502  503 -0.00000000000E+00 -0.00000000000E+00 -0.39993039844E+03  0.39993039844E+03  0.00000000000E+00 0. -1.
         -6    2    1    2    0  503  0.72295868389E+02 -0.19183582809E+02 -0.25761068933E+03  0.31817106819E+03  0.17109897409E+03 0.  0.
        -24    2    3    3    0    0  0.23248011251E+01 -0.57098780860E+02 -0.18965071034E+03  0.21341343724E+03  0.79449529796E+02 0.  0.
          6    2    1    2  501    0 -0.72295868389E+02  0.19183582809E+02 -0.37345894559E+02  0.18673314480E+03  0.16697259982E+03 0.  0.
         24    2    5    5    0    0 -0.77025076558E+02 -0.74725565055E+01  0.28764499894E+02  0.11513992286E+03  0.80256487976E+02 0.  0.
          5    1    5    5  501    0  0.47292081697E+01  0.26656139314E+02 -0.66110394453E+02  0.71593221940E+02  0.47000000000E+01 0. -1.
        -11    1    6    6    0    0 -0.43626369059E+02 -0.91141290054E+01 -0.25538698228E+02  0.51366842729E+02  0.00000000000E+00 0.  1.
         12    1    6    6    0    0 -0.33398707500E+02  0.16415724999E+01  0.54303198122E+02  0.63773080130E+02  0.00000000000E+00 0. -1.
         -5    1    3    3    0  503  0.69971067264E+02  0.37915198051E+02 -0.67959978996E+02  0.10475763095E+03  0.47000000000E+01 0.  1.
         11    1    4    4    0    0 -0.37241927907E+02 -0.16287915981E+02 -0.88415908585E+02  0.97312025425E+02  0.00000000000E+00 0. -1.
        -12    1    4    4    0    0  0.39566729032E+02 -0.40810864878E+02 -0.10123480175E+03  0.11610141181E+03  0.00000000000E+00 0.  1.
</event>
<event>
12    1  0.1032880E+000  0.1748885E+03  0.7818608E-02  0.1173274E+00
         21   -1    0    0  503  502  0.00000000000E+00  0.00000000000E+00  0.21034789420E+03  0.21034789420E+03  0.00000000000E+00 0. -1.
         21   -1    0    0  501  503 -0.00000000000E+00 -0.00000000000E+00 -0.14536509358E+03  0.14536509358E+03  0.00000000000E+00 0. -1.
          6    2    1    2  501    0 -0.58655941019E+01  0.23701679576E+02  0.15379209427E+02  0.17556337617E+03  0.17317564540E+03 0.  0.
         24    2    3    3    0    0  0.89866198710E+01 -0.43310369394E+02  0.43758274145E+02  0.10114117329E+03  0.79738340492E+02 0.  0.
         -6    2    1    2    0  502  0.58655941019E+01 -0.23701679576E+02  0.49603591189E+02  0.18014961162E+03  0.17145609204E+03 0.  0.
        -24    2    5    5    0    0  0.33662291397E+02  0.44220726146E+02  0.43542205339E+02  0.10635977507E+03  0.79547819730E+02 0.  0.
          5    1    3    3  501    0 -0.14852213973E+02  0.67012048970E+02 -0.28379064718E+02  0.74422202879E+02  0.47000000000E+01 0. -1.
        -11    1    4    4    0    0  0.19409519753E+02  0.53565154457E+01  0.47135731323E+02  0.51256208230E+02  0.00000000000E+00 0.  1.
         12    1    4    4    0    0 -0.10422899882E+02 -0.48666884840E+02 -0.33774571780E+01  0.49884965059E+02  0.00000000000E+00 0. -1.
         -5    1    5    5    0  502 -0.27796697295E+02 -0.67922405722E+02  0.60613858500E+01  0.73789836549E+02  0.47000000000E+01 0.  1.
         11    1    6    6    0    0  0.29451838130E+01  0.36352182075E+02  0.60317730642E+02  0.70486763858E+02  0.00000000000E+00 0. -1.
        -12    1    6    6    0    0  0.30717107584E+02  0.78685440704E+01 -0.16775525303E+02  0.35873011210E+02  0.00000000000E+00 0.  1.
</event>
<event>
12    1  0.1032880E+000  0.1145457E+04  0.7818608E-02  0.9162003E-01
         21   -1    0    0  501  502  0.00000000000E+00  0.00000000000E+00  0.10005645837E+04  0.10005645837E+04  0.00000000000E+00 0.  1.
         21   -1    0    0  502  503 -0.00000000000E+00 -0.00000000000E+00 -0.14695897023E+04  0.14695897023E+04  0.00000000000E+00 0.  1.
         -6    2    1    2    0  503  0.12197433733E+02  0.11321741387E+04  0.17090772425E+03  0.11580622991E+04  0.17300803656E+03 0.  0.
        -24    2    3    3    0    0  0.36833791983E+02  0.10836282484E+04  0.14529227162E+03  0.10977141838E+04  0.90882760134E+02 0.  0.
          6    2    1    2  501    0 -0.12197433733E+02 -0.11321741387E+04 -0.63993284284E+03  0.13120919870E+04  0.17350585371E+03 0.  0.
         24    2    5    5    0    0 -0.20187610482E+02 -0.81760945796E+03 -0.38763252352E+03  0.90874062351E+03  0.81595233759E+02 0.  0.
          5    1    5    5  501    0  0.79901767487E+01 -0.31456468070E+03 -0.25230031932E+03  0.40335136346E+03  0.47000000000E+01 0. -1.
        -11    1    6    6    0    0 -0.36889733591E+02 -0.26285665315E+03 -0.10013072778E+03  0.28369109115E+03  0.00000000000E+00 0.  1.
         12    1    6    6    0    0  0.16702123110E+02 -0.55475280481E+03 -0.28750179574E+03  0.62504953236E+03  0.00000000000E+00 0. -1.
         -5    1    3    3    0  503 -0.24636358250E+02  0.48545890249E+02  0.25615452622E+02  0.60348115305E+02  0.47000000000E+01 0.  1.
         13    1    4    4    0    0  0.62410612164E+01  0.97958281105E+03  0.12994107134E+03  0.98818324038E+03  0.00000000000E+00 0. -1.
        -14    1    4    4    0    0  0.30592730766E+02  0.10404543736E+03  0.15351200285E+02  0.10953094340E+03  0.00000000000E+00 0.  1.
</event>
<event>
12    1  0.1032880E+000  0.2034373E+03  0.7818608E-02  0.1147393E+00
         21   -1    0    0  503  502  0.00000000000E+00  0.00000000000E+00  0.10643586477E+03  0.10643586477E+03  0.00000000000E+00 0.  1.
         21   -1    0    0  501  503 -0.00000000000E+00 -0.00000000000E+00 -0.40503374716E+03  0.40503374716E+03  0.00000000000E+00 0.  1.
          6    2    1    2  501    0 -0.97301820380E+02 -0.46719101390E+02 -0.90213489566E+02  0.22024667090E+03  0.16946918203E+03 0.  0.
         24    2    3    3    0    0 -0.16801298628E+02 -0.70365589270E+02 -0.23680381212E+02  0.11306348705E+03  0.83600190559E+02 0.  0.
         -6    2    1    2    0  502  0.97301820380E+02  0.46719101390E+02 -0.20838439282E+03  0.29122294103E+03  0.17244253399E+03 0.  0.
        -24    2    5    5    0    0  0.13109893399E+03  0.11854850920E+02 -0.16438630403E+03  0.22552908541E+03  0.80703428879E+02 0.  0.
          5    1    3    3  501    0 -0.80500521752E+02  0.23646487880E+02 -0.66533108354E+02  0.10718318384E+03  0.47000000000E+01 0. -1.
        -13    1    4    4    0    0  0.10689722675E+02  0.15813320663E+02  0.15584431330E+01  0.19150979773E+02  0.00000000000E+00 0.  1.
         14    1    4    4    0    0 -0.27491021303E+02 -0.86178909933E+02 -0.25238824345E+02  0.93912507281E+02  0.00000000000E+00 0. -1.
         -5    1    5    5    0  502 -0.33797113605E+02  0.34864250470E+02 -0.43998088795E+02  0.65693855622E+02  0.47000000000E+01 0.  1.
         11    1    6    6    0    0  0.55301076005E+02  0.16146809086E+02 -0.17544260021E+02  0.60222333986E+02  0.00000000000E+00 0. -1.
        -12    1    6    6    0    0  0.75797857980E+02 -0.42919581656E+01 -0.14684204401E+03  0.16530675143E+03  0.00000000000E+00 0.  1.
</event>
<event>
12    1  0.1032880E+000  0.1752103E+03  0.7818608E-02  0.1177555E+00
         21   -1    0    0  501  502  0.00000000000E+00  0.00000000000E+00  0.20077340921E+03  0.20077340921E+03  0.00000000000E+00 0. -1.
         21   -1    0    0  502  503 -0.00000000000E+00 -0.00000000000E+00 -0.13695819707E+03  0.13695819707E+03  0.00000000000E+00 0. -1.
         -6    2    1    2    0  503 -0.19298359695E+02 -0.31912100496E+02  0.34785545117E+02  0.16013265557E+03  0.15179467839E+03 0.  0.
        -24    2    3    3    0    0 -0.84025017444E+01 -0.17741413010E+02 -0.33121647477E+02  0.89755067448E+02  0.81077548248E+02 0.  0.
          6    2    1    2  501    0  0.19298359695E+02  0.31912100496E+02  0.29029667028E+02  0.17759895071E+03  0.17119537634E+03 0.  0.
         24    2    5    5    0    0  0.88025416476E+01 -0.37266174374E+02 -0.21846008323E+02  0.90960505123E+02  0.79563263637E+02 0.  0.
          5    1    5    5  501    0  0.10495818047E+02  0.69178274870E+02  0.50875675351E+02  0.86638445582E+02  0.47000000000E+01 0. -1.
        -13    1    6    6    0    0 -0.23045087110E+02  0.12028443518E+02 -0.19009631883E+02  0.32204434442E+02  0.00000000000E+00 0.  1.
         14    1    6    6    0    0  0.31847628757E+02 -0.49294617892E+02 -0.28363764400E+01  0.58756070681E+02  0.00000000000E+00 0. -1.
         -5    1    3    3    0  503 -0.10895857951E+02 -0.14170687487E+02  0.67907192594E+02  0.70377588125E+02  0.47000000000E+01 0.  1.
         11    1    4    4    0    0 -0.28884121719E+02 -0.27537445935E+02 -0.48142325331E+02  0.62532286895E+02  0.00000000000E+00 0. -1.
        -12    1    4    4    0    0  0.20481619974E+02  0.97960329255E+01  0.15020677854E+02  0.27222780553E+02  0.00000000000E+00 0.  1.
</event>
<event>
12    1  0.1032880E+000  0.2012247E+03  0.7818608E-02  0.1148779E+00
         21   -1    0    0  501  502  0.00000000000E+00  0.00000000000E+00  0.23377027610E+03  0.23377027610E+03  0.00000000000E+00 0.  1.
         21   -1    0    0  502  503 -0.00000000000E+00 -0.00000000000E+00 -0.22719354905E+03  0.22719354905E+03  0.00000000000E+00 0.  1.
         -6    2    1    2    0  503 -0.10039911677E+03 -0.27654403431E+02  0.11593445506E+03  0.23223304534E+03  0.17218199906E+03 0.  0.
        -24    2    3    3    0    0 -0.11045007958E+03 -0.34245043641E+02  0.14330870479E+03  0.20196923956E+03  0.82959301875E+02 0.  0.
          6    2    1    2  501    0  0.10039911677E+03  0.27654403431E+02 -0.10935772802E+03  0.22873077981E+03  0.17179612417E+03 0.  0.
         24    2    5    5    0    0  0.69770094987E+02  0.58952252886E+02 -0.12530078875E+02  0.12235702368E+03  0.80442551504E+02 0.  0.
          5    1    5    5  501    0  0.30629021783E+02 -0.31297849454E+02 -0.96827649140E+02  0.10637375613E+03  0.47000000000E+01 0. -1.
        -11    1    6    6    0    0 -0.31167014216E+01 -0.15672140800E+02 -0.81844767392E+01  0.17953146925E+02  0.00000000000E+00 0.  1.
         12    1    6    6    0    0  0.72886796409E+02  0.74624393685E+02 -0.43456021361E+01  0.10440387676E+03  0.00000000000E+00 0. -1.
         -5    1    3    3    0  503  0.10050962808E+02  0.65906402092E+01 -0.27374249733E+02  0.30263805778E+02  0.47000000000E+01 0.  1.
         13    1    4    4    0    0  0.31216145475E+01  0.16418683716E+02  0.92126798711E+01  0.19083792148E+02  0.00000000000E+00 0. -1.
        -14    1    4    4    0    0 -0.11357169413E+03 -0.50663727357E+02  0.13409602492E+03  0.18288544742E+03  0.00000000000E+00 0.  1.
</event>
<event>
12    1  0.1032880E+000  0.4011011E+03  0.7818608E-02  0.1043506E+00
         21   -1    0    0  501  502  0.00000000000E+00  0.00000000000E+00  0.75599400370E+03  0.75599400370E+03  0.00000000000E+00 0. -1.
         21   -1    0    0  502  503 -0.00000000000E+00 -0.00000000000E+00 -0.24035933941E+03  0.24035933941E+03  0.00000000000E+00 0. -1.
         -6    2    1    2    0  503 -0.23975011080E+02  0.36024471381E+03  0.86806435165E+02  0.40917728461E+03  0.17187099252E+03 0.  0.
        -24    2    3    3    0    0  0.50182840680E+02  0.21520310752E+03  0.19682855080E+02  0.23292712280E+03  0.70971365831E+02 0.  0.
          6    2    1    2  501    0  0.23975011080E+02 -0.36024471381E+03  0.42882822912E+03  0.58717605850E+03  0.17473127540E+03 0.  0.
         24    2    5    5    0    0  0.61902756331E+02 -0.16564247131E+03  0.27557644409E+03  0.33654336658E+03  0.77779698548E+02 0.  0.
          5    1    5    5  501    0 -0.37927745251E+02 -0.19460224250E+03  0.15325178503E+03  0.25063269193E+03  0.47000000000E+01 0. -1.
        -13    1    6    6    0    0  0.23088607640E+02 -0.50996181549E+02  0.31822874018E+02  0.64392465756E+02  0.00000000000E+00 0.  1.
         14    1    6    6    0    0  0.38814148691E+02 -0.11464628976E+03  0.24375357007E+03  0.27215090082E+03  0.00000000000E+00 0. -1.
         -5    1    3    3    0  503 -0.74157851760E+02  0.14504160629E+03  0.67123580085E+02  0.17625016181E+03  0.47000000000E+01 0.  1.
         13    1    4    4    0    0  0.17232343678E+02  0.18944119697E+03  0.17890102189E+02  0.19106275548E+03  0.00000000000E+00 0. -1.
        -14    1    4    4    0    0  0.32950497002E+02  0.25761910554E+02  0.17927528909E+01  0.41864367319E+02  0.00000000000E+00 0.  1.
</event>
<event>
12    1  0.1032880E+000  0.2199625E+03  0.7818608E-02  0.1134893E+00
         21   -1    0    0  501  502  0.00000000000E+00  0.00000000000E+00  0.59611622210E+02  0.59611622210E+02  0.00000000000E+00 0. -1.
         21   -1    0    0  502  503 -0.00000000000E+00 -0.00000000000E+00 -0.14910002241E+04  0.14910002241E+04  0.00000000000E+00 0. -1.
         -6    2    1    2    0  503 -0.81028011135E+02 -0.10158403549E+03 -0.18052956675E+03  0.28055993837E+03  0.17099151937E+03 0.  0.
        -24    2    3    3    0    0 -0.99056865872E+02 -0.43141907535E+02 -0.65512552768E+02  0.15020839282E+03  0.81223025319E+02 0.  0.
          6    2    1    2  501    0  0.81028011135E+02  0.10158403549E+03 -0.12508590352E+04  0.12700519080E+04  0.17747864155E+03 0.  0.
         24    2    5    5    0    0  0.69023113068E+02 -0.90171150899E+01 -0.67239984769E+03  0.68097309009E+03  0.82202772186E+02 0.  0.
          5    1    5    5  501    0  0.12004898067E+02  0.11060115057E+03 -0.57845918749E+03  0.58907881789E+03  0.47000000000E+01 0. -1.
        -11    1    6    6    0    0  0.12526236078E+02  0.34009815395E+02 -0.25779758380E+03  0.26033280305E+03  0.00000000000E+00 0.  1.
         12    1    6    6    0    0  0.56496876989E+02 -0.43026930485E+02 -0.41460226390E+03  0.42064028704E+03  0.00000000000E+00 0. -1.
         -5    1    3    3    0  503  0.18028854737E+02 -0.58442127950E+02 -0.11501701398E+03  0.13035154555E+03  0.47000000000E+01 0.  1.
         11    1    4    4    0    0 -0.33272092839E+02  0.64389425426E+01  0.13107213913E+02  0.36335811530E+02  0.00000000000E+00 0. -1.
        -12    1    4    4    0    0 -0.65784773032E+02 -0.49580850077E+02 -0.78619766680E+02  0.11387258129E+03  0.00000000000E+00 0.  1.
</event>
<event>
12    1  0.1032880E+000  0.3393565E+03  0.7818608E-02  0.1067693E+00
         21   -1    0    0  501  502  0.00000000000E+00  0.00000000000E+00  0.85343091729E+02  0.85343091729E+02  0.00000000000E+00 0.  1.
         21   -1    0    0  502  503 -0.00000000000E+00 -0.00000000000E+00 -0.13265822991E+04  0.13265822991E+04  0.00000000000E+00 0.  1.
         -6    2    1    2    0  503 -0.33807570414E+02 -0.29015245999E+03 -0.63077868830E+03  0.71627130679E+03  0.17271777402E+03 0.  0.
        -24    2    3    3    0    0  0.37670390255E+02 -0.23033091709E+03 -0.45178816529E+03  0.51441142176E+03  0.77686387954E+02 0.  0.
          6    2    1    2  501    0  0.33807570414E+02  0.29015245999E+03 -0.61046051908E+03  0.69565408405E+03  0.16106258859E+03 0.  0.
         24    2    5    5    0    0  0.65650466358E+02  0.11493599592E+03 -0.29819111802E+03  0.33614184762E+03  0.80951417310E+02 0.  0.
          5    1    5    5  501    0 -0.31842895944E+02  0.17521646407E+03 -0.31226940106E+03  0.35951223643E+03  0.47000000000E+01 0. -1.
        -13    1    6    6    0    0  0.25477467014E+02  0.34963816415E+02 -0.28043395658E+02  0.51555812706E+02  0.00000000000E+00 0.  1.
         14    1    6    6    0    0  0.40172999344E+02  0.79972179507E+02 -0.27014772236E+03  0.28458603491E+03  0.00000000000E+00 0. -1.
         -5    1    3    3    0  503 -0.71477960669E+02 -0.59821542905E+02 -0.17899052302E+03  0.20185988504E+03  0.47000000000E+01 0.  1.
         11    1    4    4    0    0 -0.23208231771E+01 -0.18506077811E+03 -0.32600488314E+03  0.37487606171E+03  0.00000000000E+00 0. -1.
        -12    1    4    4    0    0  0.39991213432E+02 -0.45270138973E+02 -0.12578328215E+03  0.13953536004E+03  0.00000000000E+00 0.  1.
</event>
<event>
12    1  0.1032880E+000  0.1839152E+03  0.7818608E-02  0.1164101E+00
         21   -1    0    0  503  502  0.00000000000E+00  0.00000000000E+00  0.67691260083E+03  0.67691260083E+03  0.00000000000E+00 0.  1.
         21   -1    0    0  501  503 -0.00000000000E+00 -0.00000000000E+00 -0.52918816955E+02  0.52918816955E+02  0.00000000000E+00 0.  1.
          6    2    1    2  501    0 -0.15081207858E+02  0.64377426830E+02  0.22516125506E+03  0.29063649817E+03  0.17146453678E+03 0.  0.
         24    2    3    3    0    0  0.18703619350E+02  0.10371253812E+03  0.16830381892E+03  0.21354224694E+03  0.78536614538E+02 0.  0.
         -6    2    1    2    0  502  0.15081207858E+02 -0.64377426830E+02  0.39883252882E+03  0.43919491961E+03  0.17161845896E+03 0.  0.
        -24    2    5    5    0    0 -0.87915711578E+01  0.11591111936E+02  0.30679767092E+03  0.31740151450E+03  0.80045392927E+02 0.  0.
          5    1    3    3  501    0 -0.33784827209E+02 -0.39335111287E+02  0.56857436137E+02  0.77094251236E+02  0.47000000000E+01 0. -1.
        -13    1    4    4    0    0  0.23410167629E+02  0.45328955655E+02  0.13896172206E+03  0.14803077507E+03  0.00000000000E+00 0.  1.
         14    1    4    4    0    0 -0.47065482782E+01  0.58383582462E+02  0.29342096857E+02  0.65511471864E+02  0.00000000000E+00 0. -1.
         -5    1    5    5    0  502  0.23872779016E+02 -0.75968538767E+02  0.92034857899E+02  0.12179340511E+03  0.47000000000E+01 0.  1.
         13    1    6    6    0    0  0.30963766024E+02  0.20392879702E+02  0.19323531320E+03  0.19676003308E+03  0.00000000000E+00 0. -1.
        -14    1    6    6    0    0 -0.39755337182E+02 -0.88017677659E+01  0.11356235772E+03  0.12064148143E+03  0.00000000000E+00 0.  1.
</event>
<event>
12    1  0.1032880E+000  0.4434963E+03  0.7818608E-02  0.1029683E+00
         21   -1    0    0  501  502  0.00000000000E+00  0.00000000000E+00  0.44492448337E+03  0.44492448337E+03  0.00000000000E+00 0. -1.
         21   -1    0    0  502  503 -0.00000000000E+00 -0.00000000000E+00 -0.10555889210E+04  0.10555889210E+04  0.00000000000E+00 0. -1.
         -6    2    1    2    0  503  0.22937334641E+03 -0.33779715939E+03 -0.87733516694E+03  0.98305948907E+03  0.17311819941E+03 0.  0.
        -24    2    3    3    0    0  0.93221757626E+02 -0.10859673728E+03 -0.46101052007E+03  0.48867260594E+03  0.76070156672E+02 0.  0.
          6    2    1    2  501    0 -0.22937334641E+03  0.33779715939E+03  0.26667072928E+03  0.51745391534E+03  0.17299197585E+03 0.  0.
         24    2    5    5    0    0 -0.12941528529E+03  0.29292606507E+03  0.22385323673E+03  0.39972347426E+03  0.84348020801E+02 0.  0.
          5    1    5    5  501    0 -0.99958061124E+02  0.44871094314E+02  0.42817492551E+02  0.11773044108E+03  0.47000000000E+01 0. -1.
        -11    1    6    6    0    0 -0.74497745702E+02  0.77850502750E+02  0.90925670873E+02  0.14098968940E+03  0.00000000000E+00 0.  1.
         12    1    6    6    0    0 -0.54917539584E+02  0.21507556232E+03  0.13292756586E+03  0.25873378486E+03  0.00000000000E+00 0. -1.
         -5    1    3    3    0  503  0.13615158878E+03 -0.22920042210E+03 -0.41632464687E+03  0.49438688313E+03  0.47000000000E+01 0.  1.
         11    1    4    4    0    0  0.29206200541E+02  0.59934648747E+01 -0.10834244517E+03  0.11236996572E+03  0.00000000000E+00 0. -1.
        -12    1    4    4    0    0  0.64015557085E+02 -0.11459020216E+03 -0.35266807490E+03  0.37630264022E+03  0.00000000000E+00 0.  1.
</event>
<event>
12    1  0.1032880E+000  0.2148532E+03  0.7818608E-02  0.1138013E+00
         21   -1    0    0  503  502  0.00000000000E+00  0.00000000000E+00  0.66980247696E+02  0.66980247696E+02  0.00000000000E+00 0. -1.
         21   -1    0    0  501  503 -0.00000000000E+00 -0.00000000000E+00 -0.69416471328E+03  0.69416471328E+03  0.00000000000E+00 0. -1.
          6    2    1    2  501    0  0.57675430247E+02 -0.11595334415E+03 -0.26973024848E+03  0.34408929019E+03  0.16991585977E+03 0.  0.
         24    2    3    3    0    0  0.38643129008E+02 -0.29151322222E+02 -0.22623686137E+03  0.24504089684E+03  0.80739288311E+02 0.  0.
         -6    2    1    2    0  502 -0.57675430247E+02  0.11595334415E+03 -0.35745421711E+03  0.41705567079E+03  0.17143594121E+03 0.  0.
        -24    2    5    5    0    0  0.27439685127E+02  0.63781296932E+02 -0.24456830391E+03  0.26628490183E+03  0.79202294815E+02 0.  0.
          5    1    3    3  501    0  0.19032301239E+02 -0.86802021932E+02 -0.43493387114E+02  0.99048393347E+02  0.47000000000E+01 0. -1.
        -13    1    4    4    0    0 -0.61766013857E+01 -0.44130070373E+02 -0.82930143848E+02  0.94143625777E+02  0.00000000000E+00 0.  1.
         14    1    4    4    0    0  0.44819730393E+02  0.14978748151E+02 -0.14330671752E+03  0.15089727106E+03  0.00000000000E+00 0. -1.
         -5    1    5    5    0  502 -0.85115115374E+02  0.52172047221E+02 -0.11288591319E+03  0.15077076896E+03  0.47000000000E+01 0.  1.
         11    1    6    6    0    0  0.39612312431E+02  0.40043080036E+02 -0.70758600444E+02  0.90439831333E+02  0.00000000000E+00 0. -1.
        -12    1    6    6    0    0 -0.12172627303E+02  0.23738216896E+02 -0.17380970347E+03  0.17584507050E+03  0.00000000000E+00 0.  1.
</event>
<event>
12    1  0.1032880E+000  0.2479790E+03  0.7818608E-02  0.1114608E+00
         21   -1    0    0  501  502  0.00000000000E+00  0.00000000000E+00  0.51260732841E+03  0.51260732841E+03  0.00000000000E+00 0.  1.
         21   -1    0    0  502  503 -0.00000000000E+00 -0.00000000000E+00 -0.16753410611E+03  0.16753410611E+03  0.00000000000E+00 0.  1.
         -6    2    1    2    0  503  0.68435848635E+02 -0.16236327414E+03 -0.87569631894E+01  0.24813360707E+03  0.17449442508E+03 0.  0.
        -24    2    3    3    0    0  0.10832414930E+03 -0.13290204467E+03  0.22996421467E+02  0.18906239572E+03  0.76280267949E+02 0.  0.
          6    2    1    2  501    0 -0.68435848635E+02  0.16236327414E+03  0.35383018549E+03  0.43200782746E+03  0.17432631657E+03 0.  0.
         24    2    5    5    0    0  0.36017290162E+02  0.82575292692E+02  0.14025639481E+03  0.18118431529E+03  0.70992786032E+02 0.  0.
          5    1    5    5  501    0 -0.10445313880E+03  0.79787981451E+02  0.21357379068E+03  0.25082351217E+03  0.47000000000E+01 0. -1.
        -13    1    6    6    0    0  0.45577987912E+02  0.49741904098E+02  0.12830081078E+03  0.14495760777E+03  0.00000000000E+00 0.  1.
         14    1    6    6    0    0 -0.95606977504E+01  0.32833388593E+02  0.11955584034E+02  0.36226707518E+02  0.00000000000E+00 0. -1.
         -5    1    3    3    0  503 -0.39888300667E+02 -0.29461229477E+02 -0.31753384657E+02  0.59071211343E+02  0.47000000000E+01 0.  1.
         13    1    4    4    0    0  0.32002901298E+02 -0.87898789810E+02  0.34530541462E+02  0.99713295178E+02  0.00000000000E+00 0. -1.
        -14    1    4    4    0    0  0.76321248004E+02 -0.45003254856E+02 -0.11534119994E+02  0.89349100547E+02  0.00000000000E+00 0.  1.
</event>
<event>
12    1  0.1032880E+000  0.2962103E+03  0.7818608E-02  0.1087293E+00
         21   -1    0    0  501  502  0.00000000000E+00  0.00000000000E+00  0.12409343946E+04  0.12409343946E+04  0.00000000000E+00 0.  1.
         21   -1    0    0  502  503 -0.00000000000E+00 -0.00000000000E+00 -0.70671407293E+02  0.70671407293E+02  0.00000000000E+00 0.  1.
         -6    2    1    2    0  503 -0.19644764932E+03  0.13768000872E+03  0.54643629156E+03  0.62102610735E+03  0.17185267399E+03 0.  0.
        -24    2    3    3    0    0 -0.13973620733E+03  0.47847896757E+02  0.21549243689E+03  0.27341724536E+03  0.80649679723E+02 0.  0.
          6    2    1    2  501    0  0.19644764932E+03 -0.13768000872E+03  0.62382669579E+03  0.69057969459E+03  0.17376163118E+03 0.  0.
         24    2    5    5    0    0  0.20951291272E+03 -0.12967129215E+03  0.62302072516E+03  0.67453038814E+03  0.78269508328E+02 0.  0.
          5    1    5    5  501    0 -0.13065263403E+02 -0.80087165675E+01  0.80597062767E+00  0.16049306449E+02  0.47000000000E+01 0. -1.
        -11    1    6    6    0    0  0.10057683622E+03 -0.45131202359E+02  0.37367213013E+03  0.38959387347E+03  0.00000000000E+00 0.  1.
         12    1    6    6    0    0  0.10893607650E+03 -0.84540089789E+02  0.24934859503E+03  0.28493651466E+03  0.00000000000E+00 0. -1.
         -5    1    3    3    0  503 -0.56711441981E+02  0.89832111958E+02  0.33094385467E+03  0.34760886199E+03  0.47000000000E+01 0.  1.
         13    1    4    4    0    0 -0.42143569612E+02  0.45029057805E+02  0.12898994117E+03  0.14297587709E+03  0.00000000000E+00 0. -1.
        -14    1    4    4    0    0 -0.97592637723E+02  0.28188389527E+01  0.86502495720E+02  0.13044136827E+03  0.00000000000E+00 0.  1.
</event>
<event>
12    1  0.1032880E+000  0.2121207E+03  0.7818608E-02  0.1139955E+00
         21   -1    0    0  503  502  0.00000000000E+00  0.00000000000E+00  0.48016683765E+03  0.48016683765E+03  0.00000000000E+00 0. -1.
         21   -1    0    0  501  503 -0.00000000000E+00 -0.00000000000E+00 -0.95940436905E+02  0.95940436905E+02  0.00000000000E+00 0. -1.
          6    2    1    2  501    0 -0.28773317733E+02  0.11957937087E+03  0.14678971641E+03  0.25771859669E+03  0.17246600966E+03 0.  0.
         24    2    3    3    0    0 -0.18021902485E+02  0.13625831267E+02  0.12590419685E+03  0.14909060578E+03  0.76587790801E+02 0.  0.
         -6    2    1    2    0  502  0.28773317733E+02 -0.11957937087E+03  0.23743668433E+03  0.31838867786E+03  0.17282372920E+03 0.  0.
        -24    2    5    5    0    0 -0.19810508703E+02 -0.85583974173E+02  0.62359108425E+02  0.13348242385E+03  0.78815139300E+02 0.  0.
          5    1    3    3  501    0 -0.10751415247E+02  0.10595353960E+03  0.20885519565E+02  0.10862799092E+03  0.47000000000E+01 0. -1.
        -13    1    4    4    0    0  0.11868426514E+02  0.36171540270E+02  0.87667243875E+02  0.95576071911E+02  0.00000000000E+00 0.  1.
         14    1    4    4    0    0 -0.29890328999E+02 -0.22545709002E+02  0.38236952974E+02  0.53514533866E+02  0.00000000000E+00 0. -1.
         -5    1    5    5    0  502  0.48583826436E+02 -0.33995396692E+02  0.17507757591E+03  0.18490625401E+03  0.47000000000E+01 0.  1.
         11    1    6    6    0    0  0.15681587283E+01 -0.59956145404E+01 -0.17598816982E+02  0.18658104798E+02  0.00000000000E+00 0. -1.
        -12    1    6    6    0    0 -0.21378667432E+02 -0.79588359633E+02  0.79957925407E+02  0.11482431905E+03  0.00000000000E+00 0.  1.
</event>
<event>
12    1  0.1032880E+000  0.2488369E+03  0.7818608E-02  0.1114104E+00
         21   -1    0    0  501  502  0.00000000000E+00  0.00000000000E+00  0.97964533316E+02  0.97964533316E+02  0.00000000000E+00 0. -1.
         21   -1    0    0  502  503 -0.00000000000E+00 -0.00000000000E+00 -0.64617551745E+03  0.64617551745E+03  0.00000000000E+00 0. -1.
         -6    2    1    2    0  503  0.16636925593E+02 -0.17898234537E+03 -0.21702313601E+03  0.32988745435E+03  0.17150866953E+03 0.  0.
        -24    2    3    3    0    0  0.22281239784E+02 -0.64395083043E+02 -0.28817761758E+02  0.10942101276E+03  0.80618324676E+02 0.  0.
          6    2    1    2  501    0 -0.16636925593E+02  0.17898234537E+03 -0.33118784812E+03  0.41425259642E+03  0.17207078674E+03 0.  0.
         24    2    5    5    0    0  0.32000708196E+02  0.76998064241E+02 -0.80733808514E+02  0.13945134283E+03  0.77304475665E+02 0.  0.
          5    1    5    5  501    0 -0.48637633789E+02  0.10198428113E+03 -0.25045403961E+03  0.27480125359E+03  0.47000000000E+01 0. -1.
        -11    1    6    6    0    0 -0.25198285600E+02  0.31053219752E+02 -0.23348498857E+02  0.46307758022E+02  0.00000000000E+00 0.  1.
         12    1    6    6    0    0  0.57198993796E+02  0.45944844489E+02 -0.57385309657E+02  0.93143584807E+02  0.00000000000E+00 0. -1.
         -5    1    3    3    0  503 -0.56443141906E+01 -0.11458726233E+03 -0.18820537426E+03  0.22046644159E+03  0.47000000000E+01 0.  1.
         11    1    4    4    0    0 -0.27466673348E+02 -0.34240004946E+02  0.12974403543E+01  0.43914455877E+02  0.00000000000E+00 0. -1.
        -12    1    4    4    0    0  0.49747913132E+02 -0.30155078097E+02 -0.30115202112E+02  0.65506556880E+02  0.00000000000E+00 0.  1.
</event>
<event>
12    1  0.1032880E+000  0.3978910E+03  0.7818608E-02  0.1044562E+00
         21   -1    0    0  501  502  0.00000000000E+00  0.00000000000E+00  0.32506843359E+03  0.32506843359E+03  0.00000000000E+00 0.  1.
         21   -1    0    0  502  503 -0.00000000000E+00 -0.00000000000E+00 -0.52277438329E+03  0.52277438329E+03  0.00000000000E+00 0. -1.
         -6    2    1    2    0  503  0.30339319363E+03 -0.19016526768E+03  0.13129649073E+02  0.39754412278E+03  0.17221696461E+03 0.  0.
        -24    2    3    3    0    0  0.99545390648E+02 -0.12353316439E+03 -0.19324711197E+02  0.18058988920E+03  0.84080533500E+02 0.  0.
          6    2    1    2  501    0 -0.30339319363E+03  0.19016526768E+03 -0.21083559877E+03  0.45029869410E+03  0.17351370329E+03 0.  0.
         24    2    5    5    0    0 -0.30552122392E+03  0.13866187695E+03 -0.16981034741E+03  0.38425106720E+03  0.79012620347E+02 0.  0.
          5    1    5    5  501    0  0.21280302919E+01  0.51503390733E+02 -0.41025251357E+02  0.66047626898E+02  0.47000000000E+01 0. -1.
        -13    1    6    6    0    0 -0.19880914874E+03  0.49177321885E+02 -0.11238338781E+03  0.23360974394E+03  0.00000000000E+00 0.  1.
         14    1    6    6    0    0 -0.10671207518E+03  0.89484555062E+02 -0.57426959606E+02  0.15064132326E+03  0.00000000000E+00 0. -1.
         -5    1    3    3    0  503  0.20384780298E+03 -0.66632103285E+02  0.32454360269E+02  0.21695423358E+03  0.47000000000E+01 0.  1.
         11    1    4    4    0    0 -0.46702030217E+01 -0.27289322367E+02  0.19081327029E+02  0.33624618253E+02  0.00000000000E+00 0. -1.
        -12    1    4    4    0    0  0.10421559367E+03 -0.96243842028E+02 -0.38406038225E+02  0.14696527095E+03  0.00000000000E+00 0.  1.
</event>
<event>
12    1  0.1032880E+000  0.2283069E+03  0.7818608E-02  0.1130381E+00
         21   -1    0    0  501  502  0.00000000000E+00  0.00000000000E+00  0.65644862902E+03  0.65644862902E+03  0.00000000000E+00 0. -1.
         21   -1    0    0  502  503 -0.00000000000E+00 -0.00000000000E+00 -0.75350015348E+02  0.75350015348E+02  0.00000000000E+00 0. -1.
         -6    2    1    2    0  503 -0.53447008309E+02 -0.11619410354E+03  0.24651872940E+03  0.32674588188E+03  0.17214451773E+03 0.  0.
        -24    2    3    3    0    0  0.32304034105E+02 -0.61067013106E+02  0.17082555195E+03  0.19968768857E+03  0.76948509125E+02 0.  0.
          6    2    1    2  501    0  0.53447008309E+02  0.11619410354E+03  0.33457988427E+03  0.40505276249E+03  0.18912003873E+03 0.  0.
         24    2    5    5    0    0  0.38870948840E+02 -0.14071133548E+02  0.18445139566E+03  0.20569843824E+03  0.81120790633E+02 0.  0.
          5    1    5    5  501    0  0.14576059469E+02  0.13026523709E+03  0.15012848861E+03  0.19935432425E+03  0.47000000000E+01 0. -1.
        -13    1    6    6    0    0  0.20811101521E+02  0.31788700693E+02  0.52218818977E+02  0.64578854849E+02  0.00000000000E+00 0.  1.
         14    1    6    6    0    0  0.18059847319E+02 -0.45859834242E+02  0.13223257668E+03  0.14111958339E+03  0.00000000000E+00 0. -1.
         -5    1    3    3    0  503 -0.85751042414E+02 -0.55127090432E+02  0.75693177451E+02  0.12705819331E+03  0.47000000000E+01 0.  1.
         11    1    4    4    0    0  0.31989147915E+02  0.38228616994E+01  0.27503222286E+02  0.42359734324E+02  0.00000000000E+00 0. -1.
        -12    1    4    4    0    0  0.31488619006E+00 -0.64889874805E+02  0.14332232966E+03  0.15732795424E+03  0.00000000000E+00 0.  1.
</event>
<event>
12    1  0.1032880E+000  0.1784615E+03  0.7818608E-02  0.1169511E+00
         21   -1    0    0  503  502  0.00000000000E+00  0.00000000000E+00  0.84682097829E+03  0.84682097829E+03  0.00000000000E+00 0. -1.
         21   -1    0    0  501  503 -0.00000000000E+00 -0.00000000000E+00 -0.40734523613E+02  0.40734523613E+02  0.00000000000E+00 0. -1.
          6    2    1    2  501    0  0.14780151795E+02  0.43954180017E+02  0.52857353331E+03  0.55761320130E+03  0.17144118325E+03 0.  0.
         24    2    3    3    0    0  0.24924473941E+02  0.94255865182E+02  0.39037262917E+03  0.41011829729E+03  0.79377771727E+02 0.  0.
         -6    2    1    2    0  502 -0.14780151795E+02 -0.43954180017E+02  0.27751292136E+03  0.32994230060E+03  0.17233130121E+03 0.  0.
        -24    2    5    5    0    0 -0.52181705951E+02  0.18912411932E+02  0.20331494922E+03  0.22564218696E+03  0.80602842368E+02 0.  0.
          5    1    3    3  501    0 -0.10144322145E+02 -0.50301685165E+02  0.13820090415E+03  0.14749490401E+03  0.47000000000E+01 0. -1.
        -13    1    4    4    0    0 -0.27155948526E+02  0.38537204874E+02  0.18886339139E+03  0.19465852744E+03  0.00000000000E+00 0.  1.
         14    1    4    4    0    0  0.52080422466E+02  0.55718660308E+02  0.20150923778E+03  0.21545976984E+03  0.00000000000E+00 0. -1.
         -5    1    5    5    0  502  0.37401554156E+02 -0.62866591949E+02  0.74197972138E+02  0.10430011364E+03  0.47000000000E+01 0.  1.
         13    1    6    6    0    0 -0.29865664138E+02 -0.24220888781E+01  0.18943868027E+03  0.19179373815E+03  0.00000000000E+00 0. -1.
        -14    1    6    6    0    0 -0.22316041813E+02  0.21334500810E+02  0.13876268947E+02  0.33848448811E+02  0.00000000000E+00 0.  1.
</event>
<event>
12    1  0.1032880E+000  0.2396565E+03  0.7818608E-02  0.1120166E+00
         21   -1    0    0  503  502  0.00000000000E+00  0.00000000000E+00  0.74842529107E+02  0.74842529107E+02  0.00000000000E+00 0. -1.
         21   -1    0    0  501  503 -0.00000000000E+00 -0.00000000000E+00 -0.10956906973E+04  0.10956906973E+04  0.00000000000E+00 0. -1.
          6    2    1    2  501    0 -0.14460967084E+03  0.80773920309E+02 -0.18937051191E+03  0.30544461449E+03  0.17320172816E+03 0.  0.
         24    2    3    3    0    0 -0.33436296997E+02  0.89881432100E+02 -0.10395776149E+03  0.16487472526E+03  0.84733706772E+02 0.  0.
         -6    2    1    2    0  502  0.14460967084E+03 -0.80773920309E+02 -0.83147765631E+03  0.86508861194E+03  0.17200822790E+03 0.  0.
        -24    2    5    5    0    0  0.14382319744E+03 -0.54199019708E+02 -0.44125119541E+03  0.47392927783E+03  0.79269773979E+02 0.  0.
          5    1    3    3  501    0 -0.11117337384E+03 -0.91075117914E+01 -0.85412750418E+02  0.14056988923E+03  0.47000000000E+01 0. -1.
        -11    1    4    4    0    0 -0.56261630697E+02  0.29867623275E+02 -0.54390232360E+02  0.83760034533E+02  0.00000000000E+00 0.  1.
         12    1    4    4    0    0  0.22825333700E+02  0.60013808825E+02 -0.49567529128E+02  0.81114690729E+02  0.00000000000E+00 0. -1.
         -5    1    5    5    0  502  0.78647339719E+00 -0.26574900600E+02 -0.39022646090E+03  0.39115933412E+03  0.47000000000E+01 0.  1.
         11    1    6    6    0    0  0.28242523962E+02  0.20632850742E+02 -0.79190346713E+02  0.86570582197E+02  0.00000000000E+00 0. -1.
        -12    1    6    6    0    0  0.11558067348E+03 -0.74831870450E+02 -0.36206084870E+03  0.38735869563E+03  0.00000000000E+00 0.  1.
</event>
<event>
12    1  0.1032880E+000  0.1951912E+03  0.7818608E-02  0.1155265E+00
         21   -1    0    0  501  502  0.00000000000E+00  0.00000000000E+00  0.26970370686E+03  0.26970370686E+03  0.00000000000E+00 0. -1.
         21   -1    0    0  502  503 -0.00000000000E+00 -0.00000000000E+00 -0.14892380127E+03  0.14892380127E+03  0.00000000000E+00 0. -1.
         -6    2    1    2    0  503 -0.37146348511E+02  0.76018539651E+02  0.11939550611E+03  0.22343138511E+03  0.16884201905E+03 0.  0.
        -24    2    3    3    0    0  0.22898485045E+02  0.34291570513E+02  0.11978174631E+03  0.15015955443E+03  0.80622407616E+02 0.  0.
          6    2    1    2  501    0  0.37146348511E+02 -0.76018539651E+02  0.13843994842E+01  0.19519612301E+03  0.17590037038E+03 0.  0.
         24    2    5    5    0    0 -0.48094283684E+02 -0.54646292799E+02 -0.29810217248E+01  0.10708321127E+03  0.78477068028E+02 0.  0.
          5    1    5    5  501    0  0.85240632195E+02 -0.21372246852E+02  0.43654212090E+01  0.88112911738E+02  0.47000000000E+01 0. -1.
        -13    1    6    6    0    0 -0.33690240023E+02 -0.72654367603E+02 -0.14369204261E+02  0.81364386778E+02  0.00000000000E+00 0.  1.
         14    1    6    6    0    0 -0.14404043661E+02  0.18008074804E+02  0.11388182536E+02  0.25718824495E+02  0.00000000000E+00 0. -1.
         -5    1    3    3    0  503 -0.60044833556E+02  0.41726969138E+02 -0.38624020778E+00  0.73271830684E+02  0.47000000000E+01 0.  1.
         13    1    4    4    0    0  0.86565501409E+01  0.17424112010E+02 -0.75935839214E+01  0.20885355072E+02  0.00000000000E+00 0. -1.
        -14    1    4    4    0    0  0.14241934904E+02  0.16867458502E+02  0.12737533024E+03  0.12927419935E+03  0.00000000000E+00 0.  1.
</event>
<event>
12    1  0.1032880E+000  0.1899945E+03  0.7818608E-02  0.1158940E+00
         21   -1    0    0  501  502  0.00000000000E+00  0.00000000000E+00  0.75547252937E+03  0.75547252937E+03  0.00000000000E+00 0.  1.
         21   -1    0    0  502  503 -0.00000000000E+00 -0.00000000000E+00 -0.12998840368E+03  0.12998840368E+03  0.00000000000E+00 0. -1.
         -6    2    1    2    0  503  0.75995028568E+02  0.14290246802E+02 -0.41084008582E+02  0.19234405693E+03  0.17125678076E+03 0.  0.
        -24    2    3    3    0    0  0.12214707243E+01  0.27203600761E+02  0.29035296120E+02  0.88919463365E+02  0.79511600784E+02 0.  0.
          6    2    1    2  501    0 -0.75995028568E+02 -0.14290246802E+02  0.66656813427E+03  0.69311687612E+03  0.17354673959E+03 0.  0.
         24    2    5    5    0    0 -0.36294414922E+02 -0.73099438902E+02  0.36107276098E+03  0.37945436179E+03  0.83374225237E+02 0.  0.
          5    1    5    5  501    0 -0.39700613646E+02  0.58809192100E+02  0.30549537329E+03  0.31366251434E+03  0.47000000000E+01 0. -1.
        -11    1    6    6    0    0  0.85418399185E+01 -0.70465537835E+02  0.19931357553E+03  0.21157565182E+03  0.00000000000E+00 0.  1.
         12    1    6    6    0    0 -0.44836254841E+02 -0.26339010676E+01  0.16175918545E+03  0.16787870997E+03  0.00000000000E+00 0. -1.
         -5    1    3    3    0  503  0.74773557844E+02 -0.12913353959E+02 -0.70119304702E+02  0.10342459357E+03  0.47000000000E+01 0.  1.
         11    1    4    4    0    0  0.19342763677E+02  0.20234414105E+02 -0.21166501765E+02  0.35094085225E+02  0.00000000000E+00 0. -1.
        -12    1    4    4    0    0 -0.18121292953E+02  0.69691866561E+01  0.50201797885E+02  0.53825378139E+02  0.00000000000E+00 0.  1.
</event>
<event>
12    1  0.1032880E+000  0.2231173E+03  0.7818608E-02  0.1131742E+00
         21   -1    0    0  501  502  0.00000000000E+00  0.00000000000E+00  0.26922229128E+03  0.26922229128E+03  0.00000000000E+00 0.  1.
         21   -1    0    0  502  503 -0.00000000000E+00 -0.00000000000E+00 -0.23507408213E+03  0.23507408213E+03  0.00000000000E+00 0.  1.
         -6    2    1    2    0  503 -0.86360913408E+02  0.11040639534E+03 -0.10022431365E+03  0.24459406596E+03  0.17359022023E+03 0.  0.
        -24    2    3    3    0    0 -0.59780123404E+02  0.14638646143E+03 -0.72669588584E+02  0.19184507140E+03  0.80752727951E+02 0.  0.
          6    2    1    2  501    0  0.86360913408E+02 -0.11040639534E+03  0.13437252281E+03  0.25970230745E+03  0.17245733997E+03 0.  0.
         24    2    5    5    0    0  0.29862047269E+02  0.97553430434E+01  0.74695550732E+02  0.11405068115E+03  0.80257236352E+02 0.  0.
          5    1    5    5  501    0  0.56498866139E+02 -0.12016173839E+03  0.59676972073E+02  0.14565162630E+03  0.47000000000E+01 0. -1.
        -11    1    6    6    0    0  0.39981490211E+02  0.38497674795E+01  0.87752054644E+02  0.96507840942E+02  0.00000000000E+00 0.  1.
         12    1    6    6    0    0 -0.10119442942E+02  0.59055755639E+01 -0.13056503912E+02  0.17542840209E+02  0.00000000000E+00 0. -1.
         -5    1    3    3    0  503 -0.26580790004E+02 -0.35980066092E+02 -0.27554725068E+02  0.52748994557E+02  0.47000000000E+01 0.  1.
         11    1    4    4    0    0 -0.38096411518E+02  0.14138018663E+02 -0.32221255271E+02  0.51859709154E+02  0.00000000000E+00 0. -1.
        -12    1    4    4    0    0 -0.21683711886E+02  0.13224844277E+03 -0.40448333313E+02  0.13998536225E+03  0.00000000000E+00 0.  1.
</event>
<event>
12    1  0.1032880E+000  0.3585311E+03  0.7818608E-02  0.1059267E+00
         21   -1    0    0  501  502  0.00000000000E+00  0.00000000000E+00  0.28033162057E+03  0.28033162057E+03  0.00000000000E+00 0.  1.
         21   -1    0    0  502  503 -0.00000000000E+00 -0.00000000000E+00 -0.47505769703E+03  0.47505769703E+03  0.00000000000E+00 0. -1.
         -6    2    1    2    0  503 -0.10250997002E+03 -0.29702327031E+03 -0.24381666153E+02  0.35935921183E+03  0.17266574770E+03 0.  0.
        -24    2    3    3    0    0 -0.74214432583E+02 -0.29890573023E+03 -0.48620471410E+02  0.32175880260E+03  0.79450357096E+02 0.  0.
          6    2    1    2  501    0  0.10250997002E+03  0.29702327031E+03 -0.17034441031E+03  0.39603010577E+03  0.17056233316E+03 0.  0.
         24    2    5    5    0    0 -0.21573150198E+01  0.19651947066E+03 -0.89443329139E+02  0.22982743059E+03  0.78714562619E+02 0.  0.
          5    1    5    5  501    0  0.10466728504E+03  0.10050379964E+03 -0.80901081173E+02  0.16620267517E+03  0.47000000000E+01 0. -1.
        -11    1    6    6    0    0  0.25513753396E+02  0.11888863872E+03 -0.82873019721E+02  0.14715093417E+03  0.00000000000E+00 0.  1.
         12    1    6    6    0    0 -0.27671068416E+02  0.77630831940E+02 -0.65703094186E+01  0.82676496423E+02  0.00000000000E+00 0. -1.
         -5    1    3    3    0  503 -0.28295537436E+02  0.18824599255E+01  0.24238805257E+02  0.37600409232E+02  0.47000000000E+01 0.  1.
         13    1    4    4    0    0 -0.68134544113E+02 -0.15849295178E+03 -0.54991452578E+02  0.18107012929E+03  0.00000000000E+00 0. -1.
        -14    1    4    4    0    0 -0.60798884695E+01 -0.14041277845E+03  0.63709811683E+01  0.14068867331E+03  0.00000000000E+00 0.  1.
</event>
<event>
12    1  0.1032880E+000  0.1874917E+03  0.7818608E-02  0.1161363E+00
         21   -1    0    0  501  502  0.00000000000E+00  0.00000000000E+00  0.95618101481E+02  0.95618101481E+02  0.00000000000E+00 0.  1.
         21   -1    0    0  502  503 -0.00000000000E+00 -0.00000000000E+00 -0.43614354702E+03  0.43614354702E+03  0.00000000000E+00 0.  1.
         -6    2    1    2    0  503 -0.21640244332E+02 -0.59537775628E+02 -0.28060540474E+03  0.33747967921E+03  0.17646555985E+03 0.  0.
        -24    2    3    3    0    0 -0.65051900529E+02 -0.39502951970E+02 -0.26762193052E+03  0.28771396154E+03  0.73250208141E+02 0.  0.
          6    2    1    2  501    0  0.21640244332E+02  0.59537775628E+02 -0.59920040802E+02  0.19428196929E+03  0.17361458867E+03 0.  0.
         24    2    5    5    0    0  0.67854726025E+02  0.81955606075E+02 -0.46638945188E+02  0.14102021058E+03  0.79940749138E+02 0.  0.
          5    1    5    5  501    0 -0.46214481693E+02 -0.22417830447E+02 -0.13281095614E+02  0.53261758709E+02  0.47000000000E+01 0. -1.
        -11    1    6    6    0    0  0.43787293913E+02 -0.38516118906E+01 -0.16205490775E+02  0.46848478670E+02  0.00000000000E+00 0.  1.
         12    1    6    6    0    0  0.24067432111E+02  0.85807217966E+02 -0.30433454413E+02  0.94171731910E+02  0.00000000000E+00 0. -1.
         -5    1    3    3    0  503  0.43411656197E+02 -0.20034823658E+02 -0.12983474218E+02  0.49765717674E+02  0.47000000000E+01 0.  1.
         11    1    4    4    0    0 -0.47211840507E+02 -0.47443377029E+02 -0.10910617538E+03  0.12799995865E+03  0.00000000000E+00 0. -1.
        -12    1    4    4    0    0 -0.17840060022E+02  0.79404250590E+01 -0.15851575514E+03  0.15971400289E+03  0.00000000000E+00 0.  1.
</event>
<event>
12    1  0.1041323E+000  0.6652258E+03  0.7818608E-02  0.9778830E-01
         21   -1    0    0  503  502  0.00000000000E+00  0.00000000000E+00  0.84994375988E+03  0.84994375988E+03  0.00000000000E+00 0.  1.
         21   -1    0    0  501  503 -0.00000000000E+00 -0.00000000000E+00 -0.10594483861E+04  0.10594483861E+04  0.00000000000E+00 0. -1.
          6    2    1    2  501    0  0.61838788807E+03 -0.17260492549E+03  0.57628433161E+03  0.88013006796E+03  0.17415299379E+03 0.  0.
         24    2    3    3    0    0  0.43137657589E+03 -0.17856659634E+03  0.45570792307E+03  0.65748790507E+03  0.81540508937E+02 0.  0.
         -6    2    1    2    0  502 -0.61838788807E+03  0.17260492549E+03 -0.78578895781E+03  0.10292620780E+04  0.17239518144E+03 0.  0.
        -24    2    5    5    0    0 -0.28589550090E+03  0.72817094987E+02 -0.46629438106E+03  0.55744890182E+03  0.79248101445E+02 0.  0.
          5    1    3    3  501    0  0.18701131218E+03  0.59616708472E+01  0.12057640854E+03  0.22264216289E+03  0.47000000000E+01 0. -1.
        -11    1    4    4    0    0  0.17618089347E+03 -0.10582061741E+03  0.16226046604E+03  0.26185142568E+03  0.00000000000E+00 0.  1.
         12    1    4    4    0    0  0.25519568242E+03 -0.72745978927E+02  0.29344745703E+03  0.39563647938E+03  0.00000000000E+00 0. -1.
         -5    1    5    5    0  502 -0.33249238717E+03  0.99787830505E+02 -0.31949457676E+03  0.47181317618E+03  0.47000000000E+01 0.  1.
         11    1    6    6    0    0 -0.63271035286E+02  0.34908768537E+02 -0.66101297604E+02  0.97934812870E+02  0.00000000000E+00 0. -1.
        -12    1    6    6    0    0 -0.22262446562E+03  0.37908326450E+02 -0.40019308345E+03  0.45951408895E+03  0.00000000000E+00 0.  1.
</event>
<event>
12    1  0.1032880E+000  0.4248763E+03  0.7818608E-02  0.1035530E+00
         21   -1    0    0  501  502  0.00000000000E+00  0.00000000000E+00  0.14063969799E+04  0.14063969799E+04  0.00000000000E+00 0.  1.
         21   -1    0    0  502  503 -0.00000000000E+00 -0.00000000000E+00 -0.14661762374E+03  0.14661762374E+03  0.00000000000E+00 0.  1.
         -6    2    1    2    0  503  0.38363766729E+01 -0.38819048954E+03  0.90472427891E+03  0.99931434374E+03  0.17145425863E+03 0.  0.
        -24    2    3    3    0    0  0.48924154401E+02 -0.28491112532E+03  0.75169613251E+03  0.80921111293E+03  0.78788498173E+02 0.  0.
          6    2    1    2  501    0 -0.38363766729E+01  0.38819048954E+03  0.35505507721E+03  0.55370025986E+03  0.17266527143E+03 0.  0.
         24    2    5    5    0    0 -0.50709641304E+02  0.12632472484E+03  0.10957501282E+03  0.19168736827E+03  0.78790607906E+02 0.  0.
          5    1    5    5  501    0  0.46873264632E+02  0.26186576470E+03  0.24548006440E+03  0.36201289159E+03  0.47000000000E+01 0. -1.
        -11    1    6    6    0    0  0.10075481782E+02 -0.56691930098E+01  0.47085278743E+01  0.12483001132E+02  0.00000000000E+00 0.  1.
         12    1    6    6    0    0 -0.60785123086E+02  0.13199391785E+03  0.10486648494E+03  0.17920436714E+03  0.00000000000E+00 0. -1.
         -5    1    3    3    0  503 -0.45087777728E+02 -0.10327936422E+03  0.15302814640E+03  0.19010323082E+03  0.47000000000E+01 0.  1.
         13    1    4    4    0    0  0.81307887147E+01 -0.12811924196E+03  0.23589823609E+03  0.26856773387E+03  0.00000000000E+00 0. -1.
        -14    1    4    4    0    0  0.40793365686E+02 -0.15679188336E+03  0.51579789642E+03  0.54064337906E+03  0.00000000000E+00 0.  1.
</event>
<event>
12    1  0.1032880E+000  0.2195583E+03  0.7818608E-02  0.1134350E+00
         21   -1    0    0  501  502  0.00000000000E+00  0.00000000000E+00  0.19576640233E+03  0.19576640233E+03  0.00000000000E+00 0.  1.
         21   -1    0    0  502  503 -0.00000000000E+00 -0.00000000000E+00 -0.48979993396E+03  0.48979993396E+03  0.00000000000E+00 0.  1.
         -6    2    1    2    0  503  0.82990745348E+02  0.10721484486E+03 -0.38901927800E+03  0.44634227743E+03  0.17176420814E+03 0.  0.
        -24    2    3    3    0    0  0.25776135603E+02  0.20800031803E+02 -0.28988572571E+03  0.30284808705E+03  0.81155279372E+02 0.  0.
          6    2    1    2  501    0 -0.82990745348E+02 -0.10721484486E+03  0.94985746368E+02  0.23922405886E+03  0.17269444563E+03 0.  0.
         24    2    5    5    0    0  0.24286308031E+02 -0.33382720493E+02  0.12735752782E+02  0.85124415069E+02  0.73346682656E+02 0.  0.
          5    1    5    5  501    0 -0.10727705338E+03 -0.73832124369E+02  0.82249993586E+02  0.15409964379E+03  0.47000000000E+01 0. -1.
        -11    1    6    6    0    0 -0.20222649020E+02  0.48476050197E+01 -0.88576476176E+01  0.22603378710E+02  0.00000000000E+00 0.  1.
         12    1    6    6    0    0  0.44508957051E+02 -0.38230325513E+02  0.21593400400E+02  0.62521036359E+02  0.00000000000E+00 0. -1.
         -5    1    3    3    0  503  0.57214609745E+02  0.86414813060E+02 -0.99133552292E+02  0.14349419039E+03  0.47000000000E+01 0.  1.
         11    1    4    4    0    0 -0.78832625171E+01  0.45093201944E+02 -0.13815167378E+03  0.14553840613E+03  0.00000000000E+00 0. -1.
        -12    1    4    4    0    0  0.33659398120E+02 -0.24293170142E+02 -0.15173405192E+03  0.15730968092E+03  0.00000000000E+00 0.  1.
</event>
<event>
12    1  0.1032880E+000  0.1822668E+03  0.7818608E-02  0.1165755E+00
         21   -1    0    0  501  502  0.00000000000E+00  0.00000000000E+00  0.14973085552E+04  0.14973085552E+04  0.00000000000E+00 0. -1.
         21   -1    0    0  502  503 -0.00000000000E+00 -0.00000000000E+00 -0.22122866093E+02  0.22122866093E+02  0.00000000000E+00 0. -1.
         -6    2    1    2    0  503  0.38195075644E+02  0.43217988907E+02  0.74380781802E+03  0.76581412250E+03  0.17290038087E+03 0.  0.
        -24    2    3    3    0    0 -0.91747729847E-01 -0.32057987937E+02  0.25555241885E+03  0.27028634492E+03  0.81975279585E+02 0.  0.
          6    2    1    2  501    0 -0.38195075644E+02 -0.43217988907E+02  0.73137787110E+03  0.75361729881E+03  0.17233335242E+03 0.  0.
         24    2    5    5    0    0 -0.44091831344E+02 -0.38494630248E+02  0.20215438125E+03  0.22431901423E+03  0.77631824257E+02 0.  0.
          5    1    5    5  501    0  0.58967557000E+01 -0.47233586591E+01  0.52922348986E+03  0.52929828458E+03  0.47000000000E+01 0. -1.
        -13    1    6    6    0    0 -0.18656668376E+02  0.20398029881E+02  0.30986989663E+02  0.41525226385E+02  0.00000000000E+00 0.  1.
         14    1    6    6    0    0 -0.25435162967E+02 -0.58892660129E+02  0.17116739158E+03  0.18279378784E+03  0.00000000000E+00 0. -1.
         -5    1    3    3    0  503  0.38286823374E+02  0.75275976843E+02  0.48825539917E+03  0.49552777757E+03  0.47000000000E+01 0.  1.
         11    1    4    4    0    0 -0.35554991384E+02 -0.65725637331E+00  0.66737204219E+02  0.75620392919E+02  0.00000000000E+00 0. -1.
        -12    1    4    4    0    0  0.35463243654E+02 -0.31400731563E+02  0.18881521463E+03  0.19466595200E+03  0.00000000000E+00 0.  1.
</event>
<event>
12    1  0.1032880E+000  0.3358648E+03  0.7818608E-02  0.1068682E+00
         21   -1    0    0  503  502  0.00000000000E+00  0.00000000000E+00  0.25219737297E+03  0.25219737297E+03  0.00000000000E+00 0. -1.
         21   -1    0    0  501  503 -0.00000000000E+00 -0.00000000000E+00 -0.80328353112E+03  0.80328353112E+03  0.00000000000E+00 0.  1.
          6    2    1    2  501    0  0.17746339001E+03  0.22702808402E+03  0.76218090367E+02  0.34440436070E+03  0.17254031599E+03 0.  0.
         24    2    3    3    0    0  0.34972139896E+02  0.14129222650E+03  0.63415992097E+02  0.17755000102E+03  0.79472454155E+02 0.  0.
         -6    2    1    2    0  502 -0.17746339001E+03 -0.22702808402E+03 -0.62730424851E+03  0.71107654339E+03  0.17054097640E+03 0.  0.
        -24    2    5    5    0    0 -0.46103826943E+02 -0.10263456884E+03 -0.38306691740E+03  0.40709785115E+03  0.79554884345E+02 0.  0.
          5    1    3    3  501    0  0.14249125012E+03  0.85735857523E+02  0.12802098270E+02  0.16685435968E+03  0.47000000000E+01 0. -1.
        -11    1    4    4    0    0 -0.16392062728E+02  0.59881783874E+02 -0.34946915439E+00  0.62085826797E+02  0.00000000000E+00 0.  1.
         12    1    4    4    0    0  0.51364202624E+02  0.81410442627E+02  0.63765461252E+02  0.11546417422E+03  0.00000000000E+00 0. -1.
         -5    1    5    5    0  502 -0.13135956307E+03 -0.12439351518E+03 -0.24423733111E+03  0.30397869224E+03  0.47000000000E+01 0.  1.
         13    1    6    6    0    0 -0.30676310613E+01  0.11568207229E+02 -0.14227240537E+02  0.18591615102E+02  0.00000000000E+00 0. -1.
        -14    1    6    6    0    0 -0.43036195882E+02 -0.11420277607E+03 -0.36883967687E+03  0.38850623605E+03  0.00000000000E+00 0.  1.
</event>
<event>
12    1  0.1032880E+000  0.1765522E+03  0.7818608E-02  0.1171195E+00
         21   -1    0    0  503  502  0.00000000000E+00  0.00000000000E+00  0.16469224065E+04  0.16469224065E+04  0.00000000000E+00 0.  1.
         21   -1    0    0  501  503 -0.00000000000E+00 -0.00000000000E+00 -0.13972854143E+03  0.13972854143E+03  0.00000000000E+00 0.  1.
          6    2    1    2  501    0 -0.42617262853E+02 -0.87661473317E+01  0.15842243205E+04  0.15940259732E+04  0.17105270847E+03 0.  0.
         24    2    3    3    0    0 -0.44045985766E+02  0.50487458378E+02  0.67110872657E+03  0.67897668002E+03  0.78315878419E+02 0.  0.
         -6    2    1    2    0  502  0.42617262853E+02  0.87661473317E+01 -0.77030455463E+02  0.19262497472E+03  0.17110702319E+03 0.  0.
        -24    2    5    5    0    0  0.85172887306E+02  0.12251770025E+01 -0.16915756706E+02  0.11843795151E+03  0.80532501156E+02 0.  0.
          5    1    3    3  501    0  0.14287229136E+01 -0.59253605709E+02  0.91311559394E+03  0.91504929318E+03  0.47000000000E+01 0. -1.
        -11    1    4    4    0    0 -0.79472372755E+00  0.33653477674E+02  0.51540060088E+03  0.51649875850E+03  0.00000000000E+00 0.  1.
         12    1    4    4    0    0 -0.43251262039E+02  0.16833980703E+02  0.15570812569E+03  0.16247792152E+03  0.00000000000E+00 0. -1.
         -5    1    5    5    0  502 -0.42555624453E+02  0.75409703291E+01 -0.60114698757E+02  0.74187023210E+02  0.47000000000E+01 0.  1.
         13    1    6    6    0    0  0.82690078269E+02  0.27525550468E+02 -0.15305985178E+00  0.87151181289E+02  0.00000000000E+00 0. -1.
        -14    1    6    6    0    0  0.24828090370E+01 -0.26300373465E+02 -0.16762696854E+02  0.31286770222E+02  0.00000000000E+00 0.  1.
</event>
<event>
12    1  0.1032880E+000  0.2627768E+03  0.7818608E-02  0.1105901E+00
         21   -1    0    0  501  502  0.00000000000E+00  0.00000000000E+00  0.34926262627E+03  0.34926262627E+03  0.00000000000E+00 0. -1.
         21   -1    0    0  502  503 -0.00000000000E+00 -0.00000000000E+00 -0.20009905954E+03  0.20009905954E+03  0.00000000000E+00 0. -1.
         -6    2    1    2    0  503  0.91196811152E+02  0.17581230224E+03  0.11529518006E+03  0.28441125728E+03  0.16843384677E+03 0.  0.
        -24    2    3    3    0    0  0.11239101965E+02  0.16572643980E+02  0.40196274870E+02  0.90988302122E+02  0.79133814948E+02 0.  0.
          6    2    1    2  501    0 -0.91196811152E+02 -0.17581230224E+03  0.33868386678E+02  0.26495042853E+03  0.17269869131E+03 0.  0.
         24    2    5    5    0    0 -0.26871589154E+02 -0.86518479868E+02  0.80524501128E+02  0.14532599995E+03  0.80174318308E+02 0.  0.
          5    1    5    5  501    0 -0.64325221998E+02 -0.89293822372E+02 -0.46656114450E+02  0.11962442859E+03  0.47000000000E+01 0. -1.
        -13    1    6    6    0    0 -0.10914800862E+02 -0.52264338480E+02 -0.31804698681E+01  0.53486534223E+02  0.00000000000E+00 0.  1.
         14    1    6    6    0    0 -0.15956788292E+02 -0.34254141387E+02  0.83704970997E+02  0.91839465723E+02  0.00000000000E+00 0. -1.
         -5    1    3    3    0  503  0.79957709186E+02  0.15923965826E+03  0.75098905186E+02  0.19342295516E+03  0.47000000000E+01 0.  1.
         11    1    4    4    0    0  0.98641863577E+00 -0.19353031958E+02 -0.14882933341E+02  0.24433881651E+02  0.00000000000E+00 0. -1.
        -12    1    4    4    0    0  0.10252683329E+02  0.35925675938E+02  0.55079208211E+02  0.66554420471E+02  0.00000000000E+00 0.  1.
</event>
<event>
12    1  0.1032880E+000  0.3381658E+03  0.7818608E-02  0.1067930E+00
         21   -1    0    0  501  502  0.00000000000E+00  0.00000000000E+00  0.18031888165E+03  0.18031888165E+03  0.00000000000E+00 0.  1.
         21   -1    0    0  502  503 -0.00000000000E+00 -0.00000000000E+00 -0.10411852429E+04  0.10411852429E+04  0.00000000000E+00 0.  1.
         -6    2    1    2    0  503 -0.23367845618E+03 -0.17407263107E+03 -0.81638196066E+03  0.88364903432E+03  0.17160771658E+03 0.  0.
        -24    2    3    3    0    0 -0.18668660238E+03 -0.74234811971E+02 -0.64209116130E+03  0.67731145366E+03  0.78147623348E+02 0.  0.
          6    2    1    2  501    0  0.23367845618E+03  0.17407263107E+03 -0.44484400572E+02  0.33785509021E+03  0.16510692993E+03 0.  0.
         24    2    5    5    0    0  0.95657923990E+02  0.70213470388E+02  0.36071655698E+02  0.14720420307E+03  0.79294030103E+02 0.  0.
          5    1    5    5  501    0  0.13802053219E+03  0.10385916069E+03 -0.80556056270E+02  0.19065088714E+03  0.47000000000E+01 0. -1.
        -13    1    6    6    0    0  0.15336170344E+02 -0.16595429298E+02  0.14870677487E+02  0.27050756798E+02  0.00000000000E+00 0.  1.
         14    1    6    6    0    0  0.80321753646E+02  0.86808899686E+02  0.21200978211E+02  0.12015344627E+03  0.00000000000E+00 0. -1.
         -5    1    3    3    0  503 -0.46991853806E+02 -0.99837819104E+02 -0.17429079936E+03  0.20633758065E+03  0.47000000000E+01 0.  1.
         11    1    4    4    0    0 -0.83657889554E+02 -0.56208318575E+02 -0.41850632437E+03  0.43047132436E+03  0.00000000000E+00 0. -1.
        -12    1    4    4    0    0 -0.10302871282E+03 -0.18026493396E+02 -0.22358483693E+03  0.24684012930E+03  0.00000000000E+00 0.  1.
</event>
<event>
12    1  0.1032880E+000  0.5074759E+03  0.7818608E-02  0.1012052E+00
         21   -1    0    0  501  502  0.00000000000E+00  0.00000000000E+00  0.13813717392E+04  0.13813717392E+04  0.00000000000E+00 0. -1.
         21   -1    0    0  502  503 -0.00000000000E+00 -0.00000000000E+00 -0.22159620665E+03  0.22159620665E+03  0.00000000000E+00 0. -1.
         -6    2    1    2    0  503 -0.47163854246E+03  0.69340920907E+02  0.90292632472E+03  0.10341944143E+04  0.16441125433E+03 0.  0.
        -24    2    3    3    0    0 -0.26252044267E+03 -0.10038549180E+02  0.57637921228E+03  0.63835784877E+03  0.79183277567E+02 0.  0.
          6    2    1    2  501    0  0.47163854246E+03 -0.69340920907E+02  0.25684920784E+03  0.56877353161E+03  0.17401361052E+03 0.  0.
         24    2    5    5    0    0  0.40213488979E+03 -0.13882948690E+01  0.21409700148E+03  0.46248073661E+03  0.79602190560E+02 0.  0.
          5    1    5    5  501    0  0.69503652661E+02 -0.67952626038E+02  0.42752206357E+02  0.10629279499E+03  0.47000000000E+01 0. -1.
        -11    1    6    6    0    0  0.32951471030E+03 -0.17605270864E+01  0.20784082688E+03  0.38959062242E+03  0.00000000000E+00 0.  1.
         12    1    6    6    0    0  0.72620179493E+02  0.37223221741E+00  0.62561746055E+01  0.72890114194E+02  0.00000000000E+00 0. -1.
         -5    1    3    3    0  503 -0.20911809979E+03  0.79379470087E+02  0.32654711245E+03  0.39583656549E+03  0.47000000000E+01 0.  1.
         11    1    4    4    0    0 -0.11449787269E+03  0.33652338463E+02  0.27427767339E+03  0.29911617284E+03  0.00000000000E+00 0. -1.
        -12    1    4    4    0    0 -0.14802256998E+03 -0.43690887643E+02  0.30210153889E+03  0.33924167592E+03  0.00000000000E+00 0.  1.
</event>
<event>
12    1  0.1032880E+000  0.3449860E+03  0.7818608E-02  0.1064749E+00
         21   -1    0    0  503  502  0.00000000000E+00  0.00000000000E+00  0.86007829597E+03  0.86007829597E+03  0.00000000000E+00 0. -1.
         21   -1    0    0  501  503 -0.00000000000E+00 -0.00000000000E+00 -0.18843387882E+03  0.18843387882E+03  0.00000000000E+00 0.  1.
          6    2    1    2  501    0  0.29659140106E+03  0.34403857576E+02  0.60680788900E+03  0.69801945995E+03  0.17281570449E+03 0.  0.
         24    2    3    3    0    0  0.16961821448E+03 -0.11749892491E+02  0.27152760138E+03  0.33651244754E+03  0.10298053399E+03 0.  0.
         -6    2    1    2    0  502 -0.29659140106E+03 -0.34403857576E+02  0.64836528143E+02  0.35049271484E+03  0.17173026285E+03 0.  0.
        -24    2    5    5    0    0 -0.17826283485E+03 -0.62668321694E+02  0.92775040759E+02  0.22558002533E+03  0.81081334529E+02 0.  0.
          5    1    3    3  501    0  0.12697318658E+03  0.46153750067E+02  0.33528028762E+03  0.36150701241E+03  0.47000000000E+01 0. -1.
        -13    1    4    4    0    0  0.14730390839E+03  0.30635169564E+02  0.19625170501E+03  0.24728867091E+03  0.00000000000E+00 0.  1.
         14    1    4    4    0    0  0.22314306090E+02 -0.42385062056E+02  0.75275896373E+02  0.89223776632E+02  0.00000000000E+00 0. -1.
         -5    1    5    5    0  502 -0.11832856621E+03  0.28264464118E+02 -0.27938512616E+02  0.12491268951E+03  0.47000000000E+01 0.  1.
         11    1    6    6    0    0 -0.34465716080E+02 -0.18216088241E+02  0.59983231947E+02  0.71538098734E+02  0.00000000000E+00 0. -1.
        -12    1    6    6    0    0 -0.14379711877E+03 -0.44452233453E+02  0.32791808812E+02  0.15404192660E+03  0.00000000000E+00 0.  1.
</event>
<event>
12    1  0.1032880E+000  0.2553060E+03  0.7818608E-02  0.1109999E+00
         21   -1    0    0  501  502  0.00000000000E+00  0.00000000000E+00  0.44992550264E+03  0.44992550264E+03  0.00000000000E+00 0. -1.
         21   -1    0    0  502  503 -0.00000000000E+00 -0.00000000000E+00 -0.15536773714E+03  0.15536773714E+03  0.00000000000E+00 0. -1.
         -6    2    1    2    0  503  0.47219494665E+02  0.18216402768E+03  0.68584351638E+02  0.26435765961E+03  0.17253331634E+03 0.  0.
        -24    2    3    3    0    0  0.64907617629E+02  0.14106565330E+03 -0.87684332237E+01  0.17487308330E+03  0.79944934021E+02 0.  0.
          6    2    1    2  501    0 -0.47219494665E+02 -0.18216402768E+03  0.22597341386E+03  0.34093558018E+03  0.17250991971E+03 0.  0.
         24    2    5    5    0    0  0.25972988710E+01 -0.12134737265E+03  0.21820831032E+03  0.26179794513E+03  0.78685237314E+02 0.  0.
          5    1    5    5  501    0 -0.49816793536E+02 -0.60816655034E+02  0.77651035422E+01  0.79137635046E+02  0.47000000000E+01 0. -1.
        -13    1    6    6    0    0 -0.88620702652E+00 -0.41224260438E+02  0.15934923519E+02  0.44205732650E+02  0.00000000000E+00 0.  1.
         14    1    6    6    0    0  0.34835058975E+01 -0.80123112211E+02  0.20227338680E+03  0.21759221248E+03  0.00000000000E+00 0. -1.
         -5    1    3    3    0  503 -0.17688122964E+02  0.41098374386E+02  0.77352784862E+02  0.89484576308E+02  0.47000000000E+01 0.  1.
         11    1    4    4    0    0 -0.15639220219E+02  0.49129921299E+01  0.58090878153E+00  0.16403053244E+02  0.00000000000E+00 0. -1.
        -12    1    4    4    0    0  0.80546837848E+02  0.13615266117E+03 -0.93493420052E+01  0.15847003006E+03  0.00000000000E+00 0.  1.
</event>
<event>
12    1  0.1032880E+000  0.2702635E+03  0.7818608E-02  0.1101185E+00
         21   -1    0    0  501  502  0.00000000000E+00  0.00000000000E+00  0.22670768993E+03  0.22670768993E+03  0.00000000000E+00 0.  1.
         21   -1    0    0  502  503 -0.00000000000E+00 -0.00000000000E+00 -0.57088757834E+03  0.57088757834E+03  0.00000000000E+00 0.  1.
         -6    2    1    2    0  503 -0.20695908343E+03 -0.21161483945E+02  0.91303882906E+02  0.28526957905E+03  0.17251800800E+03 0.  0.
        -24    2    3    3    0    0 -0.16428856662E+03 -0.19780277372E+02  0.13138293884E+03  0.22652350292E+03  0.81666567588E+02 0.  0.
          6    2    1    2  501    0  0.20695908343E+03  0.21161483945E+02 -0.43548377131E+03  0.51232568922E+03  0.17190586420E+03 0.  0.
         24    2    5    5    0    0  0.16420227811E+03 -0.50709477666E+02 -0.34433332415E+03  0.38853524718E+03  0.53482342102E+02 0.  0.
          5    1    5    5  501    0  0.42756805316E+02  0.71870961611E+02 -0.91150447157E+02  0.12379044204E+03  0.47000000000E+01 0. -1.
        -13    1    6    6    0    0  0.94314348357E+02 -0.31971417154E+02 -0.14029080130E+03  0.17204324093E+03  0.00000000000E+00 0.  1.
         14    1    6    6    0    0  0.69887929756E+02 -0.18738060512E+02 -0.20404252286E+03  0.21649200625E+03  0.00000000000E+00 0. -1.
         -5    1    3    3    0  503 -0.42670516812E+02 -0.13812065734E+01 -0.40079055935E+02  0.58746076135E+02  0.47000000000E+01 0.  1.
         11    1    4    4    0    0 -0.72207294261E+02  0.26387874690E+02  0.81622773637E+02  0.11212711738E+03  0.00000000000E+00 0. -1.
        -12    1    4    4    0    0 -0.92081272357E+02 -0.46168152062E+02  0.49760165204E+02  0.11439638554E+03  0.00000000000E+00 0.  1.
</event>
<event>
12    1  0.1032880E+000  0.2138179E+03  0.7818608E-02  0.1138888E+00
         21   -1    0    0  503  502  0.00000000000E+00  0.00000000000E+00  0.21456881190E+03  0.21456881190E+03  0.00000000000E+00 0.  1.
         21   -1    0    0  501  503 -0.00000000000E+00 -0.00000000000E+00 -0.21553989759E+03  0.21553989759E+03  0.00000000000E+00 0.  1.
          6    2    1    2  501    0  0.12153159961E+03  0.29552224540E+02 -0.30000183869E+02  0.21591230731E+03  0.17342101873E+03 0.  0.
         24    2    3    3    0    0  0.10649413570E+03 -0.27131853043E+02  0.20011947607E+02  0.13869499535E+03  0.82211223676E+02 0.  0.
         -6    2    1    2    0  502 -0.12153159961E+03 -0.29552224540E+02  0.29029098187E+02  0.21419640218E+03  0.17144721195E+03 0.  0.
        -24    2    5    5    0    0 -0.28737513404E+02 -0.10852976599E+02 -0.44342955019E+02  0.94338350720E+02  0.77393765764E+02 0.  0.
          5    1    3    3  501    0  0.15037463905E+02  0.56684077583E+02 -0.50012131476E+02  0.77217311964E+02  0.47000000000E+01 0. -1.
        -13    1    4    4    0    0 -0.63115302370E+01  0.20914160338E-02  0.21761879200E+02  0.22658658491E+02  0.00000000000E+00 0.  1.
         14    1    4    4    0    0  0.11280566594E+03 -0.27133944459E+02 -0.17499315937E+01  0.11603633685E+03  0.00000000000E+00 0. -1.
         -5    1    5    5    0  502 -0.92794086203E+02 -0.18699247941E+02  0.73372053206E+02  0.11985805146E+03  0.47000000000E+01 0.  1.
         13    1    6    6    0    0 -0.47819843025E+02 -0.13684900928E+02 -0.53443362525E+02  0.73008265959E+02  0.00000000000E+00 0. -1.
        -14    1    6    6    0    0  0.19082329620E+02  0.28319243297E+01  0.91004075065E+01  0.21330084761E+02  0.00000000000E+00 0.  1.
</event>
<event>
12    1  0.1032880E+000  0.2085225E+03  0.7818608E-02  0.1142953E+00
         21   -1    0    0  501  502  0.00000000000E+00  0.00000000000E+00  0.15022930361E+04  0.15022930361E+04  0.00000000000E+00 0. -1.
         21   -1    0    0  502  503 -0.00000000000E+00 -0.00000000000E+00 -0.42017509319E+02  0.42017509319E+02  0.00000000000E+00 0. -1.
         -6    2    1    2    0  503  0.11816781460E+03 -0.48905037370E+01  0.29828536126E+03  0.36394475457E+03  0.17173840049E+03 0.  0.
        -24    2    3    3    0    0  0.13230511191E+03  0.51139405378E+01  0.16699041313E+03  0.23142907442E+03  0.90237594074E+02 0.  0.
          6    2    1    2  501    0 -0.11816781460E+03  0.48905037370E+01  0.11619901656E+04  0.11803657909E+04  0.17045441035E+03 0.  0.
         24    2    5    5    0    0 -0.72435522537E+01 -0.21778355058E+02  0.68210827989E+03  0.68708682904E+03  0.79308507419E+02 0.  0.
          5    1    5    5  501    0 -0.11092426235E+03  0.26668858795E+02  0.47988188568E+03  0.49327896185E+03  0.47000000000E+01 0. -1.
        -11    1    6    6    0    0 -0.43381718790E+02 -0.13089049603E+02  0.38983243020E+03  0.39245715738E+03  0.00000000000E+00 0.  1.
         12    1    6    6    0    0  0.36138166537E+02 -0.86893054548E+01  0.29227584969E+03  0.29462967165E+03  0.00000000000E+00 0. -1.
         -5    1    3    3    0  503 -0.14137297308E+02 -0.10004444275E+02  0.13129494813E+03  0.13251568015E+03  0.47000000000E+01 0.  1.
         13    1    4    4    0    0  0.45172369698E+01  0.19232152546E+02 -0.11257826453E+01  0.19787584693E+02  0.00000000000E+00 0. -1.
        -14    1    4    4    0    0  0.12778787494E+03 -0.14118212009E+02  0.16811619578E+03  0.21164148973E+03  0.00000000000E+00 0.  1.
</event>
<event>
12    1  0.1032880E+000  0.1859290E+03  0.7818608E-02  0.1162311E+00
         21   -1    0    0  503  502  0.00000000000E+00  0.00000000000E+00  0.42104431193E+02  0.42104431193E+02  0.00000000000E+00 0. -1.
         21   -1    0    0  501  503 -0.00000000000E+00 -0.00000000000E+00 -0.82355781737E+03  0.82355781737E+03  0.00000000000E+00 0. -1.
          6    2    1    2  501    0 -0.18027004207E+02 -0.66586393756E+02 -0.42358100646E+03  0.46237295962E+03  0.17207313571E+03 0.  0.
         24    2    3    3    0    0 -0.72648882905E+02 -0.61231539392E+02 -0.23556634641E+03  0.26645505208E+03  0.80496146585E+02 0.  0.
         -6    2    1    2    0  502  0.18027004207E+02  0.66586393756E+02 -0.35787237972E+03  0.40328928895E+03  0.17265830331E+03 0.  0.
        -24    2    5    5    0    0  0.44442223356E+02  0.27248928577E+02 -0.33857802231E+03  0.35191261918E+03  0.80559288833E+02 0.  0.
          5    1    3    3  501    0  0.54621878698E+02 -0.53548543642E+01 -0.18801466005E+03  0.19591790753E+03  0.47000000000E+01 0. -1.
        -11    1    4    4    0    0 -0.40027300247E+01 -0.51765159204E+02 -0.13200315389E+03  0.14184669962E+03  0.00000000000E+00 0.  1.
         12    1    4    4    0    0 -0.68646152881E+02 -0.94663801887E+01 -0.10356319252E+03  0.12460835246E+03  0.00000000000E+00 0. -1.
         -5    1    5    5    0  502 -0.26415219149E+02  0.39337465180E+02 -0.19294357407E+02  0.51376669775E+02  0.47000000000E+01 0.  1.
         13    1    6    6    0    0  0.24485579728E+01  0.24113334934E+02 -0.22594598447E+02  0.33135543405E+02  0.00000000000E+00 0. -1.
        -14    1    6    6    0    0  0.41993665383E+02  0.31355936430E+01 -0.31598342386E+03  0.31877707577E+03  0.00000000000E+00 0.  1.
</event>
<event>
12    1  0.1032880E+000  0.2390682E+03  0.7818608E-02  0.1120565E+00
         21   -1    0    0  503  502  0.00000000000E+00  0.00000000000E+00  0.23580886328E+03  0.23580886328E+03  0.00000000000E+00 0. -1.
         21   -1    0    0  501  503 -0.00000000000E+00 -0.00000000000E+00 -0.25457796933E+03  0.25457796933E+03  0.00000000000E+00 0. -1.
          6    2    1    2  501    0 -0.13994272373E+03 -0.89410829137E+02 -0.65005935821E+02  0.24688852376E+03  0.17073344483E+03 0.  0.
         24    2    3    3    0    0 -0.16026426469E+03 -0.42179910481E+02 -0.74248956848E+02  0.19443618214E+03  0.69489149845E+02 0.  0.
         -6    2    1    2    0  502  0.13994272373E+03  0.89410829137E+02  0.46236829764E+02  0.24349830885E+03  0.17197476470E+03 0.  0.
        -24    2    5    5    0    0  0.27653585613E+02  0.48823333035E+02 -0.28315234808E+02  0.10265692391E+03  0.81168053190E+02 0.  0.
          5    1    3    3  501    0  0.20321540964E+02 -0.47230918657E+02  0.92430210262E+01  0.52452341625E+02  0.47000000000E+01 0. -1.
        -11    1    4    4    0    0 -0.13851018992E+02 -0.23004653427E+02  0.42772511621E+01  0.27191169226E+02  0.00000000000E+00 0.  1.
         12    1    4    4    0    0 -0.14641324570E+03 -0.19175257054E+02 -0.78526208010E+02  0.16724501291E+03  0.00000000000E+00 0. -1.
         -5    1    5    5    0  502  0.11228913812E+03  0.40587496103E+02  0.74552064573E+02  0.14084138494E+03  0.47000000000E+01 0.  1.
         13    1    6    6    0    0 -0.25463718239E+02  0.23237708173E+02  0.51617489119E+01  0.34857361913E+02  0.00000000000E+00 0. -1.
        -14    1    6    6    0    0  0.53117303852E+02  0.25585624861E+02 -0.33476983720E+02  0.67799561998E+02  0.00000000000E+00 0.  1.
</event>
<event>
12    1  0.1032880E+000  0.1738854E+03  0.7818608E-02  0.1174298E+00
         21   -1    0    0  501  502  0.00000000000E+00  0.00000000000E+00  0.42135103616E+02  0.42135103616E+02  0.00000000000E+00 0.  1.
         21   -1    0    0  502  503 -0.00000000000E+00 -0.00000000000E+00 -0.71714422508E+03  0.71714422508E+03  0.00000000000E+00 0.  1.
         -6    2    1    2    0  503 -0.98125387889E+01  0.11047995719E+02 -0.29913362372E+03  0.34513136224E+03  0.17151206441E+03 0.  0.
        -24    2    3    3    0    0  0.20174331819E+02  0.65772272515E+02 -0.22342804070E+03  0.24691026380E+03  0.79445537962E+02 0.  0.
          6    2    1    2  501    0  0.98125387889E+01 -0.11047995719E+02 -0.37587549775E+03  0.41414796646E+03  0.17325646939E+03 0.  0.
         24    2    5    5    0    0 -0.52430797543E+02 -0.18105212996E+02 -0.30705706504E+03  0.32097015840E+03  0.75239711087E+02 0.  0.
          5    1    5    5  501    0  0.62243336332E+02  0.70572172765E+01 -0.68818432712E+02  0.93177808057E+02  0.47000000000E+01 0. -1.
        -11    1    6    6    0    0  0.39157275975E+01 -0.31563232723E+01 -0.19126786467E+03  0.19133397857E+03  0.00000000000E+00 0.  1.
         12    1    6    6    0    0 -0.56346525140E+02 -0.14948889724E+02 -0.11578920037E+03  0.12963617983E+03  0.00000000000E+00 0. -1.
         -5    1    3    3    0  503 -0.29986870608E+02 -0.54724276796E+02 -0.75705583020E+02  0.98221098447E+02  0.47000000000E+01 0.  1.
         11    1    4    4    0    0  0.30657541983E+02 -0.43280199101E+01 -0.98783295640E+02  0.10352176648E+03  0.00000000000E+00 0. -1.
        -12    1    4    4    0    0 -0.10483210164E+02  0.70100292426E+02 -0.12464474506E+03  0.14338849732E+03  0.00000000000E+00 0.  1.
</event>
<event>
12    1  0.1032880E+000  0.2415585E+03  0.7818608E-02  0.1118793E+00
         21   -1    0    0  501  502  0.00000000000E+00  0.00000000000E+00  0.42478242881E+04  0.42478242881E+04  0.00000000000E+00 0.  1.
         21   -1    0    0  502  503 -0.00000000000E+00 -0.00000000000E+00 -0.22895489289E+02  0.22895489289E+02  0.00000000000E+00 0.  1.
         -6    2    1    2    0  503 -0.16882898930E+03 -0.88912682512E+01  0.34633631343E+04  0.34717624723E+04  0.17224454095E+03 0.  0.
        -24    2    3    3    0    0 -0.47338700270E+02 -0.48390543372E+01  0.74515020083E+03  0.75082881777E+03  0.78934927677E+02 0.  0.
          6    2    1    2  501    0  0.16882898930E+03  0.88912682512E+01  0.76156566455E+03  0.79895730511E+03  0.17253472603E+03 0.  0.
         24    2    5    5    0    0  0.18142389888E+03 -0.17501290242E+02  0.54140245985E+03  0.57681067427E+03  0.79831097773E+02 0.  0.
          5    1    5    5  501    0 -0.12594909579E+02  0.26392558494E+02  0.22016320469E+03  0.22214663084E+03  0.47000000000E+01 0. -1.
        -13    1    6    6    0    0  0.12541585433E+03  0.20110642325E+02  0.29170022619E+03  0.31815498804E+03  0.00000000000E+00 0.  1.
         14    1    6    6    0    0  0.56008044553E+02 -0.37611932567E+02  0.24970223366E+03  0.25865568623E+03  0.00000000000E+00 0. -1.
         -5    1    3    3    0  503 -0.12149028903E+03 -0.40522139141E+01  0.27182129335E+04  0.27209336545E+04  0.47000000000E+01 0.  1.
         11    1    4    4    0    0 -0.13160755851E+02  0.32398793318E+02  0.17612129126E+03  0.17955945127E+03  0.00000000000E+00 0. -1.
        -12    1    4    4    0    0 -0.34177944419E+02 -0.37237847655E+02  0.56902890957E+03  0.57126936650E+03  0.00000000000E+00 0.  1.
</event>
<event>
12    1  0.1032880E+000  0.3541319E+03  0.7818608E-02  0.1060952E+00
         21   -1    0    0  503  502  0.00000000000E+00  0.00000000000E+00  0.99064638604E+03  0.99064638604E+03  0.00000000000E+00 0. -1.
         21   -1    0    0  501  503 -0.00000000000E+00 -0.00000000000E+00 -0.48189361956E+03  0.48189361956E+03  0.00000000000E+00 0. -1.
          6    2    1    2  501    0  0.52334928443E+02  0.30505124643E+03  0.88666675690E+03  0.95477084244E+03  0.17208781508E+03 0.  0.
         24    2    3    3    0    0  0.58618060309E+02  0.13990943800E+03  0.60048968450E+03  0.62427015952E+03  0.78196183083E+02 0.  0.
         -6    2    1    2    0  502 -0.52334928443E+02 -0.30505124643E+03 -0.37791399042E+03  0.51776916316E+03  0.17167036576E+03 0.  0.
        -24    2    5    5    0    0 -0.74491408774E+02 -0.30976527864E+03 -0.36180596404E+03  0.48957891247E+03  0.85325600410E+02 0.  0.
          5    1    3    3  501    0 -0.62831318655E+01  0.16514180844E+03  0.28617707240E+03  0.33050068292E+03  0.47000000000E+01 0. -1.
        -13    1    4    4    0    0  0.24068801537E+02  0.12662024926E+03  0.39569275773E+03  0.41615472273E+03  0.00000000000E+00 0.  1.
         14    1    4    4    0    0  0.34549258771E+02  0.13289188740E+02  0.20479692677E+03  0.20811543679E+03  0.00000000000E+00 0. -1.
         -5    1    5    5    0  502  0.22156480331E+02  0.47140322077E+01 -0.16108026385E+02  0.28190250697E+02  0.47000000000E+01 0.  1.
         13    1    6    6    0    0 -0.45499082944E+02 -0.16379675385E+03 -0.12955351294E+03  0.21373735245E+03  0.00000000000E+00 0. -1.
        -14    1    6    6    0    0 -0.28992325831E+02 -0.14596852479E+03 -0.23225245110E+03  0.27584156001E+03  0.00000000000E+00 0.  1.
</event>
<event>
12    1  0.1032880E+000  0.1893560E+03  0.7818608E-02  0.1159081E+00
         21   -1    0    0  503  502  0.00000000000E+00  0.00000000000E+00  0.54971330723E+02  0.54971330723E+02  0.00000000000E+00 0.  1.
         21   -1    0    0  501  503 -0.00000000000E+00 -0.00000000000E+00 -0.81043982073E+03  0.81043982073E+03  0.00000000000E+00 0.  1.
          6    2    1    2  501    0  0.63419279403E+02 -0.48333221210E+02 -0.18609511126E+03  0.26537637680E+03  0.17156667991E+03 0.  0.
         24    2    3    3    0    0  0.96322756050E+02  0.62008266713E+01 -0.10740739535E+03  0.16403315903E+03  0.77807487420E+02 0.  0.
         -6    2    1    2    0  502 -0.63419279403E+02  0.48333221210E+02 -0.56937337875E+03  0.60003477466E+03  0.17174859854E+03 0.  0.
        -24    2    5    5    0    0 -0.73881535311E+02  0.73714541611E+01 -0.19374480408E+03  0.22200535614E+03  0.78971573683E+02 0.  0.
          5    1    3    3  501    0 -0.32903476647E+02 -0.54534047881E+02 -0.78687715906E+02  0.10134321777E+03  0.47000000000E+01 0. -1.
        -11    1    4    4    0    0  0.15231199698E+02  0.10825087585E+02 -0.73804597031E+02  0.76133373158E+02  0.00000000000E+00 0.  1.
         12    1    4    4    0    0  0.81091556351E+02 -0.46242609140E+01 -0.33602798324E+02  0.87899785868E+02  0.00000000000E+00 0. -1.
         -5    1    5    5    0  502  0.10462255908E+02  0.40961767048E+02 -0.37562857467E+03  0.37802941852E+03  0.47000000000E+01 0.  1.
         11    1    6    6    0    0 -0.70930732824E+01  0.27144391985E+02 -0.10773705970E+03  0.11133015646E+03  0.00000000000E+00 0. -1.
        -12    1    6    6    0    0 -0.66788462028E+02 -0.19772937824E+02 -0.86007744376E+02  0.11067519967E+03  0.00000000000E+00 0.  1.
</event>
<event>
12    1  0.1032880E+000  0.1770974E+03  0.7818608E-02  0.1170716E+00
         21   -1    0    0  503  502  0.00000000000E+00  0.00000000000E+00  0.44973030366E+03  0.44973030366E+03  0.00000000000E+00 0. -1.
         21   -1    0    0  501  503 -0.00000000000E+00 -0.00000000000E+00 -0.70241648872E+02  0.70241648872E+02  0.00000000000E+00 0. -1.
          6    2    1    2  501    0  0.27611432995E+02 -0.27680752829E+02  0.16514953289E+03  0.24193466338E+03  0.17242215004E+03 0.  0.
         24    2    3    3    0    0  0.77453302698E+02 -0.49702856108E+02  0.93697618149E+02  0.15195327015E+03  0.76427512442E+02 0.  0.
         -6    2    1    2    0  502 -0.27611432995E+02  0.27680752829E+02  0.21433912190E+03  0.27803728915E+03  0.17272770383E+03 0.  0.
        -24    2    5    5    0    0 -0.34573680737E+02 -0.38706813071E+02  0.18141277139E+03  0.20345836211E+03  0.76099636751E+02 0.  0.
          5    1    3    3  501    0 -0.49841869702E+02  0.22022103279E+02  0.71451914738E+02  0.89981393232E+02  0.47000000000E+01 0. -1.
        -13    1    4    4    0    0  0.50267179557E+02 -0.49477534906E+02  0.19868286968E+02  0.73277313188E+02  0.00000000000E+00 0.  1.
         14    1    4    4    0    0  0.27186123140E+02 -0.22532120120E+00  0.73829331181E+02  0.78675956961E+02  0.00000000000E+00 0. -1.
         -5    1    5    5    0  502  0.69622477418E+01  0.66387565900E+02  0.32926350512E+02  0.74578927036E+02  0.47000000000E+01 0.  1.
         11    1    6    6    0    0 -0.20941567731E+02 -0.32585588970E+02  0.24493225904E+02  0.45828898991E+02  0.00000000000E+00 0. -1.
        -12    1    6    6    0    0 -0.13632113006E+02 -0.61212241009E+01  0.15691954548E+03  0.15762946312E+03  0.00000000000E+00 0.  1.
</event>
<event>
12    1  0.1032880E+000  0.1827763E+03  0.7818608E-02  0.1165910E+00
         21   -1    0    0  501  502  0.00000000000E+00  0.00000000000E+00  0.12165436704E+03  0.12165436704E+03  0.00000000000E+00 0.  1.
         21   -1    0    0  502  503 -0.00000000000E+00 -0.00000000000E+00 -0.28204087582E+03  0.28204087582E+03  0.00000000000E+00 0.  1.
         -6    2    1    2    0  503 -0.17254199029E+02 -0.59117247197E+02 -0.37496559117E+02  0.18344742874E+03  0.16868435276E+03 0.  0.
        -24    2    3    3    0    0 -0.39861743329E+02 -0.19420722619E+02  0.33204550927E+02  0.99140536473E+02  0.82220318179E+02 0.  0.
          6    2    1    2  501    0  0.17254199029E+02  0.59117247197E+02 -0.12288994966E+03  0.22024781412E+03  0.17208894094E+03 0.  0.
         24    2    5    5    0    0  0.11214040782E+02 -0.35856341305E+02 -0.50077318000E+02  0.10033019508E+03  0.78402667972E+02 0.  0.
          5    1    5    5  501    0  0.60401582475E+01  0.94973588502E+02 -0.72812631665E+02  0.11991761903E+03  0.47000000000E+01 0. -1.
        -11    1    6    6    0    0  0.40655403389E+01 -0.27100656732E+02  0.17038683935E+02  0.32269040329E+02  0.00000000000E+00 0.  1.
         12    1    6    6    0    0  0.71485004430E+01 -0.87556845737E+01 -0.67116001934E+02  0.68061154755E+02  0.00000000000E+00 0. -1.
         -5    1    3    3    0  503  0.22607544300E+02 -0.39696524578E+02 -0.70701110043E+02  0.84306892270E+02  0.47000000000E+01 0.  1.
         11    1    4    4    0    0  0.11057512761E+02 -0.37340927565E+02  0.18950193592E+02  0.43309621299E+02  0.00000000000E+00 0. -1.
        -12    1    4    4    0    0 -0.50919256091E+02  0.17920204946E+02  0.14254357335E+02  0.55830915174E+02  0.00000000000E+00 0.  1.
</event>
<event>
12    1  0.1032880E+000  0.1890652E+03  0.7818608E-02  0.1159414E+00
         21   -1    0    0  503  502  0.00000000000E+00  0.00000000000E+00  0.91696678036E+02  0.91696678036E+02  0.00000000000E+00 0. -1.
         21   -1    0    0  501  503 -0.00000000000E+00 -0.00000000000E+00 -0.48157745957E+03  0.48157745957E+03  0.00000000000E+00 0. -1.
          6    2    1    2  501    0 -0.31064883266E+02 -0.71076621611E+02 -0.68970007816E+02  0.20081020335E+03  0.17190393445E+03 0.  0.
         24    2    3    3    0    0 -0.54124757002E+02 -0.10367261099E+03 -0.72808848501E+02  0.16042353478E+03  0.82201475048E+02 0.  0.
         -6    2    1    2    0  502  0.31064883266E+02  0.71076621611E+02 -0.32091077372E+03  0.37246393426E+03  0.17242025554E+03 0.  0.
        -24    2    5    5    0    0 -0.12482389088E+02  0.89328775322E+02 -0.14130154792E+03  0.18669238090E+03  0.82173459852E+02 0.  0.
          5    1    3    3  501    0  0.23059873736E+02  0.32595989382E+02  0.38388406850E+01  0.40386668572E+02  0.47000000000E+01 0. -1.
        -13    1    4    4    0    0 -0.44537539305E+02 -0.43146413714E+02 -0.77159080106E+02  0.98988529975E+02  0.00000000000E+00 0.  1.
         14    1    4    4    0    0 -0.95872176970E+01 -0.60526197279E+02  0.43502316048E+01  0.61435004804E+02  0.00000000000E+00 0. -1.
         -5    1    5    5    0  502  0.43547272354E+02 -0.18252153711E+02 -0.17960922579E+03  0.18577155335E+03  0.47000000000E+01 0.  1.
         11    1    6    6    0    0 -0.28258370475E+02 -0.21756213290E+01 -0.24378734340E+02  0.37384375320E+02  0.00000000000E+00 0. -1.
        -12    1    6    6    0    0  0.15775981386E+02  0.91504396651E+02 -0.11692281358E+03  0.14930800558E+03  0.00000000000E+00 0.  1.
</event>
<event>
12    1  0.1032880E+000  0.3082902E+03  0.7818608E-02  0.1081223E+00
         21   -1    0    0  503  502  0.00000000000E+00  0.00000000000E+00  0.12204144017E+03  0.12204144017E+03  0.00000000000E+00 0.  1.
         21   -1    0    0  501  503 -0.00000000000E+00 -0.00000000000E+00 -0.79979379330E+03  0.79979379330E+03  0.00000000000E+00 0.  1.
          6    2    1    2  501    0  0.18013752276E+03 -0.18164323511E+03 -0.26190171578E+03  0.40417259920E+03  0.17122847090E+03 0.  0.
         24    2    3    3    0    0  0.10654729606E+03 -0.11444844044E+03 -0.72545040401E+02  0.19014292274E+03  0.80254447613E+02 0.  0.
         -6    2    1    2    0  502 -0.18013752276E+03  0.18164323511E+03 -0.41585063735E+03  0.51766263427E+03  0.17204376878E+03 0.  0.
        -24    2    5    5    0    0 -0.89627223222E+02  0.17298015241E+03 -0.33584166007E+03  0.39645747857E+03  0.80210594108E+02 0.  0.
          5    1    3    3  501    0  0.73590226691E+02 -0.67194794665E+02 -0.18935667538E+03  0.21402967646E+03  0.47000000000E+01 0. -1.
        -11    1    4    4    0    0  0.12272632015E+01 -0.14279619672E+02 -0.38188502696E+02  0.40789403662E+02  0.00000000000E+00 0.  1.
         12    1    4    4    0    0  0.10532003286E+03 -0.10016882077E+03 -0.34356537705E+02  0.14935351907E+03  0.00000000000E+00 0. -1.
         -5    1    5    5    0  502 -0.90510299534E+02  0.86630827025E+01 -0.80008977273E+02  0.12120515570E+03  0.47000000000E+01 0.  1.
         13    1    6    6    0    0 -0.75035693813E+01  0.97045111669E+02 -0.18000589561E+03  0.20463670176E+03  0.00000000000E+00 0. -1.
        -14    1    6    6    0    0 -0.82123653840E+02  0.75935040737E+02 -0.15583576446E+03  0.19182077681E+03  0.00000000000E+00 0.  1.
</event>
<event>
12    1  0.1032880E+000  0.1822398E+03  0.7818608E-02  0.1165736E+00
         21   -1    0    0  503  502  0.00000000000E+00  0.00000000000E+00  0.40594655576E+03  0.40594655576E+03  0.00000000000E+00 0.  1.
         21   -1    0    0  501  503 -0.00000000000E+00 -0.00000000000E+00 -0.10540682872E+03  0.10540682872E+03  0.00000000000E+00 0.  1.
          6    2    1    2  501    0  0.10907749515E+02  0.57533185850E+02  0.27152521940E+03  0.32681831929E+03  0.17220691793E+03 0.  0.
         24    2    3    3    0    0 -0.70089483473E+01 -0.33979899639E+02  0.10537572177E+03  0.13623133537E+03  0.79064372898E+02 0.  0.
         -6    2    1    2    0  502 -0.10907749515E+02 -0.57533185850E+02  0.29014507638E+02  0.18453506518E+03  0.17257549697E+03 0.  0.
        -24    2    5    5    0    0 -0.12741483777E+02  0.17272766552E+01 -0.42638465671E+02  0.91414693715E+02  0.79832816428E+02 0.  0.
          5    1    3    3  501    0  0.17916697862E+02  0.91513085488E+02  0.16614949763E+03  0.19058698392E+03  0.47000000000E+01 0. -1.
        -13    1    4    4    0    0 -0.40478503830E+02 -0.83676698054E+01  0.69603119957E+02  0.80951352540E+02  0.00000000000E+00 0.  1.
         14    1    4    4    0    0  0.33469555482E+02 -0.25612229833E+02  0.35772601812E+02  0.55279982829E+02  0.00000000000E+00 0. -1.
         -5    1    5    5    0  502  0.18337342616E+01 -0.59260462505E+02  0.71652973309E+02  0.93120371464E+02  0.47000000000E+01 0.  1.
         13    1    6    6    0    0 -0.16321352203E+02 -0.27383616606E+02  0.80254310350E+01  0.32873340863E+02  0.00000000000E+00 0. -1.
        -14    1    6    6    0    0  0.35798684258E+01  0.29110893262E+02 -0.50663896706E+02  0.58541352853E+02  0.00000000000E+00 0.  1.
</event>
<event>
12    1  0.1032880E+000  0.3887802E+03  0.7818608E-02  0.1047765E+00
         21   -1    0    0  501  502  0.00000000000E+00  0.00000000000E+00  0.75892461310E+03  0.75892461310E+03  0.00000000000E+00 0. -1.
         21   -1    0    0  502  503 -0.00000000000E+00 -0.00000000000E+00 -0.36620902879E+03  0.36620902879E+03  0.00000000000E+00 0. -1.
         -6    2    1    2    0  503 -0.34865338776E+03 -0.23959493151E+01 -0.18374142730E+03  0.43001272814E+03  0.17200322348E+03 0.  0.
        -24    2    3    3    0    0 -0.69045178783E+02  0.26251195761E+02 -0.28221239269E+02  0.10874955202E+03  0.74656980422E+02 0.  0.
          6    2    1    2  501    0  0.34865338776E+03  0.23959493151E+01  0.57645701162E+03  0.69512091374E+03  0.17124681927E+03 0.  0.
         24    2    5    5    0    0  0.33188523963E+03  0.44547096712E+02  0.52797890506E+03  0.62856186602E+03  0.64776840880E+02 0.  0.
          5    1    5    5  501    0  0.16768148130E+02 -0.42151147397E+02  0.48478106560E+02  0.66559047726E+02  0.47000000000E+01 0. -1.
        -13    1    6    6    0    0  0.47157815502E+02  0.56430456464E+01  0.12411081844E+03  0.13288791811E+03  0.00000000000E+00 0.  1.
         14    1    6    6    0    0  0.28472742413E+03  0.38904051065E+02  0.40386808662E+03  0.49567394790E+03  0.00000000000E+00 0. -1.
         -5    1    3    3    0  503 -0.27960820898E+03 -0.28647145076E+02 -0.15552018803E+03  0.32126317613E+03  0.47000000000E+01 0.  1.
         13    1    4    4    0    0 -0.68883871113E+02  0.47402128384E+02 -0.25524266380E+02  0.87426755911E+02  0.00000000000E+00 0. -1.
        -14    1    4    4    0    0 -0.16130767078E+00 -0.21150932623E+02 -0.26969728892E+01  0.21322796106E+02  0.00000000000E+00 0.  1.
</event>
<event>
12    1  0.1032880E+000  0.1888658E+03  0.7818608E-02  0.1159642E+00
         21   -1    0    0  501  502  0.00000000000E+00  0.00000000000E+00  0.11191176219E+03  0.11191176219E+03  0.00000000000E+00 0. -1.
         21   -1    0    0  502  503 -0.00000000000E+00 -0.00000000000E+00 -0.37447447060E+03  0.37447447060E+03  0.00000000000E+00 0. -1.
         -6    2    1    2    0  503 -0.57144006085E+02 -0.52214454027E+02 -0.22625988619E+03  0.29472667753E+03  0.17227446622E+03 0.  0.
        -24    2    3    3    0    0 -0.75216584561E+02 -0.84025298107E+02 -0.21587200015E+03  0.25640506392E+03  0.80156416067E+02 0.  0.
          6    2    1    2  501    0  0.57144006085E+02  0.52214454027E+02 -0.36302822222E+02  0.19165955525E+03  0.17153338911E+03 0.  0.
         24    2    5    5    0    0  0.97333028616E+02  0.70153353473E+02 -0.32761184542E+02  0.14725691071E+03  0.78842190962E+02 0.  0.
          5    1    5    5  501    0 -0.40189022530E+02 -0.17938899447E+02 -0.35416376798E+01  0.44402644547E+02  0.47000000000E+01 0. -1.
        -11    1    6    6    0    0  0.46232192879E+02 -0.72956562546E+01  0.50179988890E+01  0.47072524592E+02  0.00000000000E+00 0.  1.
         12    1    6    6    0    0  0.51100835737E+02  0.77449009728E+02 -0.37779183431E+02  0.10018438612E+03  0.00000000000E+00 0. -1.
         -5    1    3    3    0  503  0.18072578475E+02  0.31810844080E+02 -0.10387886036E+02  0.38321613616E+02  0.47000000000E+01 0.  1.
         13    1    4    4    0    0 -0.54723886005E+02 -0.73512411360E+02 -0.90015352301E+02  0.12845832777E+03  0.00000000000E+00 0. -1.
        -14    1    4    4    0    0 -0.20492698555E+02 -0.10512886747E+02 -0.12585664785E+03  0.12794673615E+03  0.00000000000E+00 0.  1.
</event>
<event>
12    1  0.1032880E+000  0.2205928E+03  0.7818608E-02  0.1136118E+00
         21   -1    0    0  501  502  0.00000000000E+00  0.00000000000E+00  0.81842905085E+03  0.81842905085E+03  0.00000000000E+00 0. -1.
         21   -1    0    0  502  503 -0.00000000000E+00 -0.00000000000E+00 -0.60499032220E+02  0.60499032220E+02  0.00000000000E+00 0. -1.
         -6    2    1    2    0  503  0.48025822800E+02  0.10286286467E+03  0.51320289098E+03  0.55860398327E+03  0.18914003868E+03 0.  0.
        -24    2    3    3    0    0 -0.24631489024E+02  0.72471898609E+02  0.14456804041E+03  0.18162064301E+03  0.78912947732E+02 0.  0.
          6    2    1    2  501    0 -0.48025822800E+02 -0.10286286467E+03  0.24472712765E+03  0.32032409980E+03  0.17271048990E+03 0.  0.
         24    2    5    5    0    0 -0.58650070834E+02 -0.10524376811E+03  0.10128191901E+03  0.17638952706E+03  0.79618820659E+02 0.  0.
          5    1    5    5  501    0  0.10624248034E+02  0.23809034402E+01  0.14344520864E+03  0.14393457274E+03  0.47000000000E+01 0. -1.
        -11    1    6    6    0    0 -0.50108334851E+01 -0.85504802389E+02  0.73381040769E+02  0.11278721926E+03  0.00000000000E+00 0.  1.
         12    1    6    6    0    0 -0.53639237349E+02 -0.19738965724E+02  0.27900878243E+02  0.63602307803E+02  0.00000000000E+00 0. -1.
         -5    1    3    3    0  503  0.72657311824E+02  0.30390966064E+02  0.36863485057E+03  0.37698334026E+03  0.47000000000E+01 0.  1.
         13    1    4    4    0    0 -0.18694416053E+02 -0.12531094912E+02  0.16970636412E+02  0.28187089801E+02  0.00000000000E+00 0. -1.
        -14    1    4    4    0    0 -0.59370729710E+01  0.85002993521E+02  0.12759740400E+03  0.15343355321E+03  0.00000000000E+00 0.  1.
</event>
<event>
12    1  0.1032880E+000  0.4390704E+03  0.7818608E-02  0.1031128E+00
         21   -1    0    0  503  502  0.00000000000E+00  0.00000000000E+00  0.54866819309E+03  0.54866819309E+03  0.00000000000E+00 0. -1.
         21   -1    0    0  501  503 -0.00000000000E+00 -0.00000000000E+00 -0.44625840090E+03  0.44625840090E+03  0.00000000000E+00 0. -1.
          6    2    1    2  501    0  0.16356468765E+03  0.36862776523E+03  0.28185880224E+03  0.52175395163E+03  0.17361729550E+03 0.  0.
         24    2    3    3    0    0  0.17904325686E+03  0.32726351562E+03  0.28706632749E+03  0.47703487774E+03  0.77442247623E+02 0.  0.
         -6    2    1    2    0  502 -0.16356468765E+03 -0.36862776523E+03 -0.17944901005E+03  0.47317264236E+03  0.17044226568E+03 0.  0.
        -24    2    5    5    0    0 -0.10513526442E+03 -0.21636802322E+03 -0.35989046158E+02  0.25591731383E+03  0.79560761557E+02 0.  0.
          5    1    3    3  501    0 -0.15478569205E+02  0.41364249606E+02 -0.52075252541E+01  0.44719073888E+02  0.47000000000E+01 0. -1.
        -11    1    4    4    0    0  0.16671100365E+02  0.85408434749E+02  0.43329730999E+02  0.97211068825E+02  0.00000000000E+00 0.  1.
         12    1    4    4    0    0  0.16237215649E+03  0.24185508087E+03  0.24373659649E+03  0.37982380891E+03  0.00000000000E+00 0. -1.
         -5    1    5    5    0  502 -0.58429423229E+02 -0.15225974201E+03 -0.14345996389E+03  0.21725532853E+03  0.47000000000E+01 0.  1.
         11    1    6    6    0    0 -0.25079462270E+02 -0.40271089910E+01 -0.10769350431E+02  0.27589417233E+02  0.00000000000E+00 0. -1.
        -12    1    6    6    0    0 -0.80055802154E+02 -0.21234091423E+03 -0.25219695727E+02  0.22832789660E+03  0.00000000000E+00 0.  1.
</event>
<event>
12    1  0.1032880E+000  0.2183123E+03  0.7818608E-02  0.1135226E+00
         21   -1    0    0  501  502  0.00000000000E+00  0.00000000000E+00  0.81243278481E+03  0.81243278481E+03  0.00000000000E+00 0. -1.
         21   -1    0    0  502  503 -0.00000000000E+00 -0.00000000000E+00 -0.58601103425E+02  0.58601103425E+02  0.00000000000E+00 0. -1.
         -6    2    1    2    0  503 -0.11539148757E+03  0.69229211049E+02  0.38923650871E+03  0.44607519494E+03  0.17137718856E+03 0.  0.
        -24    2    3    3    0    0 -0.64990882808E+02 -0.20597360134E+02  0.26692175132E+03  0.28610012273E+03  0.77188035403E+02 0.  0.
          6    2    1    2  501    0  0.11539148757E+03 -0.69229211049E+02  0.36459517267E+03  0.42495869330E+03  0.17190803356E+03 0.  0.
         24    2    5    5    0    0 -0.10673366326E+01 -0.55783423930E+02  0.20033854267E+03  0.22310286002E+03  0.80786291396E+02 0.  0.
          5    1    5    5  501    0  0.11645882421E+03 -0.13445787119E+02  0.16425663000E+03  0.20185583328E+03  0.47000000000E+01 0. -1.
        -13    1    6    6    0    0  0.25385442115E+02 -0.17763076264E+02  0.19920697936E+02  0.36834518539E+02  0.00000000000E+00 0.  1.
         14    1    6    6    0    0 -0.26452778747E+02 -0.38020347665E+02  0.18041784473E+03  0.18626834148E+03  0.00000000000E+00 0. -1.
         -5    1    3    3    0  503 -0.50400604766E+02  0.89826571183E+02  0.12231475740E+03  0.15997507221E+03  0.47000000000E+01 0.  1.
         13    1    4    4    0    0 -0.21787438973E+02 -0.11607230954E+01  0.85705546631E+01  0.23441292250E+02  0.00000000000E+00 0. -1.
        -14    1    4    4    0    0 -0.43203443834E+02 -0.19436637038E+02  0.25835119665E+03  0.26265883048E+03  0.00000000000E+00 0.  1.
</event>
<event>
12    1  0.1032880E+000  0.1954787E+03  0.7818608E-02  0.1153825E+00
         21   -1    0    0  503  502  0.00000000000E+00  0.00000000000E+00  0.57653328266E+03  0.57653328266E+03  0.00000000000E+00 0.  1.
         21   -1    0    0  501  503 -0.00000000000E+00 -0.00000000000E+00 -0.24507873869E+03  0.24507873869E+03  0.00000000000E+00 0.  1.
          6    2    1    2  501    0  0.22532324221E+02  0.86619447284E+02 -0.18537429791E+03  0.26939847282E+03  0.17378513328E+03 0.  0.
         24    2    3    3    0    0  0.16484554068E+02  0.10841333328E+03 -0.20038193767E+03  0.24185090956E+03  0.79459109968E+02 0.  0.
         -6    2    1    2    0  502 -0.22532324221E+02 -0.86619447284E+02  0.51682884188E+03  0.55221354853E+03  0.17267633623E+03 0.  0.
        -24    2    5    5    0    0  0.35936600504E+01 -0.76055979735E+02  0.51141060060E+03  0.52313432503E+03  0.79569423613E+02 0.  0.
          5    1    3    3  501    0  0.60477701524E+01 -0.21793885993E+02  0.15007639756E+02  0.27547563259E+02  0.47000000000E+01 0. -1.
        -13    1    4    4    0    0  0.15109819171E+02  0.34673326802E+01  0.16144112056E+00  0.15503389775E+02  0.00000000000E+00 0.  1.
         14    1    4    4    0    0  0.13747348977E+01  0.10494600060E+03 -0.20054337879E+03  0.22634751979E+03  0.00000000000E+00 0. -1.
         -5    1    5    5    0  502 -0.26125984271E+02 -0.10563467549E+02  0.54182412860E+01  0.29079223501E+02  0.47000000000E+01 0.  1.
         11    1    6    6    0    0  0.17423290006E+02 -0.88950711161E+02  0.44173611916E+03  0.45093968446E+03  0.00000000000E+00 0. -1.
        -12    1    6    6    0    0 -0.13829629956E+02  0.12894731426E+02  0.69674481434E+02  0.72194640566E+02  0.00000000000E+00 0.  1.
</event>
<event>
12    1  0.1032880E+000  0.2343925E+03  0.7818608E-02  0.1124682E+00
         21   -1    0    0  501  502  0.00000000000E+00  0.00000000000E+00  0.14341718747E+03  0.14341718747E+03  0.00000000000E+00 0.  1.
         21   -1    0    0  502  503 -0.00000000000E+00 -0.00000000000E+00 -0.52036892717E+03  0.52036892717E+03  0.00000000000E+00 0.  1.
         -6    2    1    2    0  503 -0.15575399238E+03  0.32202377517E+02 -0.36700803150E+03  0.43547070975E+03  0.17217300776E+03 0.  0.
        -24    2    3    3    0    0 -0.17529892859E+03  0.58188005157E+02 -0.30897499671E+03  0.36878352581E+03  0.80126038269E+02 0.  0.
          6    2    1    2  501    0  0.15575399238E+03 -0.32202377517E+02 -0.99437082038E+01  0.22831540489E+03  0.16350152145E+03 0.  0.
         24    2    5    5    0    0  0.17167321059E+02  0.31253768940E+01 -0.23170867756E+02  0.84609582289E+02  0.79482120061E+02 0.  0.
          5    1    5    5  501    0  0.13858667133E+03 -0.35327754411E+02  0.13227159553E+02  0.14370582261E+03  0.47000000000E+01 0. -1.
        -11    1    6    6    0    0  0.51930969110E+01  0.36846524600E+02  0.69280949592E+01  0.37850140428E+02  0.00000000000E+00 0.  1.
         12    1    6    6    0    0  0.11974224148E+02 -0.33721147706E+02 -0.30098962716E+02  0.46759441861E+02  0.00000000000E+00 0. -1.
         -5    1    3    3    0  503  0.19544936201E+02 -0.25985627641E+02 -0.58033034785E+02  0.66687183936E+02  0.47000000000E+01 0.  1.
         11    1    4    4    0    0 -0.13315345666E+03  0.32111704343E+02 -0.15411045440E+03  0.20618204755E+03  0.00000000000E+00 0. -1.
        -12    1    4    4    0    0 -0.42145471930E+02  0.26076300815E+02 -0.15486454231E+03  0.16260147826E+03  0.00000000000E+00 0.  1.
</event>
<event>
12    1  0.1032880E+000  0.2260525E+03  0.7818608E-02  0.1129467E+00
         21   -1    0    0  503  502  0.00000000000E+00  0.00000000000E+00  0.75406503661E+03  0.75406503661E+03  0.00000000000E+00 0. -1.
         21   -1    0    0  501  503 -0.00000000000E+00 -0.00000000000E+00 -0.68288186150E+02  0.68288186150E+02  0.00000000000E+00 0. -1.
          6    2    1    2  501    0  0.10661898236E+02 -0.14583679109E+03  0.30598483726E+03  0.38042930040E+03  0.17238818481E+03 0.  0.
         24    2    3    3    0    0  0.35670364460E+02 -0.21390186520E+02  0.70691023964E+02  0.11303885677E+03  0.77785906760E+02 0.  0.
         -6    2    1    2    0  502 -0.10661898236E+02  0.14583679109E+03  0.37979201320E+03  0.44192392235E+03  0.17225775497E+03 0.  0.
        -24    2    5    5    0    0 -0.96743957418E+01  0.25558982288E+02  0.70643961231E+02  0.11016748385E+03  0.79996560745E+02 0.  0.
          5    1    3    3  501    0 -0.25008466223E+02 -0.12444660457E+03  0.23529381329E+03  0.26739044364E+03  0.47000000000E+01 0. -1.
        -11    1    4    4    0    0 -0.95824599946E+00 -0.16593697451E+02  0.74099333117E+02  0.75940636018E+02  0.00000000000E+00 0.  1.
         12    1    4    4    0    0  0.36628610459E+02 -0.47964890688E+01 -0.34083091530E+01  0.37098220751E+02  0.00000000000E+00 0. -1.
         -5    1    5    5    0  502 -0.98750249473E+00  0.12027780881E+03  0.30914805197E+03  0.33175643850E+03  0.47000000000E+01 0.  1.
         13    1    6    6    0    0  0.69956788717E+01 -0.23367603472E+02  0.47783542675E+02  0.53649337046E+02  0.00000000000E+00 0. -1.
        -14    1    6    6    0    0 -0.16670074613E+02  0.48926585760E+02  0.22860418556E+02  0.56518146805E+02  0.00000000000E+00 0.  1.
</event>
<event>
12    1  0.1032880E+000  0.2078395E+03  0.7818608E-02  0.1143541E+00
         21   -1    0    0  501  502  0.00000000000E+00  0.00000000000E+00  0.95569488400E+02  0.95569488400E+02  0.00000000000E+00 0.  1.
         21   -1    0    0  502  503 -0.00000000000E+00 -0.00000000000E+00 -0.46155065268E+03  0.46155065268E+03  0.00000000000E+00 0. -1.
         -6    2    1    2    0  503 -0.11000113254E+03 -0.32094806876E+02 -0.22788035154E+03  0.30758239327E+03  0.17189283942E+03 0.  0.
        -24    2    3    3    0    0 -0.14440011895E+03 -0.10460868130E+02 -0.18914588666E+03  0.25124620294E+03  0.79922862419E+02 0.  0.
          6    2    1    2  501    0  0.11000113254E+03  0.32094806876E+02 -0.13810081273E+03  0.24953774781E+03  0.17339817564E+03 0.  0.
         24    2    5    5    0    0  0.54443127249E+02  0.82496353206E+02 -0.11430971808E+03  0.17070175343E+03  0.79389385810E+02 0.  0.
          5    1    5    5  501    0  0.55558005291E+02 -0.50401546330E+02 -0.23791094651E+02  0.78835994374E+02  0.47000000000E+01 0. -1.
        -11    1    6    6    0    0  0.27400329382E+02 -0.52956903026E+01 -0.57550567353E+01  0.28494614650E+02  0.00000000000E+00 0.  1.
         12    1    6    6    0    0  0.27042797867E+02  0.87792043509E+02 -0.10855466135E+03  0.14220713878E+03  0.00000000000E+00 0. -1.
         -5    1    3    3    0  503  0.34398986406E+02 -0.21633938746E+02 -0.38734464884E+02  0.56336190333E+02  0.47000000000E+01 0.  1.
         13    1    4    4    0    0 -0.85878477471E+02 -0.42925741858E+02 -0.13213108032E+03  0.16332897659E+03  0.00000000000E+00 0. -1.
        -14    1    4    4    0    0 -0.58521641475E+02  0.32464873729E+02 -0.57014806336E+02  0.87917226347E+02  0.00000000000E+00 0.  1.
</event>
<event>
12    1  0.1032880E+000  0.2015597E+03  0.7818608E-02  0.1152994E+00
         21   -1    0    0  501  502  0.00000000000E+00  0.00000000000E+00  0.12748698682E+04  0.12748698682E+04  0.00000000000E+00 0. -1.
         21   -1    0    0  502  503 -0.00000000000E+00 -0.00000000000E+00 -0.62891773203E+02  0.62891773203E+02  0.00000000000E+00 0. -1.
         -6    2    1    2    0  503  0.15370425386E+02 -0.55132023792E+02  0.11138536389E+04  0.11319435688E+04  0.19326283639E+03 0.  0.
        -24    2    3    3    0    0  0.75475306878E+02 -0.28742923572E+02  0.92661684140E+03  0.93347772855E+03  0.78988741815E+02 0.  0.
          6    2    1    2  501    0 -0.15370425386E+02  0.55132023792E+02  0.98124456015E+02  0.20581807257E+03  0.17163006760E+03 0.  0.
         24    2    5    5    0    0 -0.46471281085E+02  0.52171570610E+02  0.12652584833E+03  0.16333564569E+03  0.76080813023E+02 0.  0.
          5    1    5    5  501    0  0.31100855698E+02  0.29604531821E+01 -0.28401392316E+02  0.42482426881E+02  0.47000000000E+01 0. -1.
        -11    1    6    6    0    0 -0.65184778138E+02  0.40064070504E+02  0.74749993769E+02  0.10696610031E+03  0.00000000000E+00 0.  1.
         12    1    6    6    0    0  0.18713497053E+02  0.12107500107E+02  0.51775854562E+02  0.56369545380E+02  0.00000000000E+00 0. -1.
         -5    1    3    3    0  503 -0.60104881491E+02 -0.26389100221E+02  0.18723679754E+03  0.19846584024E+03  0.47000000000E+01 0.  1.
         11    1    4    4    0    0  0.41851526416E+02  0.16580950670E+02  0.62552749059E+03  0.62714521419E+03  0.00000000000E+00 0. -1.
        -12    1    4    4    0    0  0.33623780462E+02 -0.45323874242E+02  0.30108935080E+03  0.30633251436E+03  0.00000000000E+00 0.  1.
</event>
<event>
12    1  0.1032880E+000  0.1728041E+03  0.7818608E-02  0.1175051E+00
         21   -1    0    0  503  502  0.00000000000E+00  0.00000000000E+00  0.15079448894E+04  0.15079448894E+04  0.00000000000E+00 0.  1.
         21   -1    0    0  501  503 -0.00000000000E+00 -0.00000000000E+00 -0.20846577241E+02  0.20846577241E+02  0.00000000000E+00 0.  1.
          6    2    1    2  501    0 -0.21151905166E+02  0.35107978714E+01  0.56975671976E+03  0.59538557620E+03  0.17146876055E+03 0.  0.
         24    2    3    3    0    0 -0.77606609673E+02  0.21258587459E+02  0.40167451091E+03  0.41712779480E+03  0.78603251073E+02 0.  0.
         -6    2    1    2    0  502  0.21151905166E+02 -0.35107978714E+01  0.91734159244E+03  0.93340589048E+03  0.17108837005E+03 0.  0.
        -24    2    5    5    0    0 -0.91004163278E+01 -0.65128779328E+02  0.58712588292E+03  0.59609819207E+03  0.79320090244E+02 0.  0.
          5    1    3    3  501    0  0.56454704507E+02 -0.17747789588E+02  0.16808220885E+03  0.17825778140E+03  0.47000000000E+01 0. -1.
        -13    1    4    4    0    0  0.29824048918E+01 -0.14669201557E+02  0.17869225769E+02  0.23310715194E+02  0.00000000000E+00 0.  1.
         14    1    4    4    0    0 -0.80589014565E+02  0.35927789017E+02  0.38380528514E+03  0.39381707961E+03  0.00000000000E+00 0. -1.
         -5    1    5    5    0  502  0.30252321494E+02  0.61617981457E+02  0.33021570952E+03  0.33730769841E+03  0.47000000000E+01 0.  1.
         13    1    6    6    0    0  0.14249679713E+02  0.13026111828E+02  0.71512528949E+02  0.74072766642E+02  0.00000000000E+00 0. -1.
        -14    1    6    6    0    0 -0.23350096041E+02 -0.78154891156E+02  0.51561335398E+03  0.52202542543E+03  0.00000000000E+00 0.  1.
</event>
<event>
12    1  0.1032880E+000  0.1782965E+03  0.7818608E-02  0.1169827E+00
         21   -1    0    0  503  502  0.00000000000E+00  0.00000000000E+00  0.21536342006E+03  0.21536342006E+03  0.00000000000E+00 0.  1.
         21   -1    0    0  501  503 -0.00000000000E+00 -0.00000000000E+00 -0.27510883444E+03  0.27510883444E+03  0.00000000000E+00 0.  1.
          6    2    1    2  501    0  0.13329242904E+01  0.39374369413E+02 -0.19768897079E+03  0.26621527771E+03  0.17388941101E+03 0.  0.
         24    2    3    3    0    0 -0.74322065846E+01 -0.32245394253E+02 -0.45745632126E+02  0.97944406104E+02  0.80033997046E+02 0.  0.
         -6    2    1    2    0  502 -0.13329242904E+01 -0.39374369413E+02  0.13794355640E+03  0.22425697679E+03  0.17236777318E+03 0.  0.
        -24    2    5    5    0    0  0.30031155775E+02 -0.68699721100E+02  0.38163927621E+02  0.11552912346E+03  0.79176833731E+02 0.  0.
          5    1    3    3  501    0  0.87651308750E+01  0.71619763666E+02 -0.15194333866E+03  0.16827087161E+03  0.47000000000E+01 0. -1.
        -13    1    4    4    0    0  0.19907133379E+02 -0.35436184072E+02 -0.55456785170E+02  0.68756615117E+02  0.00000000000E+00 0.  1.
         14    1    4    4    0    0 -0.27339339963E+02  0.31907898184E+01  0.97111530439E+01  0.29187790987E+02  0.00000000000E+00 0. -1.
         -5    1    5    5    0  502 -0.31364080066E+02  0.29325351686E+02  0.99779628781E+02  0.10872785333E+03  0.47000000000E+01 0.  1.
         11    1    6    6    0    0  0.23046842063E+02 -0.52401430458E+02 -0.15255622621E+02  0.59243572349E+02  0.00000000000E+00 0. -1.
        -12    1    6    6    0    0  0.69843137125E+01 -0.16298290642E+02  0.53419550242E+02  0.56285551111E+02  0.00000000000E+00 0.  1.
</event>
<event>
12    1  0.1032880E+000  0.1828585E+03  0.7818608E-02  0.1165808E+00
         21   -1    0    0  501  502  0.00000000000E+00  0.00000000000E+00  0.54109445960E+03  0.54109445960E+03  0.00000000000E+00 0.  1.
         21   -1    0    0  502  503 -0.00000000000E+00 -0.00000000000E+00 -0.98679405952E+02  0.98679405952E+02  0.00000000000E+00 0.  1.
         -6    2    1    2    0  503 -0.11640981287E+02 -0.58526569585E+02  0.41835714770E+03  0.45533959632E+03  0.16955993970E+03 0.  0.
        -24    2    3    3    0    0  0.49807139198E+02 -0.59699259139E+02  0.20590335432E+03  0.23412487928E+03  0.79834297905E+02 0.  0.
          6    2    1    2  501    0  0.11640981287E+02  0.58526569585E+02  0.24057905944E+02  0.18443426923E+03  0.17284775103E+03 0.  0.
         24    2    5    5    0    0 -0.29617333979E+02 -0.68336140418E+01  0.56185506266E+02  0.10059826930E+03  0.77713035702E+02 0.  0.
          5    1    5    5  501    0  0.41258315267E+02  0.65360183627E+02 -0.32127600322E+02  0.83835999933E+02  0.47000000000E+01 0. -1.
        -11    1    6    6    0    0 -0.48616110686E+02  0.70688732294E+01  0.12060952367E+02  0.50586181502E+02  0.00000000000E+00 0.  1.
         12    1    6    6    0    0  0.18998776707E+02 -0.13902487271E+02  0.44124553899E+02  0.50012087793E+02  0.00000000000E+00 0. -1.
         -5    1    3    3    0  503 -0.61448120486E+02  0.11726895545E+01  0.21245379338E+03  0.22121471704E+03  0.47000000000E+01 0.  1.
         13    1    4    4    0    0  0.50656882315E+02 -0.12187926591E+02  0.15915204076E+03  0.16746354038E+03  0.00000000000E+00 0. -1.
        -14    1    4    4    0    0 -0.84974311641E+00 -0.47511332549E+02  0.46751313557E+02  0.66661338895E+02  0.00000000000E+00 0.  1.
</event>
<event>
12    1  0.1032880E+000  0.3936868E+03  0.7818608E-02  0.1046039E+00
         21   -1    0    0  503  502  0.00000000000E+00  0.00000000000E+00  0.71157837973E+03  0.71157837973E+03  0.00000000000E+00 0.  1.
         21   -1    0    0  501  503 -0.00000000000E+00 -0.00000000000E+00 -0.23371006140E+03  0.23371006140E+03  0.00000000000E+00 0.  1.
          6    2    1    2  501    0 -0.67900751740E+02 -0.34733700642E+03  0.36327645847E+03  0.53526329180E+03  0.17112421846E+03 0.  0.
         24    2    3    3    0    0 -0.60440492912E+02 -0.10419033789E+03  0.92001117778E+02  0.17086192194E+03  0.78872751978E+02 0.  0.
         -6    2    1    2    0  502  0.67900751740E+02  0.34733700642E+03  0.11459185986E+03  0.41002514933E+03  0.17244077425E+03 0.  0.
        -24    2    5    5    0    0  0.64152091299E+02  0.21995809806E+03  0.14149084075E+03  0.27969831432E+03  0.75593870775E+02 0.  0.
          5    1    3    3  501    0 -0.74602588278E+01 -0.24314666854E+03  0.27127534070E+03  0.36440136985E+03  0.47000000000E+01 0. -1.
        -11    1    4    4    0    0 -0.51550127207E+02 -0.98670057202E+02  0.40742488236E+02  0.11854596641E+03  0.00000000000E+00 0.  1.
         12    1    4    4    0    0 -0.88903657049E+01 -0.55202806860E+01  0.51258629541E+02  0.52315955536E+02  0.00000000000E+00 0. -1.
         -5    1    5    5    0  502  0.37486604406E+01  0.12737890836E+03 -0.26898980891E+02  0.13032683501E+03  0.47000000000E+01 0.  1.
         13    1    6    6    0    0  0.56620384793E+02  0.21231170425E+03  0.14995988665E+03  0.26602649368E+03  0.00000000000E+00 0. -1.
        -14    1    6    6    0    0  0.75317065065E+01  0.76463938144E+01 -0.84690459022E+01  0.13671820645E+02  0.00000000000E+00 0.  1.
</event>
<event>
12    1  0.1032880E+000  0.3931509E+03  0.7818608E-02  0.1046296E+00
         21   -1    0    0  501  502  0.00000000000E+00  0.00000000000E+00  0.38475156300E+03  0.38475156300E+03  0.00000000000E+00 0. -1.
         21   -1    0    0  502  503 -0.00000000000E+00 -0.00000000000E+00 -0.54536849482E+03  0.54536849482E+03  0.00000000000E+00 0. -1.
         -6    2    1    2    0  503  0.27762449011E+03  0.21840720470E+03  0.15959131348E+03  0.42306881101E+03  0.16953102058E+03 0.  0.
        -24    2    3    3    0    0  0.24051527057E+03  0.11467769184E+03  0.88839725014E+02  0.29205437180E+03  0.80029313133E+02 0.  0.
          6    2    1    2  501    0 -0.27762449011E+03 -0.21840720470E+03 -0.32020824530E+03  0.50705124681E+03  0.17259948425E+03 0.  0.
         24    2    5    5    0    0 -0.25650855764E+03 -0.12427467782E+03 -0.25708826561E+03  0.39166911191E+03  0.77906875282E+02 0.  0.
          5    1    5    5  501    0 -0.21115932470E+02 -0.94132526872E+02 -0.63119979689E+02  0.11538213491E+03  0.47000000000E+01 0. -1.
        -13    1    6    6    0    0 -0.11245330271E+03 -0.79941976977E+02 -0.81429186891E+02  0.16020979199E+03  0.00000000000E+00 0.  1.
         14    1    6    6    0    0 -0.14405525493E+03 -0.44332700848E+02 -0.17565907872E+03  0.23145931991E+03  0.00000000000E+00 0. -1.
         -5    1    3    3    0  503  0.37109219538E+02  0.10372951286E+03  0.70751588467E+02  0.13101443922E+03  0.47000000000E+01 0.  1.
         11    1    4    4    0    0  0.90192479327E+02  0.87040858968E+02  0.42146194668E+02  0.13223878471E+03  0.00000000000E+00 0. -1.
        -12    1    4    4    0    0  0.15032279125E+03  0.27636832872E+02  0.46693530346E+02  0.15981558708E+03  0.00000000000E+00 0.  1.
</event>
<event>
12    1  0.1032880E+000  0.1863285E+03  0.7818608E-02  0.1161877E+00
         21   -1    0    0  503  502  0.00000000000E+00  0.00000000000E+00  0.48341125394E+02  0.48341125394E+02  0.00000000000E+00 0. -1.
         21   -1    0    0  501  503 -0.00000000000E+00 -0.00000000000E+00 -0.76820727225E+03  0.76820727225E+03  0.00000000000E+00 0. -1.
          6    2    1    2  501    0 -0.69354421863E+02 -0.13680486044E+02 -0.25493303319E+03  0.31576759758E+03  0.17239818078E+03 0.  0.
         24    2    3    3    0    0 -0.33395442970E+02  0.65146515175E+01 -0.25850633020E+03  0.27410526212E+03  0.84560485303E+02 0.  0.
         -6    2    1    2    0  502  0.69354421863E+02  0.13680486044E+02 -0.46493311366E+03  0.50078080006E+03  0.17210873889E+03 0.  0.
        -24    2    5    5    0    0  0.67751638082E+02  0.69636122167E+02 -0.36557389113E+03  0.38664076663E+03  0.80045852926E+02 0.  0.
          5    1    3    3  501    0 -0.35958978893E+02 -0.20195137561E+02  0.35732970074E+01  0.41662335456E+02  0.47000000000E+01 0. -1.
        -11    1    4    4    0    0  0.16161649225E+02  0.29991896210E+02 -0.12995098287E+03  0.13434273592E+03  0.00000000000E+00 0.  1.
         12    1    4    4    0    0 -0.49557092196E+02 -0.23477244693E+02 -0.12855534733E+03  0.13976252621E+03  0.00000000000E+00 0. -1.
         -5    1    5    5    0  502  0.16027837813E+01 -0.55955636124E+02 -0.99359222535E+02  0.11414003344E+03  0.47000000000E+01 0.  1.
         11    1    6    6    0    0  0.45828401638E+02  0.81019561239E+02 -0.33296773297E+03  0.34573389030E+03  0.00000000000E+00 0. -1.
        -12    1    6    6    0    0  0.21923236444E+02 -0.11383439072E+02 -0.32606158151E+02  0.40906876325E+02  0.00000000000E+00 0.  1.
</event>
<event>
12    1  0.1032880E+000  0.8967071E+03  0.7818608E-02  0.9429708E-01
         21   -1    0    0  501  502  0.00000000000E+00  0.00000000000E+00  0.29545092302E+04  0.29545092302E+04  0.00000000000E+00 0. -1.
         21   -1    0    0  502  503 -0.00000000000E+00 -0.00000000000E+00 -0.29693641558E+03  0.29693641558E+03  0.00000000000E+00 0.  1.
         -6    2    1    2    0  503  0.73873144399E+03  0.47814329497E+03  0.85911955481E+03  0.12418392994E+04  0.17243340503E+03 0.  0.
        -24    2    3    3    0    0  0.49980782137E+03  0.24639505806E+03  0.51951945167E+03  0.76629533421E+03  0.82399609424E+02 0.  0.
          6    2    1    2  501    0 -0.73873144399E+03 -0.47814329497E+03  0.17984532599E+04  0.20096063464E+04  0.17244820360E+03 0.  0.
         24    2    5    5    0    0 -0.51532213586E+03 -0.29147313435E+03  0.10771290125E+04  0.12317321743E+04  0.80272959025E+02 0.  0.
          5    1    5    5  501    0 -0.22340930813E+03 -0.18667016062E+03  0.72132424735E+03  0.77787417211E+03  0.47000000000E+01 0. -1.
        -11    1    6    6    0    0 -0.39692652239E+03 -0.21438608385E+03  0.88386346614E+03  0.99233395785E+03  0.00000000000E+00 0.  1.
         12    1    6    6    0    0 -0.11839561347E+03 -0.77087050500E+02  0.19326554637E+03  0.23939821649E+03  0.00000000000E+00 0. -1.
         -5    1    3    3    0  503  0.23892362262E+03  0.23174823691E+03  0.33960010314E+03  0.47554396517E+03  0.47000000000E+01 0.  1.
         13    1    4    4    0    0  0.49009681210E+03  0.24260710412E+03  0.48743890530E+03  0.73256383926E+03  0.00000000000E+00 0. -1.
        -14    1    4    4    0    0  0.97110092767E+01  0.37879539386E+01  0.32080546369E+02  0.33731494950E+02  0.00000000000E+00 0.  1.
</event>
<event>
12    1  0.1032880E+000  0.2270432E+03  0.7818608E-02  0.1130026E+00
         21   -1    0    0  501  502  0.00000000000E+00  0.00000000000E+00  0.25040818218E+03  0.25040818218E+03  0.00000000000E+00 0. -1.
         21   -1    0    0  502  503 -0.00000000000E+00 -0.00000000000E+00 -0.20039075665E+03  0.20039075665E+03  0.00000000000E+00 0. -1.
         -6    2    1    2    0  503  0.12664251552E+03 -0.56400299848E+02  0.39685638845E+02  0.22352080818E+03  0.17078431192E+03 0.  0.
        -24    2    3    3    0    0  0.12735273247E+03 -0.88960494006E+02  0.59358008553E+02  0.18518332284E+03  0.81466569332E+02 0.  0.
          6    2    1    2  501    0 -0.12664251552E+03  0.56400299848E+02  0.10331786689E+02  0.22727813065E+03  0.17980345463E+03 0.  0.
         24    2    5    5    0    0 -0.15278025976E+03  0.71548344053E+02  0.32446640610E+02  0.18954483393E+03  0.80084244852E+02 0.  0.
          5    1    5    5  501    0  0.26137744243E+02 -0.15148044205E+02 -0.22114853922E+02  0.37733296720E+02  0.47000000000E+01 0. -1.
        -13    1    6    6    0    0 -0.49620301306E+02  0.67105656471E+02  0.16270927272E+02  0.85029915361E+02  0.00000000000E+00 0.  1.
         14    1    6    6    0    0 -0.10315995846E+03  0.44426875819E+01  0.16175713339E+02  0.10451491857E+03  0.00000000000E+00 0. -1.
         -5    1    3    3    0  503 -0.71021694958E+00  0.32560194158E+02 -0.19672369708E+02  0.38337485333E+02  0.47000000000E+01 0.  1.
         13    1    4    4    0    0 -0.32627018001E+01 -0.19321222094E+02  0.27510794441E+02  0.33775711051E+02  0.00000000000E+00 0. -1.
        -14    1    4    4    0    0  0.13061543427E+03 -0.69639271912E+02  0.31847214112E+02  0.15140761179E+03  0.00000000000E+00 0.  1.
</event>
<event>
12    1  0.1032880E+000  0.1873613E+03  0.7818608E-02  0.1162913E+00
         21   -1    0    0  501  502  0.00000000000E+00  0.00000000000E+00  0.56513818721E+02  0.56513818721E+02  0.00000000000E+00 0.  1.
         21   -1    0    0  502  503 -0.00000000000E+00 -0.00000000000E+00 -0.10091291946E+04  0.10091291946E+04  0.00000000000E+00 0.  1.
         -6    2    1    2    0  503  0.42902008810E+01 -0.48486840376E+02 -0.12741202560E+03  0.21943687587E+03  0.17189921090E+03 0.  0.
        -24    2    3    3    0    0  0.33378819972E+02  0.21394041735E+02 -0.25986452435E+02  0.92792798480E+02  0.79770653094E+02 0.  0.
          6    2    1    2  501    0 -0.42902008810E+01  0.48486840376E+02 -0.82520335030E+03  0.84620613747E+03  0.18092782606E+03 0.  0.
         24    2    5    5    0    0 -0.39812199136E+02  0.14958449039E+02 -0.20199985512E+03  0.22107363009E+03  0.79125482970E+02 0.  0.
          5    1    5    5  501    0  0.35521998255E+02  0.33528391336E+02 -0.62320349518E+03  0.62513250739E+03  0.47000000000E+01 0. -1.
        -11    1    6    6    0    0 -0.89317364872E+01  0.33085826862E+02 -0.30504916949E+02  0.45880255164E+02  0.00000000000E+00 0.  1.
         12    1    6    6    0    0 -0.30880462648E+02 -0.18127377822E+02 -0.17149493817E+03  0.17519337492E+03  0.00000000000E+00 0. -1.
         -5    1    3    3    0  503 -0.29088619091E+02 -0.69880882111E+02 -0.10142557316E+03  0.12664407739E+03  0.47000000000E+01 0.  1.
         11    1    4    4    0    0 -0.11423312312E+02  0.39000926592E+02 -0.15711229200E+02  0.43570713354E+02  0.00000000000E+00 0. -1.
        -12    1    4    4    0    0  0.44802132284E+02 -0.17606884857E+02 -0.10275223235E+02  0.49222085126E+02  0.00000000000E+00 0.  1.
</event>
<event>
12    1  0.1032880E+000  0.2180162E+03  0.7818608E-02  0.1135508E+00
         21   -1    0    0  501  502  0.00000000000E+00  0.00000000000E+00  0.12853819523E+03  0.12853819523E+03  0.00000000000E+00 0.  1.
         21   -1    0    0  502  503 -0.00000000000E+00 -0.00000000000E+00 -0.36957741180E+03  0.36957741180E+03  0.00000000000E+00 0.  1.
         -6    2    1    2    0  503 -0.13327612396E+03  0.45602176894E-01 -0.10761125151E+03  0.24312801903E+03  0.17253557571E+03 0.  0.
        -24    2    3    3    0    0 -0.12867677215E+03 -0.52847889294E+01 -0.16539365367E+02  0.15166356936E+03  0.78375040543E+02 0.  0.
          6    2    1    2  501    0  0.13327612396E+03 -0.45602176894E-01 -0.13342796506E+03  0.25498758800E+03  0.17161911571E+03 0.  0.
         24    2    5    5    0    0  0.12768330499E+03  0.54546259003E+02 -0.85057192728E+02  0.18168429649E+03  0.80598615440E+02 0.  0.
          5    1    5    5  501    0  0.55928189718E+01 -0.54591861180E+02 -0.48370772329E+02  0.73303291515E+02  0.47000000000E+01 0. -1.
        -11    1    6    6    0    0  0.10570015595E+02  0.31037349559E+02  0.35198769567E+01  0.32976231305E+02  0.00000000000E+00 0.  1.
         12    1    6    6    0    0  0.11711328939E+03  0.23508909445E+02 -0.88577069685E+02  0.14870806518E+03  0.00000000000E+00 0. -1.
         -5    1    3    3    0  503 -0.45993518110E+01  0.53303911063E+01 -0.91071886145E+02  0.91464449664E+02  0.47000000000E+01 0.  1.
         13    1    4    4    0    0 -0.41602184098E+02 -0.19350031238E+02  0.27065872632E+02  0.53270319052E+02  0.00000000000E+00 0. -1.
        -14    1    4    4    0    0 -0.87074588051E+02  0.14065242308E+02 -0.43605237999E+02  0.98393250309E+02  0.00000000000E+00 0.  1.
</event>
<event>
12    1  0.1032880E+000  0.2509109E+03  0.7818608E-02  0.1113212E+00
         21   -1    0    0  501  502  0.00000000000E+00  0.00000000000E+00  0.45655421980E+03  0.45655421980E+03  0.00000000000E+00 0.  1.
         21   -1    0    0  502  503 -0.00000000000E+00 -0.00000000000E+00 -0.13849490420E+03  0.13849490420E+03  0.00000000000E+00 0.  1.
         -6    2    1    2    0  503  0.17946350180E+03 -0.72254299794E+00  0.19614635589E+03  0.31608843281E+03  0.17097027191E+03 0.  0.
        -24    2    3    3    0    0  0.67717352217E+02  0.17540739404E+02  0.21048439718E+02  0.10751681518E+03  0.78889235017E+02 0.  0.
          6    2    1    2  501    0 -0.17946350180E+03  0.72254299794E+00  0.12191295971E+03  0.27896069119E+03  0.17535286406E+03 0.  0.
         24    2    5    5    0    0 -0.69261020472E+02 -0.21253196455E+02 -0.90318341612E+01  0.10634508049E+03  0.77323442751E+02 0.  0.
          5    1    5    5  501    0 -0.11020248133E+03  0.21975739453E+02  0.13094479387E+03  0.17261561070E+03  0.47000000000E+01 0. -1.
        -13    1    6    6    0    0  0.95254924896E+00  0.31142411301E+01 -0.29163739596E+02  0.29345009032E+02  0.00000000000E+00 0.  1.
         14    1    6    6    0    0 -0.70213569721E+02 -0.24367437585E+02  0.20131905435E+02  0.77000071453E+02  0.00000000000E+00 0. -1.
         -5    1    3    3    0  503  0.11174614959E+03 -0.18263282402E+02  0.17509791618E+03  0.20857161763E+03  0.47000000000E+01 0.  1.
         13    1    4    4    0    0  0.34163178880E+02  0.46355320936E+02 -0.20484962659E+01  0.57620611826E+02  0.00000000000E+00 0. -1.
        -14    1    4    4    0    0  0.33554173337E+02 -0.28814581532E+02  0.23096935984E+02  0.49896203353E+02  0.00000000000E+00 0.  1.
</event>
<event>
12    1  0.1032880E+000  0.1897153E+03  0.7818608E-02  0.1158986E+00
         21   -1    0    0  503  502  0.00000000000E+00  0.00000000000E+00  0.33234365561E+02  0.33234365561E+02  0.00000000000E+00 0.  1.
         21   -1    0    0  501  503 -0.00000000000E+00 -0.00000000000E+00 -0.10763139540E+04  0.10763139540E+04  0.00000000000E+00 0.  1.
          6    2    1    2  501    0  0.74784463983E+02  0.26936530635E+02 -0.52476487917E+03  0.55760446762E+03  0.17095692781E+03 0.  0.
         24    2    3    3    0    0 -0.11024063675E+02  0.52513143181E+02 -0.21589871217E+03  0.23598720185E+03  0.78730841042E+02 0.  0.
         -6    2    1    2    0  502 -0.74784463983E+02 -0.26936530635E+02 -0.51831470930E+03  0.55194385198E+03  0.17226022500E+03 0.  0.
        -24    2    5    5    0    0 -0.55062414992E+02 -0.25431257176E+02 -0.52167192424E+03  0.53133836832E+03  0.80624107597E+02 0.  0.
          5    1    3    3  501    0  0.85808527658E+02 -0.25576612546E+02 -0.30886616700E+03  0.32161726577E+03  0.47000000000E+01 0. -1.
        -11    1    4    4    0    0  0.12292585487E+02  0.65042818672E+02 -0.12677878419E+03  0.14301935547E+03  0.00000000000E+00 0.  1.
         12    1    4    4    0    0 -0.23316649162E+02 -0.12529675491E+02 -0.89119927989E+02  0.92967846382E+02  0.00000000000E+00 0. -1.
         -5    1    5    5    0  502 -0.19722048990E+02 -0.15052734593E+01  0.33572149322E+01  0.20605483655E+02  0.47000000000E+01 0.  1.
         13    1    6    6    0    0  0.96858902543E+01  0.51643438235E+01 -0.25445997074E+03  0.25469661094E+03  0.00000000000E+00 0. -1.
        -14    1    6    6    0    0 -0.64748305247E+02 -0.30595600999E+02 -0.26721195350E+03  0.27664175738E+03  0.00000000000E+00 0.  1.
</event>
<event>
12    1  0.1032880E+000  0.3822353E+03  0.7818608E-02  0.1050242E+00
         21   -1    0    0  501  502  0.00000000000E+00  0.00000000000E+00  0.68519682754E+03  0.68519682754E+03  0.00000000000E+00 0. -1.
         21   -1    0    0  502  503 -0.00000000000E+00 -0.00000000000E+00 -0.21324229646E+03  0.21324229646E+03  0.00000000000E+00 0. -1.
         -6    2    1    2    0  503 -0.33464493917E+03  0.62166204096E+02  0.26412019556E+03  0.46461090275E+03  0.17393085123E+03 0.  0.
        -24    2    3    3    0    0 -0.15117670663E+03  0.71932730368E+02  0.70917578087E+02  0.19795509692E+03  0.78282840958E+02 0.  0.
          6    2    1    2  501    0  0.33464493917E+03 -0.62166204096E+02  0.20783433551E+03  0.43382822125E+03  0.17076282466E+03 0.  0.
         24    2    5    5    0    0  0.30762883424E+03 -0.49819172656E+02  0.23132245338E+03  0.39566933248E+03  0.76985021952E+02 0.  0.
          5    1    5    5  501    0  0.27016104931E+02 -0.12347031440E+02 -0.23488117869E+02  0.38158888768E+02  0.47000000000E+01 0. -1.
        -11    1    6    6    0    0  0.18490280167E+03 -0.67760215148E+02  0.13863377851E+03  0.24083151240E+03  0.00000000000E+00 0.  1.
         12    1    6    6    0    0  0.12272603258E+03  0.17941042492E+02  0.92688674867E+02  0.15483782008E+03  0.00000000000E+00 0. -1.
         -5    1    3    3    0  503 -0.18346823254E+03 -0.97665262721E+01  0.19320261747E+03  0.26665580584E+03  0.47000000000E+01 0.  1.
         11    1    4    4    0    0 -0.56356566962E+02  0.33841155426E+02  0.69635005572E+02  0.95761790090E+02  0.00000000000E+00 0. -1.
        -12    1    4    4    0    0 -0.94820139666E+02  0.38091574942E+02  0.12825725149E+01  0.10219330683E+03  0.00000000000E+00 0.  1.
</event>
<event>
12    1  0.1032880E+000  0.2297751E+03  0.7818608E-02  0.1127348E+00
         21   -1    0    0  501  502  0.00000000000E+00  0.00000000000E+00  0.27951601397E+03  0.27951601397E+03  0.00000000000E+00 0.  1.
         21   -1    0    0  502  503 -0.00000000000E+00 -0.00000000000E+00 -0.20933159207E+03  0.20933159207E+03  0.00000000000E+00 0.  1.
         -6    2    1    2    0  503 -0.13517980055E+03  0.58301823978E+02  0.11587275304E+03  0.25457422404E+03  0.17236258148E+03 0.  0.
        -24    2    3    3    0    0 -0.37914365323E+02 -0.53503375754E+01  0.15576208567E+02  0.10097197994E+03  0.92122729277E+02 0.  0.
          6    2    1    2  501    0  0.13517980055E+03 -0.58301823978E+02 -0.45688331144E+02  0.23427338200E+03  0.17641970626E+03 0.  0.
         24    2    5    5    0    0  0.72691739810E+02  0.18772039733E+02 -0.71957295498E+02  0.13152472415E+03  0.80525909963E+02 0.  0.
          5    1    5    5  501    0  0.62488060737E+02 -0.77073863711E+02  0.26268964354E+02  0.10274865785E+03  0.47000000000E+01 0. -1.
        -13    1    6    6    0    0  0.54434933067E+02  0.17891898405E+01 -0.86825351344E+02  0.10249392555E+03  0.00000000000E+00 0.  1.
         14    1    6    6    0    0  0.18256806743E+02  0.16982849892E+02  0.14868055846E+02  0.29030798603E+02  0.00000000000E+00 0. -1.
         -5    1    3    3    0  503 -0.97265435223E+02  0.63652161554E+02  0.10029654447E+03  0.15360224410E+03  0.47000000000E+01 0.  1.
         11    1    4    4    0    0 -0.28319963964E+02 -0.19009814634E+02  0.51263467035E+02  0.61573829374E+02  0.00000000000E+00 0. -1.
        -12    1    4    4    0    0 -0.95944013586E+01  0.13659477059E+02 -0.35687258468E+02  0.39398150565E+02  0.00000000000E+00 0.  1.
</event>
<event>
12    1  0.1032880E+000  0.1930282E+03  0.7818608E-02  0.1158031E+00
         21   -1    0    0  501  502  0.00000000000E+00  0.00000000000E+00  0.11761188498E+03  0.11761188498E+03  0.00000000000E+00 0. -1.
         21   -1    0    0  502  503 -0.00000000000E+00 -0.00000000000E+00 -0.30133975238E+03  0.30133975238E+03  0.00000000000E+00 0. -1.
         -6    2    1    2    0  503  0.26599125622E+02  0.41606672880E+02 -0.10468051372E+03  0.21958574048E+03  0.18660455181E+03 0.  0.
        -24    2    3    3    0    0  0.25464458429E+02 -0.48835913558E+02 -0.80083416190E+02  0.12573343034E+03  0.79763129702E+02 0.  0.
          6    2    1    2  501    0 -0.26599125622E+02 -0.41606672880E+02 -0.79047353679E+02  0.19936589689E+03  0.17623747617E+03 0.  0.
         24    2    5    5    0    0  0.53405443836E+02 -0.44072145937E+02 -0.54220692279E+02  0.11542983308E+03  0.74764078368E+02 0.  0.
          5    1    5    5  501    0 -0.80004569457E+02  0.24654730570E+01 -0.24826661400E+02  0.83936063809E+02  0.47000000000E+01 0. -1.
        -11    1    6    6    0    0 -0.11195311542E+02 -0.25400705729E+02 -0.36561066868E+02  0.45904710679E+02  0.00000000000E+00 0.  1.
         12    1    6    6    0    0  0.64600755377E+02 -0.18671440208E+02 -0.17659625411E+02  0.69525122398E+02  0.00000000000E+00 0. -1.
         -5    1    3    3    0  503  0.11346671925E+01  0.90442586439E+02 -0.24597097529E+02  0.93852310138E+02  0.47000000000E+01 0.  1.
         13    1    4    4    0    0  0.10871359201E+02 -0.13036463405E+02 -0.85075982616E+02  0.86752859590E+02  0.00000000000E+00 0. -1.
        -14    1    4    4    0    0  0.14593099228E+02 -0.35799450153E+02  0.49925664262E+01  0.38980570748E+02  0.00000000000E+00 0.  1.
</event>
<event>
12    1  0.1032880E+000  0.3234699E+03  0.7818608E-02  0.1074310E+00
         21   -1    0    0  501  502  0.00000000000E+00  0.00000000000E+00  0.17550033801E+04  0.17550033801E+04  0.00000000000E+00 0.  1.
         21   -1    0    0  502  503 -0.00000000000E+00 -0.00000000000E+00 -0.12372360122E+03  0.12372360122E+03  0.00000000000E+00 0.  1.
         -6    2    1    2    0  503 -0.10801283201E+03 -0.24908865344E+03  0.14925864694E+04  0.15267772398E+04  0.17182095932E+03 0.  0.
        -24    2    3    3    0    0 -0.17066572294E+02 -0.15008837582E+03  0.10648332815E+04  0.10783721139E+04  0.78731888291E+02 0.  0.
          6    2    1    2  501    0  0.10801283201E+03  0.24908865344E+03  0.13869330948E+03  0.35194974156E+03  0.17584327493E+03 0.  0.
         24    2    5    5    0    0  0.24411439673E+02  0.59467252564E+02 -0.64123751318E+01  0.98921643957E+02  0.74913954467E+02 0.  0.
          5    1    5    5  501    0  0.83601392342E+02  0.18962140087E+03  0.14510568461E+03  0.25302809760E+03  0.47000000000E+01 0. -1.
        -13    1    6    6    0    0 -0.10101560044E+02  0.61537907721E+02 -0.13057382256E+02  0.63713819799E+02  0.00000000000E+00 0.  1.
         14    1    6    6    0    0  0.34512999717E+02 -0.20706551574E+01  0.66450071243E+01  0.35207824157E+02  0.00000000000E+00 0. -1.
         -5    1    3    3    0  503 -0.90946259720E+02 -0.99000277622E+02  0.42775318794E+03  0.44840512588E+03  0.47000000000E+01 0.  1.
         11    1    4    4    0    0 -0.32183084916E+02 -0.12532427933E+03  0.98437781299E+03  0.99284520679E+03  0.00000000000E+00 0. -1.
        -12    1    4    4    0    0  0.15116512622E+02 -0.24764096488E+02  0.80455468507E+02  0.85526907119E+02  0.00000000000E+00 0.  1.
</event>
<event>
12    1  0.1032880E+000  0.8009482E+03  0.7818608E-02  0.9558759E-01
         21   -1    0    0  501  502  0.00000000000E+00  0.00000000000E+00  0.63308822747E+03  0.63308822747E+03  0.00000000000E+00 0. -1.
         21   -1    0    0  502  503 -0.00000000000E+00 -0.00000000000E+00 -0.10711187123E+04  0.10711187123E+04  0.00000000000E+00 0. -1.
         -6    2    1    2    0  503 -0.76391025340E+03 -0.16827795656E+03 -0.20350380368E+02  0.80089377068E+03  0.17070544227E+03 0.  0.
        -24    2    3    3    0    0 -0.44611218154E+03 -0.14016071974E+03 -0.64736832649E+02  0.47874715712E+03  0.79667289834E+02 0.  0.
          6    2    1    2  501    0  0.76391025340E+03  0.16827795656E+03 -0.41768010442E+03  0.90331316905E+03  0.17216755160E+03 0.  0.
         24    2    5    5    0    0  0.44181172257E+03  0.49654109933E+02 -0.18215793518E+03  0.48700575527E+03  0.79561067690E+02 0.  0.
          5    1    5    5  501    0  0.32209853084E+03  0.11862384662E+03 -0.23552216925E+03  0.41630741377E+03  0.47000000000E+01 0. -1.
        -13    1    6    6    0    0  0.20207019855E+03  0.24321765012E+02 -0.40914844776E+02  0.20760042852E+03  0.00000000000E+00 0.  1.
         14    1    6    6    0    0  0.23974152401E+03  0.25332344921E+02 -0.14124309040E+03  0.27940532676E+03  0.00000000000E+00 0. -1.
         -5    1    3    3    0  503 -0.31779807186E+03 -0.28117236815E+02  0.44386452281E+02  0.32214661356E+03  0.47000000000E+01 0.  1.
         13    1    4    4    0    0 -0.36849903419E+03 -0.14598606853E+03 -0.58642881161E+02  0.40067749864E+03  0.00000000000E+00 0. -1.
        -14    1    4    4    0    0 -0.77613147350E+02  0.58253487924E+01 -0.60939514883E+01  0.78069658478E+02  0.00000000000E+00 0.  1.
</event>
<event>
12    1  0.1032880E+000  0.1997197E+03  0.7818608E-02  0.1150279E+00
         21   -1    0    0  503  502  0.00000000000E+00  0.00000000000E+00  0.18230299106E+04  0.18230299106E+04  0.00000000000E+00 0. -1.
         21   -1    0    0  501  503 -0.00000000000E+00 -0.00000000000E+00 -0.22054245072E+02  0.22054245072E+02  0.00000000000E+00 0. -1.
          6    2    1    2  501    0  0.50088931301E+01 -0.99369571399E+02  0.10166140177E+04  0.10360463485E+04  0.17317209534E+03 0.  0.
         24    2    3    3    0    0 -0.27093295375E+02 -0.28925420152E+02  0.24172948710E+03  0.25729025404E+03  0.78704531677E+02 0.  0.
         -6    2    1    2    0  502 -0.50088931301E+01  0.99369571399E+02  0.78436164788E+03  0.80903780718E+03  0.17152136328E+03 0.  0.
        -24    2    5    5    0    0 -0.67958458748E+02  0.41995222997E+02  0.41304089128E+03  0.42804481781E+03  0.78978714350E+02 0.  0.
          5    1    3    3  501    0  0.32102188505E+02 -0.70444151246E+02  0.77488453056E+03  0.77875609446E+03  0.47000000000E+01 0. -1.
        -11    1    4    4    0    0 -0.16507700693E+02  0.69208193438E+01  0.20181697129E+03  0.20260920962E+03  0.00000000000E+00 0.  1.
         12    1    4    4    0    0 -0.10585594681E+02 -0.35846239496E+02  0.39912515809E+02  0.54681044421E+02  0.00000000000E+00 0. -1.
         -5    1    5    5    0  502  0.62949565618E+02  0.57374348402E+02  0.37132075660E+03  0.38099298937E+03  0.47000000000E+01 0.  1.
         13    1    6    6    0    0 -0.44649667196E+02 -0.17622091452E+02  0.19324072314E+03  0.19911330435E+03  0.00000000000E+00 0. -1.
        -14    1    6    6    0    0 -0.23308791552E+02  0.59617314448E+02  0.21980016814E+03  0.22893151347E+03  0.00000000000E+00 0.  1.
</event>
<event>
12    1  0.1032880E+000  0.4615835E+03  0.7818608E-02  0.1024525E+00
         21   -1    0    0  503  502  0.00000000000E+00  0.00000000000E+00  0.30097229188E+03  0.30097229188E+03  0.00000000000E+00 0. -1.
         21   -1    0    0  501  503 -0.00000000000E+00 -0.00000000000E+00 -0.84692844247E+03  0.84692844247E+03  0.00000000000E+00 0.  1.
          6    2    1    2  501    0 -0.11928024800E+03 -0.40832820538E+03 -0.37582992100E+02  0.46311099160E+03  0.17916363576E+03 0.  0.
         24    2    3    3    0    0 -0.10352847534E+03 -0.21989612726E+03  0.41962102298E+02  0.25791772064E+03  0.75420690800E+02 0.  0.
         -6    2    1    2    0  502  0.11928024800E+03  0.40832820538E+03 -0.50837315849E+03  0.68478974275E+03  0.17185465555E+03 0.  0.
        -24    2    5    5    0    0  0.29275406727E+02  0.10061628378E+03 -0.19776714712E+03  0.23837549293E+03  0.82038680808E+02 0.  0.
          5    1    3    3  501    0 -0.15751772667E+02 -0.18843207812E+03 -0.79545094398E+02  0.20519327097E+03  0.47000000000E+01 0. -1.
        -13    1    4    4    0    0 -0.32029181666E+02 -0.91618569494E+02 -0.19019590552E+02  0.98901848209E+02  0.00000000000E+00 0.  1.
         14    1    4    4    0    0 -0.71499293671E+02 -0.12827755776E+03  0.60981692850E+02  0.15901587243E+03  0.00000000000E+00 0. -1.
         -5    1    5    5    0  502  0.90004841277E+02  0.30771192160E+03 -0.31060601137E+03  0.44641424983E+03  0.47000000000E+01 0.  1.
         13    1    6    6    0    0  0.10260049917E+02  0.10113636391E+02  0.52131852239E+01  0.15320951848E+02  0.00000000000E+00 0. -1.
        -14    1    6    6    0    0  0.19015356810E+02  0.90502647391E+02 -0.20298033234E+03  0.22305454108E+03  0.00000000000E+00 0.  1.
</event>
<event>
12    1  0.1032880E+000  0.2465446E+03  0.7818608E-02  0.1115918E+00
         21   -1    0    0  503  502  0.00000000000E+00  0.00000000000E+00  0.11741259630E+03  0.11741259630E+03  0.00000000000E+00 0. -1.
         21   -1    0    0  501  503 -0.00000000000E+00 -0.00000000000E+00 -0.55949427703E+03  0.55949427703E+03  0.00000000000E+00 0. -1.
          6    2    1    2  501    0 -0.17203916659E+03  0.22353109595E+02 -0.12387977760E+03  0.27591748477E+03  0.17517740366E+03 0.  0.
         24    2    3    3    0    0 -0.18484624271E+03  0.26837473224E+02 -0.60927624939E+02  0.21134818680E+03  0.77894140800E+02 0.  0.
         -6    2    1    2    0  502  0.17203916659E+03 -0.22353109595E+02 -0.31820190313E+03  0.40098938855E+03  0.17158934181E+03 0.  0.
        -24    2    5    5    0    0  0.18126351983E+03  0.17289437153E+02 -0.22994180656E+03  0.30368288902E+03  0.78706253993E+02 0.  0.
          5    1    3    3  501    0  0.12807076117E+02 -0.44843636299E+01 -0.62952152657E+02  0.64569297967E+02  0.47000000000E+01 0. -1.
        -13    1    4    4    0    0 -0.13109987939E+03 -0.17044941077E+02 -0.48732936284E+02  0.14089928130E+03  0.00000000000E+00 0.  1.
         14    1    4    4    0    0 -0.53746363326E+02  0.43882414302E+02 -0.12194688654E+02  0.70448905507E+02  0.00000000000E+00 0. -1.
         -5    1    5    5    0  502 -0.92243532331E+01 -0.39642546748E+02 -0.88260096570E+02  0.97306499535E+02  0.47000000000E+01 0.  1.
         11    1    6    6    0    0  0.13470680999E+02  0.13162934307E+01 -0.70091395853E+02  0.71386242706E+02  0.00000000000E+00 0. -1.
        -12    1    6    6    0    0  0.16779283883E+03  0.15973143723E+02 -0.15985041071E+03  0.23229664631E+03  0.00000000000E+00 0.  1.
</event>
<event>
12    1  0.1032880E+000  0.1856300E+03  0.7818608E-02  0.1163263E+00
         21   -1    0    0  501  502  0.00000000000E+00  0.00000000000E+00  0.28336571773E+03  0.28336571773E+03  0.00000000000E+00 0. -1.
         21   -1    0    0  502  503 -0.00000000000E+00 -0.00000000000E+00 -0.13893625238E+03  0.13893625238E+03  0.00000000000E+00 0. -1.
         -6    2    1    2    0  503  0.47982628129E+02  0.49459857646E+02  0.15085051700E+03  0.23656092610E+03  0.16869079157E+03 0.  0.
        -24    2    3    3    0    0  0.36551895376E+02  0.77751878823E+02  0.16489590957E+03  0.20264244786E+03  0.80572358576E+02 0.  0.
          6    2    1    2  501    0 -0.47982628129E+02 -0.49459857646E+02 -0.64210516474E+01  0.18574104400E+03  0.17236558648E+03 0.  0.
         24    2    5    5    0    0  0.30962530840E+02 -0.58291792737E+02  0.11042586253E+02  0.10427074358E+03  0.79961477218E+02 0.  0.
          5    1    5    5  501    0 -0.78945158969E+02  0.88319350913E+01 -0.17463637901E+02  0.81470300422E+02  0.47000000000E+01 0. -1.
        -13    1    6    6    0    0  0.19105251094E+02 -0.48301060086E+02 -0.30287703263E+02  0.60127763918E+02  0.00000000000E+00 0.  1.
         14    1    6    6    0    0  0.11857279746E+02 -0.99907326509E+01  0.41330289516E+02  0.44142979662E+02  0.00000000000E+00 0. -1.
         -5    1    3    3    0  503  0.11430732752E+02 -0.28292021177E+02 -0.14045392574E+02  0.33918478239E+02  0.47000000000E+01 0.  1.
         11    1    4    4    0    0  0.61750770566E+02  0.64377146712E+02  0.12233749283E+03  0.15140685861E+03  0.00000000000E+00 0. -1.
        -12    1    4    4    0    0 -0.25198875190E+02  0.13374732111E+02  0.42558416742E+02  0.51235589247E+02  0.00000000000E+00 0.  1.
</event>
<event>
12    1  0.1032880E+000  0.2605668E+03  0.7818608E-02  0.1106896E+00
         21   -1    0    0  503  502  0.00000000000E+00  0.00000000000E+00  0.46706827232E+03  0.46706827232E+03  0.00000000000E+00 0. -1.
         21   -1    0    0  501  503 -0.00000000000E+00 -0.00000000000E+00 -0.15569377427E+03  0.15569377427E+03  0.00000000000E+00 0. -1.
          6    2    1    2  501    0  0.32551511921E+02  0.19229507279E+03  0.23739684968E+03  0.35249444733E+03  0.17279489349E+03 0.  0.
         24    2    3    3    0    0  0.13708476926E+02  0.22185003447E+02  0.72768536301E+02  0.11497167532E+03  0.85106577495E+02 0.  0.
         -6    2    1    2    0  502 -0.32551511921E+02 -0.19229507279E+03  0.73977648376E+02  0.27026759925E+03  0.17185716977E+03 0.  0.
        -24    2    5    5    0    0 -0.77605108040E+02 -0.17050444961E+03  0.35141523335E+02  0.20674600930E+03  0.80091607360E+02 0.  0.
          5    1    3    3  501    0  0.18843034995E+02  0.17011006934E+03  0.16462831338E+03  0.23752277201E+03  0.47000000000E+01 0. -1.
        -13    1    4    4    0    0 -0.23727452992E+02  0.12313160873E+02 -0.58253358087E+01  0.27359468078E+02  0.00000000000E+00 0.  1.
         14    1    4    4    0    0  0.37435929919E+02  0.98718425734E+01  0.78593872110E+02  0.87612207243E+02  0.00000000000E+00 0. -1.
         -5    1    5    5    0  502  0.45053596118E+02 -0.21790623179E+02  0.38836125041E+02  0.63521589951E+02  0.47000000000E+01 0.  1.
         11    1    6    6    0    0 -0.38695572245E+02 -0.69909829672E+02 -0.24397840919E+02  0.83546311933E+02  0.00000000000E+00 0. -1.
        -12    1    6    6    0    0 -0.38909535795E+02 -0.10059461994E+03  0.59539364254E+02  0.12319969737E+03  0.00000000000E+00 0.  1.
</event>
<event>
12    1  0.1032880E+000  0.2061356E+03  0.7818608E-02  0.1144884E+00
         21   -1    0    0  503  502  0.00000000000E+00  0.00000000000E+00  0.43252690993E+02  0.43252690993E+02  0.00000000000E+00 0. -1.
         21   -1    0    0  501  503 -0.00000000000E+00 -0.00000000000E+00 -0.14780640310E+04  0.14780640310E+04  0.00000000000E+00 0. -1.
          6    2    1    2  501    0 -0.98854493416E+02 -0.43984964589E+02 -0.27337557096E+03  0.34172996225E+03  0.17417886302E+03 0.  0.
         24    2    3    3    0    0 -0.10376597841E+03 -0.76007111337E+02 -0.26891546311E+03  0.30869175514E+03  0.80191110126E+02 0.  0.
         -6    2    1    2    0  502  0.98854493416E+02  0.43984964589E+02 -0.11614357690E+04  0.11795867597E+04  0.17545651929E+03 0.  0.
        -24    2    5    5    0    0  0.14637198734E+02  0.40357556382E+02 -0.90608419724E+03  0.91064024826E+03  0.80212899968E+02 0.  0.
          5    1    3    3  501    0  0.49114849900E+01  0.32022146749E+02 -0.44601078544E+01  0.33038207114E+02  0.47000000000E+01 0. -1.
        -13    1    4    4    0    0 -0.10956301984E+03 -0.42424033609E+02 -0.20956895945E+03  0.24025611899E+03  0.00000000000E+00 0.  1.
         14    1    4    4    0    0  0.57970414387E+01 -0.33583077728E+02 -0.59346503657E+02  0.68435636151E+02  0.00000000000E+00 0. -1.
         -5    1    5    5    0  502  0.84217294682E+02  0.36274082066E+01 -0.25535157180E+03  0.26894651148E+03  0.47000000000E+01 0.  1.
         11    1    6    6    0    0 -0.27448578886E+02  0.24623159864E+02 -0.21850552146E+03  0.22159509785E+03  0.00000000000E+00 0. -1.
        -12    1    6    6    0    0  0.42085777620E+02  0.15734396518E+02 -0.68757867578E+03  0.68904515041E+03  0.00000000000E+00 0.  1.
</event>
<event>
12    1  0.1032880E+000  0.2202231E+03  0.7818608E-02  0.1133956E+00
         21   -1    0    0  501  502  0.00000000000E+00  0.00000000000E+00  0.13279446828E+04  0.13279446828E+04  0.00000000000E+00 0. -1.
         21   -1    0    0  502  503 -0.00000000000E+00 -0.00000000000E+00 -0.54029106379E+02  0.54029106379E+02  0.00000000000E+00 0. -1.
         -6    2    1    2    0  503 -0.12907915644E+03  0.38548275205E+02  0.10339265531E+04  0.10571198285E+04  0.17421485676E+03 0.  0.
        -24    2    3    3    0    0 -0.76860412643E+02  0.93400623109E+02  0.69130802484E+03  0.70619943406E+03  0.78610788335E+02 0.  0.
          6    2    1    2  501    0  0.12907915644E+03 -0.38548275205E+02  0.23998902330E+03  0.32485396073E+03  0.17259190696E+03 0.  0.
         24    2    5    5    0    0  0.43008247875E+02 -0.82802613197E+02  0.11307185564E+03  0.16517708332E+03  0.76106781418E+02 0.  0.
          5    1    5    5  501    0  0.86070908562E+02  0.44254337992E+02  0.12691716767E+03  0.15967687741E+03  0.47000000000E+01 0. -1.
        -13    1    6    6    0    0 -0.66565737843E+01 -0.55028956541E+02  0.85624195182E+02  0.10199999428E+03  0.00000000000E+00 0.  1.
         14    1    6    6    0    0  0.49664821660E+02 -0.27773656656E+02  0.27447660455E+02  0.63177089035E+02  0.00000000000E+00 0. -1.
         -5    1    3    3    0  503 -0.52218743794E+02 -0.54852347904E+02  0.34261852831E+03  0.35092039441E+03  0.47000000000E+01 0.  1.
         13    1    4    4    0    0 -0.14810549101E+02 -0.10785101586E+02  0.44528935627E+02  0.48150772465E+02  0.00000000000E+00 0. -1.
        -14    1    4    4    0    0 -0.62049863542E+02  0.10418572470E+03  0.64677908921E+03  0.65804866160E+03  0.00000000000E+00 0.  1.
</event>
<event>
12    1  0.1032880E+000  0.2069606E+03  0.7818608E-02  0.1144092E+00
         21   -1    0    0  501  502  0.00000000000E+00  0.00000000000E+00  0.38009591433E+02  0.38009591433E+02  0.00000000000E+00 0. -1.
         21   -1    0    0  502  503 -0.00000000000E+00 -0.00000000000E+00 -0.23731905441E+04  0.23731905441E+04  0.00000000000E+00 0. -1.
         -6    2    1    2    0  503  0.10255684636E+03 -0.54731302155E+02 -0.29237884712E+03  0.35794098948E+03  0.17065444482E+03 0.  0.
        -24    2    3    3    0    0  0.38763474288E+02  0.11907405067E+02 -0.22789893015E+03  0.24529081721E+03  0.81149672889E+02 0.  0.
          6    2    1    2  501    0 -0.10255684636E+03  0.54731302155E+02 -0.20428021055E+04  0.20532591460E+04  0.17122866655E+03 0.  0.
         24    2    5    5    0    0 -0.10361878360E+03  0.85997796450E+02 -0.12348757049E+04  0.12447136122E+04  0.79129619285E+02 0.  0.
          5    1    5    5  501    0  0.10619372438E+01 -0.31266494295E+02 -0.80792640063E+03  0.80854553379E+03  0.47000000000E+01 0. -1.
        -13    1    6    6    0    0 -0.52451902989E+02  0.19407251090E+02 -0.24594573174E+03  0.25222439708E+03  0.00000000000E+00 0.  1.
         14    1    6    6    0    0 -0.51166880610E+02  0.66590545360E+02 -0.98892997313E+03  0.99248921514E+03  0.00000000000E+00 0. -1.
         -5    1    3    3    0  503  0.63793372067E+02 -0.66638707222E+02 -0.64479916970E+02  0.11265017227E+03  0.47000000000E+01 0.  1.
         11    1    4    4    0    0  0.25628877830E+02  0.15103621862E+02 -0.17613979437E+02  0.34571824421E+02  0.00000000000E+00 0. -1.
        -12    1    4    4    0    0  0.13134596458E+02 -0.31962167951E+01 -0.21028495071E+03  0.21071899279E+03  0.00000000000E+00 0.  1.
</event>
<event>
12    1  0.1032880E+000  0.3348795E+03  0.7818608E-02  0.1069019E+00
         21   -1    0    0  503  502  0.00000000000E+00  0.00000000000E+00  0.39243005725E+03  0.39243005725E+03  0.00000000000E+00 0. -1.
         21   -1    0    0  501  503 -0.00000000000E+00 -0.00000000000E+00 -0.30051911270E+03  0.30051911270E+03  0.00000000000E+00 0. -1.
          6    2    1    2  501    0 -0.74101245231E+02  0.27713621731E+03  0.12314696374E+03  0.35680449840E+03  0.17276804656E+03 0.  0.
         24    2    3    3    0    0 -0.16923506808E+02  0.24883201822E+03  0.13072050332E+03  0.29238501409E+03  0.78723364401E+02 0.  0.
         -6    2    1    2    0  502  0.74101245231E+02 -0.27713621731E+03 -0.31236019190E+02  0.33614467155E+03  0.17240091018E+03 0.  0.
        -24    2    5    5    0    0  0.26472590388E+02 -0.18402781588E+03  0.41237477649E+02  0.20881768729E+03  0.85657818682E+02 0.  0.
          5    1    3    3  501    0 -0.57177738423E+02  0.28304199087E+02 -0.75735395745E+01  0.64419484311E+02  0.47000000000E+01 0. -1.
        -13    1    4    4    0    0 -0.29429037910E+02  0.19473467355E+03  0.67378893463E+02  0.20815277236E+03  0.00000000000E+00 0.  1.
         14    1    4    4    0    0  0.12505531102E+02  0.54097344668E+02  0.63341609856E+02  0.84232241733E+02  0.00000000000E+00 0. -1.
         -5    1    5    5    0  502  0.47628654843E+02 -0.93108401427E+02 -0.72473496839E+02  0.12732698427E+03  0.47000000000E+01 0.  1.
         13    1    6    6    0    0  0.15302429028E+02  0.14891771474E+01  0.14347840112E+02  0.21029562492E+02  0.00000000000E+00 0. -1.
        -14    1    6    6    0    0  0.11170161360E+02 -0.18551699303E+03  0.26889637537E+02  0.18778812479E+03  0.00000000000E+00 0.  1.
</event>
<event>
12    1  0.1032880E+000  0.2440684E+03  0.7818608E-02  0.1117233E+00
         21   -1    0    0  501  502  0.00000000000E+00  0.00000000000E+00  0.85669775902E+03  0.85669775902E+03  0.00000000000E+00 0. -1.
         21   -1    0    0  502  503 -0.00000000000E+00 -0.00000000000E+00 -0.79748615627E+02  0.79748615627E+02  0.00000000000E+00 0. -1.
         -6    2    1    2    0  503  0.16342493765E+03  0.57539085047E+02  0.55725594345E+03  0.60806474912E+03  0.17085109323E+03 0.  0.
        -24    2    3    3    0    0  0.15014165977E+03  0.81781894649E+02  0.33776679399E+03  0.38679175932E+03  0.79313691490E+02 0.  0.
          6    2    1    2  501    0 -0.16342493765E+03 -0.57539085047E+02  0.21969319995E+03  0.32838162553E+03  0.17190384908E+03 0.  0.
         24    2    5    5    0    0 -0.49397500261E+02  0.24397008115E+02  0.10775612139E+03  0.14874928046E+03  0.86484910262E+02 0.  0.
          5    1    5    5  501    0 -0.11402743739E+03 -0.81936093163E+02  0.11193707856E+03  0.17963234507E+03  0.47000000000E+01 0. -1.
        -13    1    6    6    0    0 -0.60525533441E+02  0.87942805469E+01  0.28987405532E+02  0.67682710112E+02  0.00000000000E+00 0.  1.
         14    1    6    6    0    0  0.11128033180E+02  0.15602727568E+02  0.78768715855E+02  0.81066570345E+02  0.00000000000E+00 0. -1.
         -5    1    3    3    0  503  0.13283277880E+02 -0.24242809602E+02  0.21948914945E+03  0.22127298980E+03  0.47000000000E+01 0.  1.
         13    1    4    4    0    0  0.68490872286E+02  0.14981447758E+02  0.70359245994E+02  0.99327070128E+02  0.00000000000E+00 0. -1.
        -14    1    4    4    0    0  0.81650787484E+02  0.66800446891E+02  0.26740754800E+03  0.28746468919E+03  0.00000000000E+00 0.  1.
</event>
<event>
12    1  0.1032880E+000  0.1796035E+03  0.7818608E-02  0.1168215E+00
         21   -1    0    0  503  502  0.00000000000E+00  0.00000000000E+00  0.12423740995E+03  0.12423740995E+03  0.00000000000E+00 0. -1.
         21   -1    0    0  501  503 -0.00000000000E+00 -0.00000000000E+00 -0.53689280872E+03  0.53689280872E+03  0.00000000000E+00 0. -1.
          6    2    1    2  501    0  0.48984118616E+02  0.22062309613E+02  0.31321576984E+02  0.18220124559E+03  0.17126022110E+03 0.  0.
         24    2    3    3    0    0  0.65818929926E+02  0.24196507438E+02 -0.34597797799E+02  0.11397060992E+03  0.82913749193E+02 0.  0.
         -6    2    1    2    0  502 -0.48984118616E+02 -0.22062309613E+02 -0.44397697575E+03  0.47892897307E+03  0.17138032813E+03 0.  0.
        -24    2    5    5    0    0 -0.15058822942E+02 -0.22030043434E+02 -0.86557684194E+02  0.11987247793E+03  0.78518069956E+02 0.  0.
          5    1    3    3  501    0 -0.16834811310E+02 -0.21341978247E+01  0.65919374783E+02  0.68230635670E+02  0.47000000000E+01 0. -1.
        -11    1    4    4    0    0  0.77310369676E+02  0.32524302364E+00 -0.10248133613E+02  0.77987327721E+02  0.00000000000E+00 0.  1.
         12    1    4    4    0    0 -0.11491439750E+02  0.23871264414E+02 -0.24349664185E+02  0.35983282204E+02  0.00000000000E+00 0. -1.
         -5    1    5    5    0  502 -0.33925295674E+02 -0.32266179148E-01 -0.35741929156E+03  0.35905649514E+03  0.47000000000E+01 0.  1.
         11    1    6    6    0    0  0.10681245623E+02 -0.90920791447E+01 -0.89793604558E+02  0.90882596413E+02  0.00000000000E+00 0. -1.
        -12    1    6    6    0    0 -0.25740068565E+02 -0.12937964289E+02  0.32359203640E+01  0.28989881516E+02  0.00000000000E+00 0.  1.
</event>
<event>
12    1  0.1032880E+000  0.2731335E+03  0.7818608E-02  0.1099545E+00
         21   -1    0    0  503  502  0.00000000000E+00  0.00000000000E+00  0.25563785983E+03  0.25563785983E+03  0.00000000000E+00 0.  1.
         21   -1    0    0  501  503 -0.00000000000E+00 -0.00000000000E+00 -0.29806368483E+03  0.29806368483E+03  0.00000000000E+00 0.  1.
          6    2    1    2  501    0  0.19960642409E+03  0.71691320398E+02  0.19931057195E+02  0.27354033344E+03  0.17159457165E+03 0.  0.
         24    2    3    3    0    0  0.11033549709E+03  0.83544070487E+02  0.64893829245E+02  0.17277562254E+03  0.80539884765E+02 0.  0.
         -6    2    1    2    0  502 -0.19960642409E+03 -0.71691320398E+02 -0.62356882193E+02  0.28016121123E+03  0.17210332234E+03 0.  0.
        -24    2    5    5    0    0 -0.19189202167E+02 -0.78072747769E+01 -0.24785132338E+02  0.85057977942E+02  0.78685308714E+02 0.  0.
          5    1    3    3  501    0  0.89270927004E+02 -0.11852750089E+02 -0.44962772050E+02  0.10076471090E+03  0.47000000000E+01 0. -1.
        -13    1    4    4    0    0  0.21781482884E+02  0.48462451776E+02 -0.67911966170E+01  0.53564564595E+02  0.00000000000E+00 0.  1.
         14    1    4    4    0    0  0.88554014201E+02  0.35081618711E+02  0.71685025862E+02  0.11921105794E+03  0.00000000000E+00 0. -1.
         -5    1    5    5    0  502 -0.18041722192E+03 -0.63884045621E+02 -0.37571749856E+02  0.19510323328E+03  0.47000000000E+01 0.  1.
         11    1    6    6    0    0 -0.45130498480E+02 -0.23453588823E+02 -0.18480787613E+02  0.54114436452E+02  0.00000000000E+00 0. -1.
        -12    1    6    6    0    0  0.25941296312E+02  0.15646314046E+02 -0.63043447242E+01  0.30943541491E+02  0.00000000000E+00 0.  1.
</event>
<event>
12    1  0.1032880E+000  0.3252050E+03  0.7818608E-02  0.1073816E+00
         21   -1    0    0  503  502  0.00000000000E+00  0.00000000000E+00  0.84233650167E+02  0.84233650167E+02  0.00000000000E+00 0. -1.
         21   -1    0    0  501  503 -0.00000000000E+00 -0.00000000000E+00 -0.17062089712E+04  0.17062089712E+04  0.00000000000E+00 0. -1.
          6    2    1    2  501    0  0.27182807760E+03 -0.42926857418E+02 -0.33740403495E+03  0.46534576992E+03  0.16423149491E+03 0.  0.
         24    2    3    3    0    0  0.19469512826E+03  0.31428027823E+02 -0.22709947751E+03  0.31150388283E+03  0.81034452100E+02 0.  0.
         -6    2    1    2    0  502 -0.27182807760E+03  0.42926857418E+02 -0.12845712861E+04  0.13250968515E+04  0.17327740138E+03 0.  0.
        -24    2    5    5    0    0 -0.94066609047E+02 -0.26942408824E+02 -0.36576209685E+03  0.38663360215E+03  0.78289274408E+02 0.  0.
          5    1    3    3  501    0  0.77132949335E+02 -0.74354885241E+02 -0.11030455744E+03  0.15384188709E+03  0.47000000000E+01 0. -1.
        -11    1    4    4    0    0  0.14616004631E+03 -0.38066201428E+01 -0.12168683636E+03  0.19022338352E+03  0.00000000000E+00 0.  1.
         12    1    4    4    0    0  0.48535081952E+02  0.35234647966E+02 -0.10541264115E+03  0.12128049930E+03  0.00000000000E+00 0. -1.
         -5    1    5    5    0  502 -0.17776146855E+03  0.69869266242E+02 -0.91880918925E+03  0.93846324932E+03  0.47000000000E+01 0.  1.
         13    1    6    6    0    0 -0.90285501559E+01  0.10508204111E+02 -0.60562027686E+01  0.15120008715E+02  0.00000000000E+00 0. -1.
        -14    1    6    6    0    0 -0.85038058891E+02 -0.37450612935E+02 -0.35970589408E+03  0.37151359343E+03  0.00000000000E+00 0.  1.
</event>
<event>
12    1  0.1032880E+000  0.2182387E+03  0.7818608E-02  0.1135543E+00
         21   -1    0    0  501  502  0.00000000000E+00  0.00000000000E+00  0.86415368501E+02  0.86415368501E+02  0.00000000000E+00 0. -1.
         21   -1    0    0  502  503 -0.00000000000E+00 -0.00000000000E+00 -0.69900143479E+03  0.69900143479E+03  0.00000000000E+00 0. -1.
         -6    2    1    2    0  503 -0.11292832439E+03  0.66623894193E+02 -0.12194942446E+03  0.24843222372E+03  0.17220731091E+03 0.  0.
        -24    2    3    3    0    0  0.10367167634E+02  0.36905481477E+02 -0.51167788765E+02  0.10311501084E+03  0.80901607688E+02 0.  0.
          6    2    1    2  501    0  0.11292832439E+03 -0.66623894193E+02 -0.49063664183E+03  0.53698457957E+03  0.17446081125E+03 0.  0.
         24    2    5    5    0    0  0.72152474561E+02  0.85584844301E+01 -0.39092268044E+03  0.40553107418E+03  0.79722536325E+02 0.  0.
          5    1    5    5  501    0  0.40775849825E+02 -0.75182378623E+02 -0.99713961386E+02  0.13145350539E+03  0.47000000000E+01 0. -1.
        -11    1    6    6    0    0  0.81603878431E+02  0.27482655580E+02 -0.29538718948E+03  0.30768178536E+03  0.00000000000E+00 0.  1.
         12    1    6    6    0    0 -0.94514038704E+01 -0.18924171150E+02 -0.95535490960E+02  0.97849288816E+02  0.00000000000E+00 0. -1.
         -5    1    3    3    0  503 -0.12329549202E+03  0.29718412716E+02 -0.70781635695E+02  0.14531721288E+03  0.47000000000E+01 0.  1.
         11    1    4    4    0    0 -0.87788105804E+01  0.39702896823E+01  0.20107983030E+02  0.22297123064E+02  0.00000000000E+00 0. -1.
        -12    1    4    4    0    0  0.19145978215E+02  0.32935191794E+02 -0.71275771795E+02  0.80817887781E+02  0.00000000000E+00 0.  1.
</event>
<event>
12    1  0.1032880E+000  0.3706387E+03  0.7818608E-02  0.1054543E+00
         21   -1    0    0  503  502  0.00000000000E+00  0.00000000000E+00  0.66875573026E+02  0.66875573026E+02  0.00000000000E+00 0.  1.
         21   -1    0    0  501  503 -0.00000000000E+00 -0.00000000000E+00 -0.20620765809E+04  0.20620765809E+04  0.00000000000E+00 0.  1.
          6    2    1    2  501    0 -0.58507641344E+02 -0.32183147663E+03 -0.10820420200E+04  0.11434409060E+04  0.17217296283E+03 0.  0.
         24    2    3    3    0    0 -0.34280075126E+02 -0.73054241276E+02 -0.25358347582E+03  0.27808390618E+03  0.80709565405E+02 0.  0.
         -6    2    1    2    0  502  0.58507641344E+02  0.32183147663E+03 -0.91315898790E+03  0.98551124791E+03  0.17428264146E+03 0.  0.
        -24    2    5    5    0    0  0.36018530518E+02  0.92444037111E+02 -0.45696088049E+03  0.47437216632E+03  0.79827760488E+02 0.  0.
          5    1    3    3  501    0 -0.24227566218E+02 -0.24877723535E+03 -0.82845854414E+03  0.86535699983E+03  0.47000000000E+01 0. -1.
        -13    1    4    4    0    0 -0.32797365381E+02 -0.49528941536E+02 -0.24637369207E+03  0.25343397438E+03  0.00000000000E+00 0.  1.
         14    1    4    4    0    0 -0.14827097452E+01 -0.23525299740E+02 -0.72097837510E+01  0.24649931801E+02  0.00000000000E+00 0. -1.
         -5    1    5    5    0  502  0.22489110826E+02  0.22938743952E+03 -0.45619810742E+03  0.51113908159E+03  0.47000000000E+01 0.  1.
         13    1    6    6    0    0  0.34084755653E+02 -0.58701098269E+00 -0.11107916891E+03  0.11619249940E+03  0.00000000000E+00 0. -1.
        -14    1    6    6    0    0  0.19337748655E+01  0.93031048094E+02 -0.34588171157E+03  0.35817966692E+03  0.00000000000E+00 0.  1.
</event>
<event>
12    1  0.1032880E+000  0.2106961E+03  0.7818608E-02  0.1141481E+00
         21   -1    0    0  503  502  0.00000000000E+00  0.00000000000E+00  0.31104225234E+02  0.31104225234E+02  0.00000000000E+00 0.  1.
         21   -1    0    0  501  503 -0.00000000000E+00 -0.00000000000E+00 -0.14115895446E+04  0.14115895446E+04  0.00000000000E+00 0.  1.
          6    2    1    2  501    0 -0.75736035058E+02  0.96567301424E+02 -0.68548117972E+03  0.71713130139E+03  0.17126489711E+03 0.  0.
         24    2    3    3    0    0 -0.70338918323E+02  0.41912079367E+02 -0.62355865177E+03  0.63422887902E+03  0.81955432787E+02 0.  0.
         -6    2    1    2    0  502  0.75736035058E+02 -0.96567301424E+02 -0.69500413961E+03  0.72556246840E+03  0.16837146661E+03 0.  0.
        -24    2    5    5    0    0  0.56941174310E+01 -0.12672338417E+01 -0.39114768899E+03  0.39946615488E+03  0.80886744538E+02 0.  0.
          5    1    3    3  501    0 -0.53971167346E+01  0.54655222057E+02 -0.61922527945E+02  0.82902422367E+02  0.47000000000E+01 0. -1.
        -11    1    4    4    0    0  0.18321312705E+02  0.34621102291E+01 -0.12601647712E+03  0.12738841867E+03  0.00000000000E+00 0.  1.
         12    1    4    4    0    0 -0.88660231029E+02  0.38449969138E+02 -0.49754217465E+03  0.50684046035E+03  0.00000000000E+00 0. -1.
         -5    1    5    5    0  502  0.70041917627E+02 -0.95300067582E+02 -0.30385645062E+03  0.32609631351E+03  0.47000000000E+01 0.  1.
         11    1    6    6    0    0 -0.34919744301E+02 -0.39955766673E+01 -0.25352741833E+03  0.25595215378E+03  0.00000000000E+00 0. -1.
        -12    1    6    6    0    0  0.40613861732E+02  0.27283428256E+01 -0.13762027065E+03  0.14351400111E+03  0.00000000000E+00 0.  1.
</event>
<event>
12    1  0.1032880E+000  0.3427656E+03  0.7818608E-02  0.1065764E+00
         21   -1    0    0  503  502  0.00000000000E+00  0.00000000000E+00  0.13951330777E+04  0.13951330777E+04  0.00000000000E+00 0. -1.
         21   -1    0    0  501  503 -0.00000000000E+00 -0.00000000000E+00 -0.89078267273E+02  0.89078267273E+02  0.00000000000E+00 0. -1.
          6    2    1    2  501    0  0.29117633504E+03 -0.48076412391E+02  0.83337734396E+03  0.90111377130E+03  0.17433654779E+03 0.  0.
         24    2    3    3    0    0  0.19680392052E+03 -0.67965246226E+02  0.41128932813E+03  0.46812173738E+03  0.81412479071E+02 0.  0.
         -6    2    1    2    0  502 -0.29117633504E+03  0.48076412391E+02  0.47267746644E+03  0.58309757365E+03  0.17170845522E+03 0.  0.
        -24    2    5    5    0    0 -0.14992888063E+03  0.86794321844E+02  0.22595592516E+03  0.29614195195E+03  0.81437411784E+02 0.  0.
          5    1    3    3  501    0  0.94372414515E+02  0.19888833835E+02  0.42208801583E+03  0.43299203392E+03  0.47000000000E+01 0. -1.
        -11    1    4    4    0    0  0.77353392681E+02 -0.55115309756E+02  0.24667634247E+03  0.26433021519E+03  0.00000000000E+00 0.  1.
         12    1    4    4    0    0  0.11945052784E+03 -0.12849936470E+02  0.16461298566E+03  0.20379152219E+03  0.00000000000E+00 0. -1.
         -5    1    5    5    0  502 -0.14124745441E+03 -0.38717909454E+02  0.24672154129E+03  0.28695562170E+03  0.47000000000E+01 0.  1.
         11    1    6    6    0    0 -0.82448935346E+00  0.26394393012E+02  0.13522322349E+02  0.29668113639E+02  0.00000000000E+00 0. -1.
        -12    1    6    6    0    0 -0.14910439127E+03  0.60399928832E+02  0.21243360281E+03  0.26647383831E+03  0.00000000000E+00 0.  1.
</event>
<event>
12    1  0.1032880E+000  0.2068865E+03  0.7818608E-02  0.1144149E+00
         21   -1    0    0  501  502  0.00000000000E+00  0.00000000000E+00  0.24259548331E+03  0.24259548331E+03  0.00000000000E+00 0. -1.
         21   -1    0    0  502  503 -0.00000000000E+00 -0.00000000000E+00 -0.18321393434E+03  0.18321393434E+03  0.00000000000E+00 0.  1.
         -6    2    1    2    0  503 -0.10197615725E+03  0.51472536412E+02  0.71858314375E+02  0.21901058253E+03  0.17249191072E+03 0.  0.
        -24    2    3    3    0    0 -0.12012265477E+03  0.58576652815E+02  0.12252393941E+02  0.15612402122E+03  0.79774133665E+02 0.  0.
          6    2    1    2  501    0  0.10197615725E+03 -0.51472536412E+02 -0.12476765404E+02  0.20679883511E+03  0.17193466747E+03 0.  0.
         24    2    5    5    0    0  0.15068576218E+01 -0.52131570693E+02  0.23365237524E+02  0.10002218192E+03  0.82088557474E+02 0.  0.
          5    1    5    5  501    0  0.10046929963E+03  0.65903428128E+00 -0.35842002928E+02  0.10677665320E+03  0.47000000000E+01 0. -1.
        -11    1    6    6    0    0  0.21680253305E+02  0.97253674060E+01 -0.11287240837E+02  0.26306234247E+02  0.00000000000E+00 0.  1.
         12    1    6    6    0    0 -0.20173395684E+02 -0.61856938099E+02  0.34652478361E+02  0.73715947670E+02  0.00000000000E+00 0. -1.
         -5    1    3    3    0  503  0.18146497520E+02 -0.71041164032E+01  0.59605920435E+02  0.62886561307E+02  0.47000000000E+01 0.  1.
         11    1    4    4    0    0 -0.21866304182E+01 -0.15220856076E+02 -0.44367933446E+01  0.16004404002E+02  0.00000000000E+00 0. -1.
        -12    1    4    4    0    0 -0.11793602435E+03  0.73797508891E+02  0.16689187285E+02  0.14011961722E+03  0.00000000000E+00 0.  1.
</event>
<event>
12    1  0.1032880E+000  0.2296870E+03  0.7818608E-02  0.1127459E+00
         21   -1    0    0  501  502  0.00000000000E+00  0.00000000000E+00  0.90135899764E+03  0.90135899764E+03  0.00000000000E+00 0. -1.
         21   -1    0    0  502  503 -0.00000000000E+00 -0.00000000000E+00 -0.16853265110E+03  0.16853265110E+03  0.00000000000E+00 0. -1.
         -6    2    1    2    0  503 -0.14709177409E+03  0.12404532561E+02  0.80119947828E+03  0.83347267732E+03  0.17597226318E+03 0.  0.
        -24    2    3    3    0    0 -0.52680213785E+02  0.20827670259E+01  0.16664651072E+03  0.19183443018E+03  0.79055968918E+02 0.  0.
          6    2    1    2  501    0  0.14709177409E+03 -0.12404532561E+02 -0.68373131737E+02  0.23641897142E+03  0.17154935870E+03 0.  0.
         24    2    5    5    0    0  0.47537165223E+02  0.43818074602E+01 -0.93918121047E+02  0.13217148782E+03  0.79810440527E+02 0.  0.
          5    1    5    5  501    0  0.99554608865E+02 -0.16786340021E+02  0.25544989309E+02  0.10424748360E+03  0.47000000000E+01 0. -1.
        -11    1    6    6    0    0  0.26409051667E+02 -0.33617731263E+02 -0.21866471964E+02  0.48018043081E+02  0.00000000000E+00 0.  1.
         12    1    6    6    0    0  0.21128113557E+02  0.37999538723E+02 -0.72051649083E+02  0.84153444737E+02  0.00000000000E+00 0. -1.
         -5    1    3    3    0  503 -0.94411560302E+02  0.10321765535E+02  0.63455296756E+03  0.64163824714E+03  0.47000000000E+01 0.  1.
         11    1    4    4    0    0 -0.19982048258E+02 -0.27553249457E+02  0.13027384980E+03  0.13464672202E+03  0.00000000000E+00 0. -1.
        -12    1    4    4    0    0 -0.32698165527E+02  0.29636016483E+02  0.36372660925E+02  0.57187708160E+02  0.00000000000E+00 0.  1.
</event>
<event>
12    1  0.1032880E+000  0.3014020E+03  0.7818608E-02  0.1084570E+00
         21   -1    0    0  501  502  0.00000000000E+00  0.00000000000E+00  0.69208620582E+03  0.69208620582E+03  0.00000000000E+00 0.  1.
         21   -1    0    0  502  503 -0.00000000000E+00 -0.00000000000E+00 -0.23505100970E+03  0.23505100970E+03  0.00000000000E+00 0.  1.
         -6    2    1    2    0  503  0.25098935615E+02 -0.24554673571E+03 -0.79623510608E+02  0.31174203396E+03  0.17297409143E+03 0.  0.
        -24    2    3    3    0    0 -0.55768765304E+02 -0.15485675143E+03 -0.62210588961E+02  0.18890247135E+03  0.68725669559E+02 0.  0.
          6    2    1    2  501    0 -0.25098935615E+02  0.24554673571E+03  0.53665870673E+03  0.61539518156E+03  0.17258477912E+03 0.  0.
         24    2    5    5    0    0 -0.25417199944E+02  0.15509241159E+03  0.46688251082E+03  0.50105842648E+03  0.91545494992E+02 0.  0.
          5    1    5    5  501    0  0.31826432985E+00  0.90454324129E+02  0.69776195916E+02  0.11433675508E+03  0.47000000000E+01 0. -1.
        -11    1    6    6    0    0  0.70548217358E+01  0.12634747010E+02  0.30928653735E+01  0.14797741651E+02  0.00000000000E+00 0.  1.
         12    1    6    6    0    0 -0.32472021680E+02  0.14245766458E+03  0.46378964544E+03  0.48626068483E+03  0.00000000000E+00 0. -1.
         -5    1    3    3    0  503  0.80867700918E+02 -0.90689984280E+02 -0.17412921647E+02  0.12283956260E+03  0.47000000000E+01 0.  1.
         11    1    4    4    0    0 -0.52155098479E+02 -0.13331320665E+03 -0.24373555645E+02  0.14521238095E+03  0.00000000000E+00 0. -1.
        -12    1    4    4    0    0 -0.36136668249E+01 -0.21543544783E+02 -0.37837033316E+02  0.43690090409E+02  0.00000000000E+00 0.  1.
</event>
<event>
12    1  0.1032880E+000  0.4316370E+03  0.7818608E-02  0.1033360E+00
         21   -1    0    0  501  502  0.00000000000E+00  0.00000000000E+00  0.56226725392E+02  0.56226725392E+02  0.00000000000E+00 0.  1.
         21   -1    0    0  502  503 -0.00000000000E+00 -0.00000000000E+00 -0.33749458758E+04  0.33749458758E+04  0.00000000000E+00 0.  1.
         -6    2    1    2    0  503  0.16873725716E+03 -0.35785044589E+03 -0.14247503094E+04  0.14886411313E+04  0.17207489712E+03 0.  0.
        -24    2    3    3    0    0  0.18127142780E+03 -0.35925830575E+03 -0.14111803717E+04  0.14695277665E+04  0.78459891135E+02 0.  0.
          6    2    1    2  501    0 -0.16873725716E+03  0.35785044589E+03 -0.18939688410E+04  0.19425314699E+04  0.17257270082E+03 0.  0.
         24    2    5    5    0    0 -0.12271848972E+02  0.15227227233E+03 -0.68813050146E+03  0.70931940353E+03  0.79202184183E+02 0.  0.
          5    1    5    5  501    0 -0.15646540819E+03  0.20557817355E+03 -0.12058383395E+04  0.12332120663E+04  0.47000000000E+01 0. -1.
        -13    1    6    6    0    0  0.18335578549E+02  0.10752041674E+02 -0.40929823134E+02  0.46119955146E+02  0.00000000000E+00 0.  1.
         14    1    6    6    0    0 -0.30607427521E+02  0.14152023066E+03 -0.64720067833E+03  0.66319944838E+03  0.00000000000E+00 0. -1.
         -5    1    3    3    0  503 -0.12534170643E+02  0.14078598689E+01 -0.13569937713E+02  0.19113364765E+02  0.47000000000E+01 0.  1.
         11    1    4    4    0    0  0.30230069946E+02 -0.17490307630E+02 -0.90468114175E+02  0.96975500371E+02  0.00000000000E+00 0. -1.
        -12    1    4    4    0    0  0.15104135785E+03 -0.34176799812E+03 -0.13207122575E+04  0.13725522662E+04  0.00000000000E+00 0.  1.
</event>
<event>
12    1  0.1032880E+000  0.2183276E+03  0.7818608E-02  0.1135190E+00
         21   -1    0    0  501  502  0.00000000000E+00  0.00000000000E+00  0.92705843776E+03  0.92705843776E+03  0.00000000000E+00 0.  1.
         21   -1    0    0  502  503 -0.00000000000E+00 -0.00000000000E+00 -0.51859150082E+02  0.51859150082E+02  0.00000000000E+00 0. -1.
         -6    2    1    2    0  503 -0.77175602155E+02  0.10879554721E+03  0.38879146060E+03  0.44575765311E+03  0.17247765308E+03 0.  0.
        -24    2    3    3    0    0 -0.14283394175E+02  0.29460539994E+02  0.29618064967E+03  0.30846844925E+03  0.79736241336E+02 0.  0.
          6    2    1    2  501    0  0.77175602155E+02 -0.10879554721E+03  0.48640782707E+03  0.53315993472E+03  0.17284211610E+03 0.  0.
         24    2    5    5    0    0  0.97909323094E+02 -0.21578280943E+02  0.28180474876E+03  0.30972930035E+03  0.80414335276E+02 0.  0.
          5    1    5    5  501    0 -0.20733720940E+02 -0.87217266268E+02  0.20460307832E+03  0.22343063437E+03  0.47000000000E+01 0. -1.
        -11    1    6    6    0    0  0.24766238554E+01  0.15875134434E+02  0.97635345060E+02  0.98948543011E+02  0.00000000000E+00 0.  1.
         12    1    6    6    0    0  0.95432699239E+02 -0.37453415378E+02  0.18416940370E+03  0.21078075734E+03  0.00000000000E+00 0. -1.
         -5    1    3    3    0  503 -0.62892207979E+02  0.79335007217E+02  0.92610810937E+02  0.13728920386E+03  0.47000000000E+01 0.  1.
         11    1    4    4    0    0 -0.30033481052E+02 -0.84872806963E+01  0.50425163178E+02  0.59302116314E+02  0.00000000000E+00 0. -1.
        -12    1    4    4    0    0  0.15750086877E+02  0.37947820690E+02  0.24575548649E+03  0.24916633294E+03  0.00000000000E+00 0.  1.
</event>
<event>
12    1  0.1032880E+000  0.2319815E+03  0.7818608E-02  0.1125394E+00
         21   -1    0    0  503  502  0.00000000000E+00  0.00000000000E+00  0.79823253285E+03  0.79823253285E+03  0.00000000000E+00 0. -1.
         21   -1    0    0  501  503 -0.00000000000E+00 -0.00000000000E+00 -0.70102257504E+02  0.70102257504E+02  0.00000000000E+00 0. -1.
          6    2    1    2  501    0 -0.15008610125E+03 -0.34238830312E+02  0.45205700026E+03  0.50773548343E+03  0.17245768861E+03 0.  0.
         24    2    3    3    0    0 -0.89150156122E+02  0.41605791443E+02  0.31277763027E+03  0.33777540293E+03  0.81139291411E+02 0.  0.
         -6    2    1    2    0  502  0.15008610125E+03  0.34238830312E+02  0.27607327509E+03  0.36059930693E+03  0.17354328465E+03 0.  0.
        -24    2    5    5    0    0  0.11210396122E+03  0.63884899121E+02  0.10921745671E+03  0.18686247581E+03  0.79627592962E+02 0.  0.
          5    1    3    3  501    0 -0.60935945129E+02 -0.75844621755E+02  0.13927936999E+03  0.16996008050E+03  0.47000000000E+01 0. -1.
        -11    1    4    4    0    0 -0.54516949672E+02  0.29636904581E+02  0.75697952149E+02  0.97880661390E+02  0.00000000000E+00 0.  1.
         12    1    4    4    0    0 -0.34633206451E+02  0.11968886862E+02  0.23707967812E+03  0.23989474154E+03  0.00000000000E+00 0. -1.
         -5    1    5    5    0  502  0.37982140032E+02 -0.29646068809E+02  0.16685581838E+03  0.17373683111E+03  0.47000000000E+01 0.  1.
         13    1    6    6    0    0  0.74261960392E+02 -0.19627162606E+01  0.41409134690E+02  0.85049441222E+02  0.00000000000E+00 0. -1.
        -14    1    6    6    0    0  0.37842000828E+02  0.65847615381E+02  0.67808322017E+02  0.10181303459E+03  0.00000000000E+00 0.  1.
</event>
<event>
12    1  0.1032880E+000  0.1749137E+03  0.7818608E-02  0.1173280E+00
         21   -1    0    0  501  502  0.00000000000E+00  0.00000000000E+00  0.19145520173E+03  0.19145520173E+03  0.00000000000E+00 0. -1.
         21   -1    0    0  502  503 -0.00000000000E+00 -0.00000000000E+00 -0.16505844084E+03  0.16505844084E+03  0.00000000000E+00 0. -1.
         -6    2    1    2    0  503  0.70611408131E+01  0.28152409430E+02  0.49634075196E+02  0.18006312609E+03  0.17063636802E+03 0.  0.
        -24    2    3    3    0    0  0.24446417389E+02  0.17300984307E+02  0.96448954202E+02  0.12874330375E+03  0.79846641214E+02 0.  0.
          6    2    1    2  501    0 -0.70611408131E+01 -0.28152409430E+02 -0.23237314308E+02  0.17645051647E+03  0.17248882318E+03 0.  0.
         24    2    5    5    0    0 -0.70747064420E+01 -0.25096859505E+02 -0.82603943587E+02  0.11681979250E+03  0.78380792263E+02 0.  0.
          5    1    5    5  501    0  0.13565628833E-01 -0.30555499252E+01  0.59366629279E+02  0.59630723971E+02  0.47000000000E+01 0. -1.
        -11    1    6    6    0    0  0.12099184851E+02 -0.43650839197E+02 -0.21490887633E+02  0.50136257219E+02  0.00000000000E+00 0.  1.
         12    1    6    6    0    0 -0.19173891293E+02  0.18553979692E+02 -0.61113055954E+02  0.66683535282E+02  0.00000000000E+00 0. -1.
         -5    1    3    3    0  503 -0.17385276576E+02  0.10851425123E+02 -0.46814879006E+02  0.51319822342E+02  0.47000000000E+01 0.  1.
         11    1    4    4    0    0  0.42538518056E+02  0.14567725405E+02  0.18407902408E+02  0.48585954894E+02  0.00000000000E+00 0. -1.
        -12    1    4    4    0    0 -0.18092100668E+02  0.27332589029E+01  0.78041051795E+02  0.80157348858E+02  0.00000000000E+00 0.  1.
</event>
<event>
12    1  0.1032880E+000  0.2179553E+03  0.7818608E-02  0.1135603E+00
         21   -1    0    0  501  502  0.00000000000E+00  0.00000000000E+00  0.27492524732E+04  0.27492524732E+04  0.00000000000E+00 0.  1.
         21   -1    0    0  502  503 -0.00000000000E+00 -0.00000000000E+00 -0.27836586100E+02  0.27836586100E+02  0.00000000000E+00 0.  1.
         -6    2    1    2    0  503 -0.12246408836E+03 -0.47322446198E+02  0.50432948545E+03  0.54941126139E+03  0.17397596789E+03 0.  0.
        -24    2    3    3    0    0 -0.33200322254E+02 -0.46227337600E+02  0.40180169837E+03  0.41338458634E+03  0.78759020253E+02 0.  0.
          6    2    1    2  501    0  0.12246408836E+03  0.47322446198E+02  0.22170864016E+04  0.22276777979E+04  0.17274082330E+03 0.  0.
         24    2    5    5    0    0  0.15258290537E+02  0.18691746567E+02  0.49486988417E+03  0.50188388694E+03  0.80056460625E+02 0.  0.
          5    1    5    5  501    0  0.10720579783E+03  0.28630699631E+02  0.17222165175E+04  0.17257939110E+04  0.47000000000E+01 0. -1.
        -11    1    6    6    0    0 -0.15809356364E+02  0.16206285619E+02  0.42227382621E+03  0.42288031846E+03  0.00000000000E+00 0.  1.
         12    1    6    6    0    0  0.31067646901E+02  0.24854609481E+01  0.72596057966E+02  0.79003568478E+02  0.00000000000E+00 0. -1.
         -5    1    3    3    0  503 -0.89263766111E+02 -0.10951085982E+01  0.10252778707E+03  0.13602667505E+03  0.47000000000E+01 0.  1.
         11    1    4    4    0    0 -0.27399853030E+02  0.17924045292E+02  0.13899834896E+03  0.14280253625E+03  0.00000000000E+00 0. -1.
        -12    1    4    4    0    0 -0.58004692234E+01 -0.64151382891E+02  0.26280334942E+03  0.27058205010E+03  0.00000000000E+00 0.  1.
</event>
<event>
12    1  0.1032880E+000  0.3826062E+03  0.7818608E-02  0.1050107E+00
         21   -1    0    0  503  502  0.00000000000E+00  0.00000000000E+00  0.97707062321E+03  0.97707062321E+03  0.00000000000E+00 0. -1.
         21   -1    0    0  501  503 -0.00000000000E+00 -0.00000000000E+00 -0.35361065997E+03  0.35361065997E+03  0.00000000000E+00 0. -1.
          6    2    1    2  501    0  0.34135937032E+03  0.12742852060E+02  0.81776562668E+03  0.90284445053E+03  0.17233363480E+03 0.  0.
         24    2    3    3    0    0  0.31778656589E+03 -0.62344453897E+01  0.80538864733E+03  0.86981273024E+03  0.83043016991E+02 0.  0.
         -6    2    1    2    0  502 -0.34135937032E+03 -0.12742852060E+02 -0.19430566344E+03  0.42783683266E+03  0.16911849263E+03 0.  0.
        -24    2    5    5    0    0 -0.23665679708E+03  0.53089782373E+02 -0.11467520988E+03  0.28066460793E+03  0.82445459441E+02 0.  0.
          5    1    3    3  501    0  0.23572804428E+02  0.18977297450E+02  0.12376979347E+02  0.33031720283E+02  0.47000000000E+01 0. -1.
        -11    1    4    4    0    0  0.23487105486E+03  0.19564556590E+02  0.65555606741E+03  0.69663544398E+03  0.00000000000E+00 0.  1.
         12    1    4    4    0    0  0.82915511030E+02 -0.25799001980E+02  0.14983257992E+03  0.17317728627E+03  0.00000000000E+00 0. -1.
         -5    1    5    5    0  502 -0.10470257324E+03 -0.65832634434E+02 -0.79630453558E+02  0.14717222473E+03  0.47000000000E+01 0.  1.
         13    1    6    6    0    0  0.30358861113E+01  0.92999626669E-01 -0.15683629203E+02  0.15975026711E+02  0.00000000000E+00 0. -1.
        -14    1    6    6    0    0 -0.23969268320E+03  0.52996782747E+02 -0.98991580674E+02  0.26468958121E+03  0.00000000000E+00 0.  1.
</event>
<event>
12    1  0.1032880E+000  0.2649021E+03  0.7818608E-02  0.1104305E+00
         21   -1    0    0  501  502  0.00000000000E+00  0.00000000000E+00  0.13988241752E+04  0.13988241752E+04  0.00000000000E+00 0. -1.
         21   -1    0    0  502  503 -0.00000000000E+00 -0.00000000000E+00 -0.86326035898E+02  0.86326035898E+02  0.00000000000E+00 0. -1.
         -6    2    1    2    0  503  0.19888216743E+03 -0.26221710741E+02  0.11371118577E+04  0.11674498943E+04  0.17226196412E+03 0.  0.
        -24    2    3    3    0    0  0.62267446912E+02  0.46182787132E+02  0.48548869724E+03  0.49771798798E+03  0.77548924169E+02 0.  0.
          6    2    1    2  501    0 -0.19888216743E+03  0.26221710741E+02  0.17538628159E+03  0.31770031673E+03  0.17300707743E+03 0.  0.
         24    2    5    5    0    0 -0.20105658257E+03  0.48658208691E+02  0.10830333942E+03  0.24677545753E+03  0.79857012487E+02 0.  0.
          5    1    5    5  501    0  0.21744151371E+01 -0.22436497950E+02  0.67082942174E+02  0.70924859197E+02  0.47000000000E+01 0. -1.
        -11    1    6    6    0    0 -0.10404720238E+03 -0.81021410549E+01  0.78227811738E+02  0.13042643729E+03  0.00000000000E+00 0.  1.
         12    1    6    6    0    0 -0.97009380184E+02  0.56760349746E+02  0.30075527683E+02  0.11634902025E+03  0.00000000000E+00 0. -1.
         -5    1    3    3    0  503  0.13661472052E+03 -0.72404497873E+02  0.65162316044E+03  0.66973190636E+03  0.47000000000E+01 0.  1.
         13    1    4    4    0    0  0.19217643383E+02  0.32549379626E+02  0.39279874201E+03  0.39461326847E+03  0.00000000000E+00 0. -1.
        -14    1    4    4    0    0  0.43049803530E+02  0.13633407506E+02  0.92689955237E+02  0.10310471951E+03  0.00000000000E+00 0.  1.
</event>
<event>
12    1  0.1032880E+000  0.2598578E+03  0.7818608E-02  0.1107492E+00
         21   -1    0    0  503  502  0.00000000000E+00  0.00000000000E+00  0.15100003786E+04  0.15100003786E+04  0.00000000000E+00 0.  1.
         21   -1    0    0  501  503 -0.00000000000E+00 -0.00000000000E+00 -0.11898318984E+03  0.11898318984E+03  0.00000000000E+00 0.  1.
          6    2    1    2  501    0  0.40782191819E+02  0.19045968455E+03  0.13411557033E+04  0.13660983562E+04  0.17201168511E+03 0.  0.
         24    2    3    3    0    0 -0.99535601911E+01  0.13749962620E+03  0.58065006863E+03  0.60205006281E+03  0.79401230300E+02 0.  0.
         -6    2    1    2    0  502 -0.40782191819E+02 -0.19045968455E+03  0.49861485467E+02  0.26288521221E+03  0.16936466119E+03 0.  0.
        -24    2    5    5    0    0  0.30505983294E+02 -0.15374408179E+03  0.50479879644E+02  0.18255768388E+03  0.78811369683E+02 0.  0.
          5    1    3    3  501    0  0.50735752010E+02  0.52960058343E+02  0.76050563467E+03  0.76404829342E+03  0.47000000000E+01 0. -1.
        -13    1    4    4    0    0  0.14451235894E+02  0.14553558061E+02  0.20534777816E+03  0.20636946060E+03  0.00000000000E+00 0.  1.
         14    1    4    4    0    0 -0.24404796085E+02  0.12294606814E+03  0.37530229046E+03  0.39568060222E+03  0.00000000000E+00 0. -1.
         -5    1    5    5    0  502 -0.71288175113E+02 -0.36715602753E+02 -0.61839417643E+00  0.80327528332E+02  0.47000000000E+01 0.  1.
         13    1    6    6    0    0  0.69989152175E+01 -0.99042377365E+02 -0.73444482834E+01  0.99560625997E+02  0.00000000000E+00 0. -1.
        -14    1    6    6    0    0  0.23507068077E+02 -0.54701704429E+02  0.57824327927E+02  0.82997057882E+02  0.00000000000E+00 0.  1.
</event>
<event>
12    1  0.1032880E+000  0.2293454E+03  0.7818608E-02  0.1127220E+00
         21   -1    0    0  501  502  0.00000000000E+00  0.00000000000E+00  0.40946811733E+03  0.40946811733E+03  0.00000000000E+00 0. -1.
         21   -1    0    0  502  503 -0.00000000000E+00 -0.00000000000E+00 -0.12878654984E+03  0.12878654984E+03  0.00000000000E+00 0. -1.
         -6    2    1    2    0  503 -0.10791229296E+03 -0.10542941052E+03  0.12064451455E+03  0.25914164747E+03  0.17273931513E+03 0.  0.
        -24    2    3    3    0    0 -0.77307655194E+02 -0.13251885130E+03  0.13472496109E+03  0.21565796514E+03  0.69424947155E+02 0.  0.
          6    2    1    2  501    0  0.10791229296E+03  0.10542941052E+03  0.16003705294E+03  0.27911301969E+03  0.17184817682E+03 0.  0.
         24    2    5    5    0    0  0.30594184000E+02 -0.81247730815E+01  0.92715471789E+02  0.12605444308E+03  0.79319278110E+02 0.  0.
          5    1    5    5  501    0  0.77318108956E+02  0.11355418360E+03  0.67321581153E+02  0.15305857661E+03  0.47000000000E+01 0. -1.
        -13    1    6    6    0    0  0.38230840684E+02 -0.14995479763E+02  0.94267316025E+01  0.42134604086E+02  0.00000000000E+00 0.  1.
         14    1    6    6    0    0 -0.76366566839E+01  0.68707066816E+01  0.83288740187E+02  0.83919838998E+02  0.00000000000E+00 0. -1.
         -5    1    3    3    0  503 -0.30604637762E+02  0.27089440786E+02 -0.14080446535E+02  0.43483682333E+02  0.47000000000E+01 0.  1.
         13    1    4    4    0    0 -0.47379817463E+02 -0.99704299103E+02  0.13067578252E+03  0.17106125950E+03  0.00000000000E+00 0. -1.
        -14    1    4    4    0    0 -0.29927837732E+02 -0.32814552198E+02  0.40491785611E+01  0.44596705643E+02  0.00000000000E+00 0.  1.
</event>
<event>
12    1  0.1032880E+000  0.1842309E+03  0.7818608E-02  0.1165316E+00
         21   -1    0    0  501  502  0.00000000000E+00  0.00000000000E+00  0.14282381235E+03  0.14282381235E+03  0.00000000000E+00 0.  1.
         21   -1    0    0  502  503 -0.00000000000E+00 -0.00000000000E+00 -0.23238793759E+03  0.23238793759E+03  0.00000000000E+00 0.  1.
         -6    2    1    2    0  503 -0.23166523482E+02  0.41030004470E+02 -0.65327982478E+02  0.18939347947E+03  0.17141177233E+03 0.  0.
        -24    2    3    3    0    0 -0.44061737760E+02 -0.28517863677E+02 -0.66505830591E+01  0.95912769451E+02  0.80002023760E+02 0.  0.
          6    2    1    2  501    0  0.23166523482E+02 -0.41030004470E+02 -0.24236142764E+02  0.18581827047E+03  0.17810359330E+03 0.  0.
         24    2    5    5    0    0  0.47929881274E+02 -0.47010696223E+02  0.44718121019E+02  0.11215842349E+03  0.77926391768E+02 0.  0.
          5    1    5    5  501    0 -0.24763357792E+02  0.59806917533E+01 -0.68954263783E+02  0.73659846978E+02  0.47000000000E+01 0. -1.
        -11    1    6    6    0    0  0.21698760831E+02 -0.13563850998E+02  0.61382237396E+02  0.66502581478E+02  0.00000000000E+00 0.  1.
         12    1    6    6    0    0  0.26231120444E+02 -0.33446845225E+02 -0.16664116377E+02  0.45655842013E+02  0.00000000000E+00 0. -1.
         -5    1    3    3    0  503  0.20895214278E+02  0.69547868146E+02 -0.58677399419E+02  0.93480710021E+02  0.47000000000E+01 0.  1.
         13    1    4    4    0    0 -0.54312941992E+01 -0.49850610551E+02 -0.11708942899E+02  0.51494481965E+02  0.00000000000E+00 0. -1.
        -14    1    4    4    0    0 -0.38630443561E+02  0.21332746875E+02  0.50583598401E+01  0.44418287486E+02  0.00000000000E+00 0.  1.
</event>
<event>
12    1  0.1032880E+000  0.1958231E+03  0.7818608E-02  0.1154730E+00
         21   -1    0    0  501  502  0.00000000000E+00  0.00000000000E+00  0.56411088916E+03  0.56411088916E+03  0.00000000000E+00 0.  1.
         21   -1    0    0  502  503 -0.00000000000E+00 -0.00000000000E+00 -0.68921503949E+02  0.68921503949E+02  0.00000000000E+00 0.  1.
         -6    2    1    2    0  503 -0.33252141240E+02  0.72070667120E+02  0.31926819759E+03  0.37453819891E+03  0.17901618500E+03 0.  0.
        -24    2    3    3    0    0 -0.25903764011E+02  0.14707498570E+02  0.30311206201E+03  0.31430828548E+03  0.77623840963E+02 0.  0.
          6    2    1    2  501    0  0.33252141240E+02 -0.72070667120E+02  0.17592118762E+03  0.25849419420E+03  0.17196249075E+03 0.  0.
         24    2    5    5    0    0 -0.19450199806E+02 -0.97357048401E+02  0.11400834059E+03  0.17321683228E+03  0.84554503804E+02 0.  0.
          5    1    5    5  501    0  0.52702341046E+02  0.25286381281E+02  0.61912847026E+02  0.85277361924E+02  0.47000000000E+01 0. -1.
        -13    1    6    6    0    0 -0.99574061653E+00 -0.16925821438E+02  0.83551546340E+02  0.85254535518E+02  0.00000000000E+00 0.  1.
         14    1    6    6    0    0 -0.18454459190E+02 -0.80431226963E+02  0.30456794252E+02  0.87962296758E+02  0.00000000000E+00 0. -1.
         -5    1    3    3    0  503 -0.73483772288E+01  0.57363168551E+02  0.16156135588E+02  0.60229913425E+02  0.47000000000E+01 0.  1.
         11    1    4    4    0    0  0.11170374441E+02  0.37614341789E+02  0.15753880696E+03  0.16235175290E+03  0.00000000000E+00 0. -1.
        -12    1    4    4    0    0 -0.37074138452E+02 -0.22906843219E+02  0.14557325505E+03  0.15195653258E+03  0.00000000000E+00 0.  1.
</event>
<event>
12    1  0.1032880E+000  0.2184005E+03  0.7818608E-02  0.1135158E+00
         21   -1    0    0  501  502  0.00000000000E+00  0.00000000000E+00  0.11692701066E+03  0.11692701066E+03  0.00000000000E+00 0.  1.
         21   -1    0    0  502  503 -0.00000000000E+00 -0.00000000000E+00 -0.41240925328E+03  0.41240925328E+03  0.00000000000E+00 0.  1.
         -6    2    1    2    0  503 -0.22463647638E+02  0.13233820319E+03 -0.11779010611E+03  0.24778115237E+03  0.17176430038E+03 0.  0.
        -24    2    3    3    0    0 -0.53521414675E+02  0.15264518581E+03 -0.90520810665E+02  0.20149224538E+03  0.78993754209E+02 0.  0.
          6    2    1    2  501    0  0.22463647638E+02 -0.13233820319E+03 -0.17769213650E+03  0.28155511157E+03  0.17228107843E+03 0.  0.
         24    2    5    5    0    0 -0.18214687499E+02 -0.27065932046E+02 -0.20475509446E+02  0.87967571046E+02  0.79086709064E+02 0.  0.
          5    1    5    5  501    0  0.40678335137E+02 -0.10527227115E+03 -0.15721662706E+03  0.19358754052E+03  0.47000000000E+01 0. -1.
        -11    1    6    6    0    0  0.51796072742E+01 -0.26315960236E+01  0.28144123014E+02  0.28737524065E+02  0.00000000000E+00 0.  1.
         12    1    6    6    0    0 -0.23394294773E+02 -0.24434336022E+02 -0.48619632461E+02  0.59230046981E+02  0.00000000000E+00 0. -1.
         -5    1    3    3    0  503  0.31057767037E+02 -0.20306982621E+02 -0.27269295445E+02  0.46288906993E+02  0.47000000000E+01 0.  1.
         11    1    4    4    0    0 -0.57771184406E+02  0.11955823988E+03 -0.36003751898E+02  0.13757889598E+03  0.00000000000E+00 0. -1.
        -12    1    4    4    0    0  0.42497697310E+01  0.33086945939E+02 -0.54517058768E+02  0.63913349396E+02  0.00000000000E+00 0.  1.
</event>
<event>
12    1  0.1032880E+000  0.1915017E+03  0.7818608E-02  0.1157337E+00
         21   -1    0    0  503  502  0.00000000000E+00  0.00000000000E+00  0.37744237448E+02  0.37744237448E+02  0.00000000000E+00 0.  1.
         21   -1    0    0  501  503 -0.00000000000E+00 -0.00000000000E+00 -0.96834204525E+03  0.96834204525E+03  0.00000000000E+00 0.  1.
          6    2    1    2  501    0  0.72091010013E+01  0.83820827846E+02 -0.48803566021E+03  0.52426300634E+03  0.17203195010E+03 0.  0.
         24    2    3    3    0    0 -0.31531610169E+02  0.69636707618E+02 -0.16827841634E+03  0.20182104725E+03  0.81059214281E+02 0.  0.
         -6    2    1    2    0  502 -0.72091010013E+01 -0.83820827846E+02 -0.44256214759E+03  0.48182327637E+03  0.17092253464E+03 0.  0.
        -24    2    5    5    0    0  0.50242741772E+02 -0.77811797033E+02 -0.22054470122E+03  0.25236596186E+03  0.80433852374E+02 0.  0.
          5    1    3    3  501    0  0.38740711171E+02  0.14184120228E+02 -0.31975724388E+03  0.32244195909E+03  0.47000000000E+01 0. -1.
        -11    1    4    4    0    0 -0.35168153368E+01  0.20615577614E+02  0.33174420102E+01  0.21174877850E+02  0.00000000000E+00 0.  1.
         12    1    4    4    0    0 -0.28014794833E+02  0.49021130004E+02 -0.17159585835E+03  0.18064616940E+03  0.00000000000E+00 0. -1.
         -5    1    5    5    0  502 -0.57451842773E+02 -0.60090308135E+01 -0.22201744637E+03  0.22945731451E+03  0.47000000000E+01 0.  1.
         11    1    6    6    0    0 -0.17229836061E+02 -0.12819647552E+02 -0.84491959100E+02  0.87178562540E+02  0.00000000000E+00 0. -1.
        -12    1    6    6    0    0  0.67472577833E+02 -0.64992149481E+02 -0.13605274212E+03  0.16518739932E+03  0.00000000000E+00 0.  1.
</event>
<event>
12    1  0.1032880E+000  0.1979185E+03  0.7818608E-02  0.1151627E+00
         21   -1    0    0  501  502  0.00000000000E+00  0.00000000000E+00  0.31000511992E+03  0.31000511992E+03  0.00000000000E+00 0.  1.
         21   -1    0    0  502  503 -0.00000000000E+00 -0.00000000000E+00 -0.12900517499E+03  0.12900517499E+03  0.00000000000E+00 0.  1.
         -6    2    1    2    0  503 -0.16251581541E+02  0.94697263877E+02  0.12387075656E+03  0.23301160483E+03  0.17239129319E+03 0.  0.
        -24    2    3    3    0    0 -0.61674489663E+02  0.11137579667E+03  0.84422500681E+02  0.17040434543E+03  0.75512724496E+02 0.  0.
          6    2    1    2  501    0  0.16251581541E+02 -0.94697263877E+02  0.57129188362E+02  0.20599869008E+03  0.17303187702E+03 0.  0.
         24    2    5    5    0    0 -0.16240785270E+01 -0.12147681178E+03  0.81553246974E+02  0.16531321297E+03  0.76930311699E+02 0.  0.
          5    1    5    5  501    0  0.17875660068E+02  0.26779547905E+02 -0.24424058611E+02  0.40685477113E+02  0.47000000000E+01 0. -1.
        -11    1    6    6    0    0 -0.15601033372E+02  0.11695414821E+01  0.25099996815E+02  0.29576509423E+02  0.00000000000E+00 0.  1.
         12    1    6    6    0    0  0.13976954845E+02 -0.12264635326E+03  0.56453250159E+02  0.13573670355E+03  0.00000000000E+00 0. -1.
         -5    1    3    3    0  503  0.45422908122E+02 -0.16678532788E+02  0.39448255883E+02  0.62607259406E+02  0.47000000000E+01 0.  1.
         11    1    4    4    0    0 -0.16529772988E+02  0.89561628511E+02  0.77895384447E+02  0.11984243662E+03  0.00000000000E+00 0. -1.
        -12    1    4    4    0    0 -0.45144716674E+02  0.21814168154E+02  0.65271162333E+01  0.50561908807E+02  0.00000000000E+00 0.  1.
</event>
<event>
12    1  0.1032880E+000  0.2478365E+03  0.7818608E-02  0.1115231E+00
         21   -1    0    0  503  502  0.00000000000E+00  0.00000000000E+00  0.18693645390E+03  0.18693645390E+03  0.00000000000E+00 0.  1.
         21   -1    0    0  501  503 -0.00000000000E+00 -0.00000000000E+00 -0.39763174139E+03  0.39763174139E+03  0.00000000000E+00 0.  1.
          6    2    1    2  501    0  0.45231272792E+02  0.17232234518E+03  0.19782870965E+02  0.24862481181E+03  0.17228486985E+03 0.  0.
         24    2    3    3    0    0 -0.16761041171E+02  0.16209251783E+03  0.33012721057E+02  0.18424457190E+03  0.79380763943E+02 0.  0.
         -6    2    1    2    0  502 -0.45231272792E+02 -0.17232234518E+03 -0.23047815846E+03  0.33594338348E+03  0.16732279190E+03 0.  0.
        -24    2    5    5    0    0  0.18168683478E+02 -0.78237296156E+02 -0.18426569704E+03  0.21334961326E+03  0.71505487921E+02 0.  0.
          5    1    3    3  501    0  0.61992313963E+02  0.10229827352E+02 -0.13229850092E+02  0.64380239916E+02  0.47000000000E+01 0. -1.
        -11    1    4    4    0    0  0.16162258604E+02  0.11402919196E+03  0.46902813095E+02  0.12435332364E+03  0.00000000000E+00 0.  1.
         12    1    4    4    0    0 -0.32923299775E+02  0.48063325869E+02 -0.13890092038E+02  0.59891248263E+02  0.00000000000E+00 0. -1.
         -5    1    5    5    0  502 -0.63399956270E+02 -0.94085049029E+02 -0.46212461413E+02  0.12259377022E+03  0.47000000000E+01 0.  1.
         13    1    6    6    0    0  0.12669131230E+02  0.30993979436E+01 -0.79701440294E+02  0.80761579595E+02  0.00000000000E+00 0. -1.
        -14    1    6    6    0    0  0.54995522479E+01 -0.81336694100E+02 -0.10456425675E+03  0.13258803367E+03  0.00000000000E+00 0.  1.
</event>
<event>
12    1  0.1032880E+000  0.2119509E+03  0.7818608E-02  0.1140406E+00
         21   -1    0    0  503  502  0.00000000000E+00  0.00000000000E+00  0.27923435642E+03  0.27923435642E+03  0.00000000000E+00 0.  1.
         21   -1    0    0  501  503 -0.00000000000E+00 -0.00000000000E+00 -0.20958360588E+03  0.20958360588E+03  0.00000000000E+00 0.  1.
          6    2    1    2  501    0  0.55018964930E+02 -0.11084693072E+03  0.15426293388E+03  0.26060221802E+03  0.16971250606E+03 0.  0.
         24    2    3    3    0    0  0.49548248298E+02 -0.38563818558E+02  0.15717455566E+03  0.18790184260E+03  0.81615344718E+02 0.  0.
         -6    2    1    2    0  502 -0.55018964930E+02  0.11084693072E+03 -0.84612183341E+02  0.22821574429E+03  0.17207287938E+03 0.  0.
        -24    2    5    5    0    0 -0.22425466012E+02  0.10453079048E+02  0.84673389321E+01  0.87406834443E+02  0.83403180342E+02 0.  0.
          5    1    3    3  501    0  0.54707166323E+01 -0.72283112164E+02 -0.29116217787E+01  0.72700375418E+02  0.47000000000E+01 0. -1.
        -13    1    4    4    0    0 -0.18330973539E+02 -0.28976546105E+02  0.56941557050E+02  0.66468080568E+02  0.00000000000E+00 0.  1.
         14    1    4    4    0    0  0.67879221837E+02 -0.95872724530E+01  0.10023299861E+03  0.12143376203E+03  0.00000000000E+00 0. -1.
         -5    1    5    5    0  502 -0.32593498918E+02  0.10039385167E+03 -0.93079522273E+02  0.14080890985E+03  0.47000000000E+01 0.  1.
         13    1    6    6    0    0  0.20679729382E+02  0.32477583998E+02  0.56963779929E+01  0.38921631413E+02  0.00000000000E+00 0. -1.
        -14    1    6    6    0    0 -0.43105195395E+02 -0.22024504949E+02  0.27709609393E+01  0.48485203029E+02  0.00000000000E+00 0.  1.
</event>
<event>
12    1  0.1032880E+000  0.3460830E+03  0.7818608E-02  0.1064627E+00
         21   -1    0    0  501  502  0.00000000000E+00  0.00000000000E+00  0.12845101023E+04  0.12845101023E+04  0.00000000000E+00 0. -1.
         21   -1    0    0  502  503 -0.00000000000E+00 -0.00000000000E+00 -0.21735594287E+03  0.21735594287E+03  0.00000000000E+00 0.  1.
         -6    2    1    2    0  503 -0.19618587368E+03 -0.22195449463E+03 -0.37394670348E+02  0.34436808217E+03  0.17157598879E+03 0.  0.
        -24    2    3    3    0    0 -0.19377207697E+03 -0.15594895036E+03 -0.75942097361E+02  0.26774855191E+03  0.63674107498E+02 0.  0.
          6    2    1    2  501    0  0.19618587368E+03  0.22195449463E+03  0.11045488298E+04  0.11574979631E+04  0.17894334939E+03 0.  0.
         24    2    5    5    0    0  0.31031435324E+02  0.10085663547E+03  0.30790216164E+03  0.33493569554E+03  0.79013721024E+02 0.  0.
          5    1    5    5  501    0  0.16515443836E+03  0.12109785915E+03  0.79664666819E+03  0.82256226751E+03  0.47000000000E+01 0. -1.
        -13    1    6    6    0    0  0.27980253714E+02  0.68196249905E+02  0.98757181010E+02  0.12323393972E+03  0.00000000000E+00 0.  1.
         14    1    6    6    0    0  0.30511816101E+01  0.32660385569E+02  0.20914498063E+03  0.21170175582E+03  0.00000000000E+00 0. -1.
         -5    1    3    3    0  503 -0.24137967137E+01 -0.66005544267E+02  0.38547427013E+02  0.76619530264E+02  0.47000000000E+01 0.  1.
         13    1    4    4    0    0 -0.88987107974E+00 -0.23895045020E+01  0.71402141808E+01  0.75818375643E+01  0.00000000000E+00 0. -1.
        -14    1    4    4    0    0 -0.19288220589E+03 -0.15355944586E+03 -0.83082311542E+02  0.26016671434E+03  0.00000000000E+00 0.  1.
</event>
<event>
12    1  0.1032880E+000  0.3416468E+03  0.7818608E-02  0.1066109E+00
         21   -1    0    0  501  502  0.00000000000E+00  0.00000000000E+00  0.35913027989E+03  0.35913027989E+03  0.00000000000E+00 0. -1.
         21   -1    0    0  502  503 -0.00000000000E+00 -0.00000000000E+00 -0.38089558342E+03  0.38089558342E+03  0.00000000000E+00 0. -1.
         -6    2    1    2    0  503  0.28858219340E+03  0.61717733189E+02  0.13098739432E+03  0.36578540046E+03  0.17190840812E+03 0.  0.
        -24    2    3    3    0    0  0.59370059201E+02 -0.12347719814E+02  0.24139122792E+02  0.10222793629E+03  0.78680261783E+02 0.  0.
          6    2    1    2  501    0 -0.28858219340E+03 -0.61717733189E+02 -0.15275269784E+03  0.37424046284E+03  0.17214463800E+03 0.  0.
         24    2    5    5    0    0 -0.29643564631E+03 -0.72635531666E+02 -0.16397702844E+03  0.35610346630E+03  0.82287301513E+02 0.  0.
          5    1    5    5  501    0  0.78534529101E+01  0.10917798477E+02  0.11224330598E+02  0.18136996542E+02  0.47000000000E+01 0. -1.
        -11    1    6    6    0    0 -0.10488251208E+03 -0.58150136517E+02 -0.91268007884E+02  0.15070377892E+03  0.00000000000E+00 0.  1.
         12    1    6    6    0    0 -0.19155313423E+03 -0.14485395149E+02 -0.72709020556E+02  0.20539968738E+03  0.00000000000E+00 0. -1.
         -5    1    3    3    0  503  0.22921213420E+03  0.74065453003E+02  0.10684827153E+03  0.26355746418E+03  0.47000000000E+01 0.  1.
         13    1    4    4    0    0 -0.74096361659E+01  0.20641874518E+02 -0.45704032417E+01  0.22402639967E+02  0.00000000000E+00 0. -1.
        -14    1    4    4    0    0  0.66779695366E+02 -0.32989594332E+02  0.28709526034E+02  0.79825296320E+02  0.00000000000E+00 0.  1.
</event>
<event>
12    1  0.1032880E+000  0.1914125E+03  0.7818608E-02  0.1157626E+00
         21   -1    0    0  503  502  0.00000000000E+00  0.00000000000E+00  0.16595190006E+03  0.16595190006E+03  0.00000000000E+00 0.  1.
         21   -1    0    0  501  503 -0.00000000000E+00 -0.00000000000E+00 -0.21992099658E+03  0.21992099658E+03  0.00000000000E+00 0.  1.
          6    2    1    2  501    0  0.54643793346E+01  0.79387872549E+02 -0.42004079421E+02  0.19408682976E+03  0.17196819779E+03 0.  0.
         24    2    3    3    0    0 -0.30241546407E+01  0.39003516846E+02  0.43546272287E+02  0.98987386693E+02  0.79823587095E+02 0.  0.
         -6    2    1    2    0  502 -0.54643793346E+01 -0.79387872549E+02 -0.11965017106E+02  0.19178606688E+03  0.17408744947E+03 0.  0.
        -24    2    5    5    0    0 -0.66244450681E+02 -0.80997777014E+02 -0.17068087721E+02  0.13059015039E+03  0.76246315535E+02 0.  0.
          5    1    3    3  501    0  0.84885339753E+01  0.40384355703E+02 -0.85550351708E+02  0.95099443068E+02  0.47000000000E+01 0. -1.
        -11    1    4    4    0    0  0.15035227425E+02 -0.12139640848E+02 -0.10857777798E+02  0.22165745698E+02  0.00000000000E+00 0.  1.
         12    1    4    4    0    0 -0.18059382065E+02  0.51143157694E+02  0.54404050085E+02  0.76821640995E+02  0.00000000000E+00 0. -1.
         -5    1    5    5    0  502  0.60780071346E+02  0.16099044646E+01  0.51030706146E+01  0.61195916489E+02  0.47000000000E+01 0.  1.
         13    1    6    6    0    0 -0.24495815830E+02  0.75737069480E+01 -0.20171257047E+02  0.32623391010E+02  0.00000000000E+00 0. -1.
        -14    1    6    6    0    0 -0.41748634851E+02 -0.88571483962E+02  0.31031693262E+01  0.97966759378E+02  0.00000000000E+00 0.  1.
</event>
<event>
12    1  0.1032880E+000  0.1729699E+03  0.7818608E-02  0.1174817E+00
         21   -1    0    0  503  502  0.00000000000E+00  0.00000000000E+00  0.50369183905E+02  0.50369183905E+02  0.00000000000E+00 0.  1.
         21   -1    0    0  501  503 -0.00000000000E+00 -0.00000000000E+00 -0.84607945376E+03  0.84607945376E+03  0.00000000000E+00 0.  1.
          6    2    1    2  501    0 -0.14541293125E+02  0.60245281882E+01 -0.15288839766E+03  0.23076211667E+03  0.17212945188E+03 0.  0.
         24    2    3    3    0    0 -0.69397486031E+02  0.36743958377E+02 -0.10430380804E+03  0.15116665424E+03  0.76196741640E+02 0.  0.
         -6    2    1    2    0  502  0.14541293125E+02 -0.60245281882E+01 -0.64282187219E+03  0.66568652099E+03  0.17225225896E+03 0.  0.
        -24    2    5    5    0    0  0.54770199561E+02 -0.48195701298E+02 -0.50303862812E+03  0.51416682564E+03  0.77440705261E+02 0.  0.
          5    1    3    3  501    0  0.54856192906E+02 -0.30719430189E+02 -0.48584589619E+02  0.79595462432E+02  0.47000000000E+01 0. -1.
        -13    1    4    4    0    0  0.73150757538E+01 -0.13728149904E+02 -0.60726918885E+01  0.16698802947E+02  0.00000000000E+00 0.  1.
         14    1    4    4    0    0 -0.76712561785E+02  0.50472108281E+02 -0.98231116151E+02  0.13446785129E+03  0.00000000000E+00 0. -1.
         -5    1    5    5    0  502 -0.40228906436E+02  0.42171173110E+02 -0.13978324408E+03  0.15151969535E+03  0.47000000000E+01 0.  1.
         11    1    6    6    0    0  0.58195062935E+02 -0.17738101928E+01 -0.23422284577E+03  0.24135068517E+03  0.00000000000E+00 0. -1.
        -12    1    6    6    0    0 -0.34248633738E+01 -0.46421891105E+02 -0.26881578235E+03  0.27281614047E+03  0.00000000000E+00 0.  1.
</event>
<event>
12    1  0.1032880E+000  0.2068851E+03  0.7818608E-02  0.1145143E+00
         21   -1    0    0  501  502  0.00000000000E+00  0.00000000000E+00  0.61485694301E+02  0.61485694301E+02  0.00000000000E+00 0.  1.
         21   -1    0    0  502  503 -0.00000000000E+00 -0.00000000000E+00 -0.14553529626E+04  0.14553529626E+04  0.00000000000E+00 0.  1.
         -6    2    1    2    0  503 -0.11126084132E+03 -0.10782432812E+02 -0.14702506600E+03  0.25380664624E+03  0.17408678288E+03 0.  0.
        -24    2    3    3    0    0 -0.12480749103E+03 -0.54199064655E+02 -0.85961499025E+02  0.17752188465E+03  0.74901213527E+02 0.  0.
          6    2    1    2  501    0  0.11126084132E+03  0.10782432812E+02 -0.12468422023E+04  0.12630320107E+04  0.16774727078E+03 0.  0.
         24    2    5    5    0    0  0.40719926526E+02  0.49015166435E+02 -0.95249564690E+03  0.95790949879E+03  0.79259394007E+02 0.  0.
          5    1    5    5  501    0  0.70540914791E+02 -0.38232733623E+02 -0.29434655542E+03  0.30512251190E+03  0.47000000000E+01 0. -1.
        -11    1    6    6    0    0  0.63612431362E+02  0.36302258865E+02 -0.60245513354E+03  0.60689091553E+03  0.00000000000E+00 0.  1.
         12    1    6    6    0    0 -0.22892504837E+02  0.12712907570E+02 -0.35004051336E+03  0.35101858326E+03  0.00000000000E+00 0. -1.
         -5    1    3    3    0  503  0.13546649714E+02  0.43416631843E+02 -0.61063566970E+02  0.76284761586E+02  0.47000000000E+01 0.  1.
         13    1    4    4    0    0 -0.37354788913E+02 -0.51109376516E+02 -0.15506318266E+02  0.65176640975E+02  0.00000000000E+00 0. -1.
        -14    1    4    4    0    0 -0.87452702118E+02 -0.30896881392E+01 -0.70455180759E+02  0.11234524367E+03  0.00000000000E+00 0.  1.
</event>
<event>
12    1  0.1032880E+000  0.4291906E+03  0.7818608E-02  0.1034129E+00
         21   -1    0    0  503  502  0.00000000000E+00  0.00000000000E+00  0.74696167925E+03  0.74696167925E+03  0.00000000000E+00 0. -1.
         21   -1    0    0  501  503 -0.00000000000E+00 -0.00000000000E+00 -0.25959463709E+03  0.25959463709E+03  0.00000000000E+00 0. -1.
          6    2    1    2  501    0  0.32083983517E+03 -0.22706097924E+03  0.35672919529E+03  0.55808626635E+03  0.17236494362E+03 0.  0.
         24    2    3    3    0    0  0.79276971391E+02 -0.32386630075E+02  0.11815015345E+03  0.16668778834E+03  0.80570639945E+02 0.  0.
         -6    2    1    2    0  502 -0.32083983517E+03  0.22706097924E+03  0.13063784688E+03  0.44847005000E+03  0.17194257931E+03 0.  0.
        -24    2    5    5    0    0 -0.25739767306E+03  0.22214297796E+03  0.15217778419E+03  0.38112650116E+03  0.80611829980E+02 0.  0.
          5    1    3    3  501    0  0.24156286378E+03 -0.19467434917E+03  0.23857904183E+03  0.39139847800E+03  0.47000000000E+01 0. -1.
        -11    1    4    4    0    0  0.57334675659E+02 -0.50569908312E+02  0.46262327094E+02  0.89357616171E+02  0.00000000000E+00 0.  1.
         12    1    4    4    0    0  0.21942295732E+02  0.18183278237E+02  0.71887826361E+02  0.77330172173E+02  0.00000000000E+00 0. -1.
         -5    1    5    5    0  502 -0.63442162112E+02  0.49180012821E+01 -0.21539937317E+02  0.67343548835E+02  0.47000000000E+01 0.  1.
         13    1    6    6    0    0 -0.17239847000E+03  0.10323474508E+03  0.66294069399E+02  0.21159761031E+03  0.00000000000E+00 0. -1.
        -14    1    6    6    0    0 -0.84999203055E+02  0.11890823288E+03  0.85883714793E+02  0.16952889085E+03  0.00000000000E+00 0.  1.
</event>
<event>
12    1  0.1032880E+000  0.1774174E+03  0.7818608E-02  0.1170783E+00
         21   -1    0    0  503  502  0.00000000000E+00  0.00000000000E+00  0.84415060222E+03  0.84415060222E+03  0.00000000000E+00 0. -1.
         21   -1    0    0  501  503 -0.00000000000E+00 -0.00000000000E+00 -0.57593694970E+02  0.57593694970E+02  0.00000000000E+00 0. -1.
          6    2    1    2  501    0 -0.42752330318E+02  0.13582751726E+02  0.66220869002E+03  0.68508921492E+03  0.16974872712E+03 0.  0.
         24    2    3    3    0    0  0.32957216009E+02  0.36745820315E+01  0.21745412370E+03  0.23380347229E+03  0.79234380799E+02 0.  0.
         -6    2    1    2    0  502  0.42752330318E+02 -0.13582751726E+02  0.12434821723E+03  0.21665508228E+03  0.17165282595E+03 0.  0.
        -24    2    5    5    0    0  0.54419838262E+02  0.74535732563E+01  0.15322782769E+03  0.17877659748E+03  0.73927194441E+02 0.  0.
          5    1    3    3  501    0 -0.75709546327E+02  0.99081696941E+01  0.44475456633E+03  0.45128574263E+03  0.47000000000E+01 0. -1.
        -11    1    4    4    0    0  0.26392958459E+02 -0.28229792340E+01  0.13756331706E+02  0.29896389915E+02  0.00000000000E+00 0.  1.
         12    1    4    4    0    0  0.65642575504E+01  0.64975612656E+01  0.20369779199E+03  0.20390708237E+03  0.00000000000E+00 0. -1.
         -5    1    5    5    0  502 -0.11667507945E+02 -0.21036324982E+02 -0.28879610458E+02  0.37878484798E+02  0.47000000000E+01 0.  1.
         13    1    6    6    0    0  0.61560914529E+02  0.27059695065E+02  0.91046456845E+02  0.11318759030E+03  0.00000000000E+00 0. -1.
        -14    1    6    6    0    0 -0.71410762664E+01 -0.19606121808E+02  0.62181370842E+02  0.65589007177E+02  0.00000000000E+00 0.  1.
</event>
<event>
12    1  0.1032880E+000  0.2107295E+03  0.7818608E-02  0.1141744E+00
         21   -1    0    0  503  502  0.00000000000E+00  0.00000000000E+00  0.14989483189E+03  0.14989483189E+03  0.00000000000E+00 0. -1.
         21   -1    0    0  501  503 -0.00000000000E+00 -0.00000000000E+00 -0.29800098804E+03  0.29800098804E+03  0.00000000000E+00 0. -1.
          6    2    1    2  501    0 -0.25190227934E+02 -0.11448312393E+03 -0.40252021662E+02  0.21453940712E+03  0.17511710000E+03 0.  0.
         24    2    3    3    0    0  0.41990694572E+02 -0.39422127928E+02  0.14590687704E+02  0.99747237357E+02  0.80120537889E+02 0.  0.
         -6    2    1    2    0  502  0.25190227934E+02  0.11448312393E+03 -0.10785413448E+03  0.23335641281E+03  0.17053377327E+03 0.  0.
        -24    2    5    5    0    0  0.25947873296E+02  0.36015367531E+02  0.11547964424E+02  0.90399377150E+02  0.77899249546E+02 0.  0.
          5    1    3    3  501    0 -0.67180922506E+02 -0.75060995999E+02 -0.54842709366E+02  0.11479216977E+03  0.47000000000E+01 0. -1.
        -11    1    4    4    0    0 -0.92489902349E+01 -0.18901269399E+02 -0.24361005781E+02  0.32190998864E+02  0.00000000000E+00 0.  1.
         12    1    4    4    0    0  0.51239684807E+02 -0.20520858529E+02  0.38951693485E+02  0.67556238492E+02  0.00000000000E+00 0. -1.
         -5    1    5    5    0  502 -0.75764536216E+00  0.78467756396E+02 -0.11940209891E+03  0.14295703566E+03  0.47000000000E+01 0.  1.
         11    1    6    6    0    0 -0.26599838004E+02  0.88169525271E+01 -0.60496137056E+01  0.28668586635E+02  0.00000000000E+00 0. -1.
        -12    1    6    6    0    0  0.52547711299E+02  0.27198415004E+02  0.17597578130E+02  0.61730790515E+02  0.00000000000E+00 0.  1.
</event>
<event>
12    1  0.1032880E+000  0.1907637E+03  0.7818608E-02  0.1158032E+00
         21   -1    0    0  501  502  0.00000000000E+00  0.00000000000E+00  0.19211855852E+04  0.19211855852E+04  0.00000000000E+00 0.  1.
         21   -1    0    0  502  503 -0.00000000000E+00 -0.00000000000E+00 -0.35226063140E+02  0.35226063140E+02  0.00000000000E+00 0.  1.
         -6    2    1    2    0  503  0.66552305456E+01 -0.80192279478E+02  0.27709184501E+03  0.33640850931E+03  0.17296155868E+03 0.  0.
        -24    2    3    3    0    0  0.80108873635E+02 -0.20872583761E+02  0.13525983339E+03  0.16596006108E+03  0.48932841287E+02 0.  0.
          6    2    1    2  501    0 -0.66552305456E+01  0.80192279478E+02  0.16088676771E+04  0.16200031390E+04  0.17169704263E+03 0.  0.
         24    2    5    5    0    0 -0.16574215210E+02  0.22134302015E+02  0.36526880947E+03  0.37500139267E+03  0.80250292200E+02 0.  0.
          5    1    5    5  501    0  0.99189846642E+01  0.58057977463E+02  0.12435988676E+04  0.12450017464E+04  0.47000000000E+01 0. -1.
        -11    1    6    6    0    0 -0.24791698607E+02  0.45572036825E+02  0.31128218853E+03  0.31557572745E+03  0.00000000000E+00 0.  1.
         12    1    6    6    0    0  0.82174833968E+01 -0.23437734810E+02  0.53986620945E+02  0.59425665225E+02  0.00000000000E+00 0. -1.
         -5    1    3    3    0  503 -0.73453643089E+02 -0.59319695717E+02  0.14183201163E+03  0.17044844823E+03  0.47000000000E+01 0.  1.
         11    1    4    4    0    0  0.28183381953E+02 -0.32130916844E+02  0.66769084366E+02  0.79276790189E+02  0.00000000000E+00 0. -1.
        -12    1    4    4    0    0  0.51925491681E+02  0.11258333083E+02  0.68490749022E+02  0.86683270887E+02  0.00000000000E+00 0.  1.
</event>
<event>
12    1  0.1032880E+000  0.2427509E+03  0.7818608E-02  0.1118098E+00
         21   -1    0    0  501  502  0.00000000000E+00  0.00000000000E+00  0.16685995567E+03  0.16685995567E+03  0.00000000000E+00 0. -1.
         21   -1    0    0  502  503 -0.00000000000E+00 -0.00000000000E+00 -0.46139561861E+03  0.46139561861E+03  0.00000000000E+00 0. -1.
         -6    2    1    2    0  503  0.17001082030E+03  0.28694016995E+02 -0.30035589761E+03  0.38618862576E+03  0.17088289501E+03 0.  0.
        -24    2    3    3    0    0  0.94810882033E+02  0.57153159900E+02 -0.96450235810E+02  0.16695230932E+03  0.79465958512E+02 0.  0.
          6    2    1    2  501    0 -0.17001082030E+03 -0.28694016995E+02  0.58202346700E+01  0.24206694852E+03  0.16981020819E+03 0.  0.
         24    2    5    5    0    0 -0.60413535156E+02 -0.98444030740E+01  0.60805567922E+02  0.11792046356E+03  0.80381659195E+02 0.  0.
          5    1    5    5  501    0 -0.10959728514E+03 -0.18849613921E+02 -0.54985333252E+02  0.12414648496E+03  0.47000000000E+01 0. -1.
        -11    1    6    6    0    0  0.60768871257E+01 -0.16338112413E+02  0.46416343183E+02  0.49581643668E+02  0.00000000000E+00 0.  1.
         12    1    6    6    0    0 -0.66490422282E+02  0.64937093390E+01  0.14389224739E+02  0.68338819896E+02  0.00000000000E+00 0. -1.
         -5    1    3    3    0  503  0.75199938262E+02 -0.28459142905E+02 -0.20390566180E+03  0.21923631644E+03  0.47000000000E+01 0.  1.
         13    1    4    4    0    0  0.33411529072E+02  0.64630837160E+02 -0.65000268474E+02  0.97562853016E+02  0.00000000000E+00 0. -1.
        -14    1    4    4    0    0  0.61399352961E+02 -0.74776772599E+01 -0.31449967336E+02  0.69389456308E+02  0.00000000000E+00 0.  1.
</event>
<event>
12    1  0.1032880E+000  0.1867857E+03  0.7818608E-02  0.1161968E+00
         21   -1    0    0  503  502  0.00000000000E+00  0.00000000000E+00  0.77731657776E+03  0.77731657776E+03  0.00000000000E+00 0. -1.
         21   -1    0    0  501  503 -0.00000000000E+00 -0.00000000000E+00 -0.73765514812E+02  0.73765514812E+02  0.00000000000E+00 0. -1.
          6    2    1    2  501    0  0.14541944008E+02  0.63670549466E+02  0.62217590410E+03  0.64960892969E+03  0.17499571106E+03 0.  0.
         24    2    3    3    0    0  0.61390140404E+02  0.71573765341E+02  0.30925042776E+03  0.33306247486E+03  0.80020196599E+02 0.  0.
         -6    2    1    2    0  502 -0.14541944008E+02 -0.63670549466E+02  0.81375158844E+02  0.20147316288E+03  0.17234880875E+03 0.  0.
        -24    2    5    5    0    0  0.75553256695E+01 -0.64097312768E+02  0.11892102743E+03  0.15765246341E+03  0.80910691534E+02 0.  0.
          5    1    3    3  501    0 -0.46848196395E+02 -0.79032158754E+01  0.31292547633E+03  0.31654645483E+03  0.47000000000E+01 0. -1.
        -13    1    4    4    0    0  0.33824687577E+02  0.80157702593E+02  0.17135090117E+03  0.19217309413E+03  0.00000000000E+00 0.  1.
         14    1    4    4    0    0  0.27565452827E+02 -0.85839372523E+01  0.13789952660E+03  0.14088938073E+03  0.00000000000E+00 0. -1.
         -5    1    5    5    0  502 -0.22097269678E+02  0.42676330275E+00 -0.37545868584E+02  0.43820699467E+02  0.47000000000E+01 0.  1.
         13    1    6    6    0    0 -0.31343174760E+01 -0.37751035394E+02  0.26699004916E+01  0.37974899447E+02  0.00000000000E+00 0. -1.
        -14    1    6    6    0    0  0.10689643145E+02 -0.26346277374E+02  0.11625112694E+03  0.11967756396E+03  0.00000000000E+00 0.  1.
</event>
<event>
12    1  0.1032880E+000  0.1913798E+03  0.7818608E-02  0.1157557E+00
         21   -1    0    0  501  502  0.00000000000E+00  0.00000000000E+00  0.62925379478E+03  0.62925379478E+03  0.00000000000E+00 0. -1.
         21   -1    0    0  502  503 -0.00000000000E+00 -0.00000000000E+00 -0.77596061096E+02  0.77596061096E+02  0.00000000000E+00 0. -1.
         -6    2    1    2    0  503  0.66378479543E+02 -0.48016048524E+02  0.45535439616E+03  0.49393710677E+03  0.17295836458E+03 0.  0.
        -24    2    3    3    0    0  0.42439947432E+02 -0.67539769230E+02  0.44790067497E+03  0.46181426521E+03  0.79338712830E+02 0.  0.
          6    2    1    2  501    0 -0.66378479543E+02  0.48016048524E+02  0.96303337523E+02  0.21291274911E+03  0.17130634096E+03 0.  0.
         24    2    5    5    0    0 -0.66681083682E+02  0.56895294973E+02  0.34094274587E+01  0.11947666874E+03  0.81114786983E+02 0.  0.
          5    1    5    5  501    0  0.30260413941E+00 -0.88792464486E+01  0.92893910064E+02  0.93436080364E+02  0.47000000000E+01 0. -1.
        -11    1    6    6    0    0  0.97388617022E+01  0.36806762279E+02 -0.99190135307E+01  0.39344249976E+02  0.00000000000E+00 0.  1.
         12    1    6    6    0    0 -0.76419945384E+02  0.20088532694E+02  0.13328440989E+02  0.80132418767E+02  0.00000000000E+00 0. -1.
         -5    1    3    3    0  503  0.23938532110E+02  0.19523720706E+02  0.74537211902E+01  0.32122841552E+02  0.47000000000E+01 0.  1.
         11    1    4    4    0    0  0.11316044900E+02  0.17987933133E+02  0.73573039649E+02  0.76580746756E+02  0.00000000000E+00 0. -1.
        -12    1    4    4    0    0  0.31123902532E+02 -0.85527702363E+02  0.37432763532E+03  0.38523351846E+03  0.00000000000E+00 0.  1.
</event>
<event>
12    1  0.1032880E+000  0.2611454E+03  0.7818608E-02  0.1106687E+00
         21   -1    0    0  501  502  0.00000000000E+00  0.00000000000E+00  0.20766255308E+03  0.20766255308E+03  0.00000000000E+00 0. -1.
         21   -1    0    0  502  503 -0.00000000000E+00 -0.00000000000E+00 -0.54481147745E+03  0.54481147745E+03  0.00000000000E+00 0. -1.
         -6    2    1    2    0  503 -0.72159872252E+02 -0.18183217283E+03  0.69304691678E+02  0.27018522675E+03  0.17299401789E+03 0.  0.
        -24    2    3    3    0    0 -0.52491071087E+02 -0.19389508164E+02  0.79004595107E+01  0.95350874372E+02  0.76799130284E+02 0.  0.
          6    2    1    2  501    0  0.72159872252E+02  0.18183217283E+03 -0.40645361605E+03  0.48228880379E+03  0.17066915953E+03 0.  0.
         24    2    5    5    0    0  0.42389597462E+02  0.63939838444E+02 -0.30334001401E+03  0.32279154145E+03  0.79334949513E+02 0.  0.
          5    1    5    5  501    0  0.29770274790E+02  0.11789233439E+03 -0.10311360204E+03  0.15949726234E+03  0.47000000000E+01 0. -1.
        -13    1    6    6    0    0  0.17421707052E+02  0.51642666559E+02 -0.74729790172E+02  0.92493364222E+02  0.00000000000E+00 0.  1.
         14    1    6    6    0    0  0.24967890410E+02  0.12297171885E+02 -0.22861022384E+03  0.23029817723E+03  0.00000000000E+00 0. -1.
         -5    1    3    3    0  503 -0.19668801166E+02 -0.16244266467E+03  0.61404232167E+02  0.17483435238E+03  0.47000000000E+01 0.  1.
         11    1    4    4    0    0 -0.69826970418E+02 -0.16484140946E+02  0.19428283246E+02  0.74330282459E+02  0.00000000000E+00 0. -1.
        -12    1    4    4    0    0  0.17335899332E+02 -0.29053672184E+01 -0.11527823735E+02  0.21020591913E+02  0.00000000000E+00 0.  1.
</event>
<event>
12    1  0.1032880E+000  0.2546963E+03  0.7818608E-02  0.1110472E+00
         21   -1    0    0  501  502  0.00000000000E+00  0.00000000000E+00  0.10898656536E+04  0.10898656536E+04  0.00000000000E+00 0.  1.
         21   -1    0    0  502  503 -0.00000000000E+00 -0.00000000000E+00 -0.60980937410E+02  0.60980937410E+02  0.00000000000E+00 0.  1.
         -6    2    1    2    0  503  0.18736259390E+03  0.12969039880E+02  0.42155210671E+03  0.49252045974E+03  0.17203862069E+03 0.  0.
        -24    2    3    3    0    0  0.17968253421E+03 -0.16351539983E+02  0.41761812203E+03  0.46159723294E+03  0.78191583020E+02 0.  0.
          6    2    1    2  501    0 -0.18736259390E+03 -0.12969039880E+02  0.60733260951E+03  0.65832613130E+03  0.17107734795E+03 0.  0.
         24    2    5    5    0    0 -0.44973890091E+02  0.16559991732E+02  0.13760329275E+03  0.16658003044E+03  0.80730144620E+02 0.  0.
          5    1    5    5  501    0 -0.14238870381E+03 -0.29529031611E+02  0.46972931676E+03  0.49174610085E+03  0.47000000000E+01 0. -1.
        -11    1    6    6    0    0 -0.16896689808E+02 -0.29205190279E+02  0.25535613302E+02  0.42314404314E+02  0.00000000000E+00 0.  1.
         12    1    6    6    0    0 -0.28077200283E+02  0.45765182011E+02  0.11206767945E+03  0.12426562613E+03  0.00000000000E+00 0. -1.
         -5    1    3    3    0  503  0.76800596831E+01  0.29320579863E+02  0.39339846815E+01  0.30923226800E+02  0.47000000000E+01 0.  1.
         11    1    4    4    0    0  0.13777211217E+03 -0.45411218492E+02  0.32391424797E+03  0.35491375529E+03  0.00000000000E+00 0. -1.
        -12    1    4    4    0    0  0.41910422042E+02  0.29059678509E+02  0.93703874053E+02  0.10668347765E+03  0.00000000000E+00 0.  1.
</event>
<event>
12    1  0.1032880E+000  0.2731264E+03  0.7818608E-02  0.1099601E+00
         21   -1    0    0  501  502  0.00000000000E+00  0.00000000000E+00  0.75498520853E+03  0.75498520853E+03  0.00000000000E+00 0.  1.
         21   -1    0    0  502  503 -0.00000000000E+00 -0.00000000000E+00 -0.17308408778E+03  0.17308408778E+03  0.00000000000E+00 0.  1.
         -6    2    1    2    0  503  0.25675521104E+02 -0.21054661236E+03 -0.13751153368E+02  0.27278337341E+03  0.17097533808E+03 0.  0.
        -24    2    3    3    0    0  0.20307774251E+02 -0.23248956339E+03 -0.24355926134E+02  0.24738933845E+03  0.78386675295E+02 0.  0.
          6    2    1    2  501    0 -0.25675521104E+02  0.21054661236E+03  0.59565227412E+03  0.65528592289E+03  0.17207237057E+03 0.  0.
         24    2    5    5    0    0 -0.62688773862E+02  0.14972183677E+03  0.29102203392E+03  0.34241005701E+03  0.78767456109E+02 0.  0.
          5    1    5    5  501    0  0.37013252758E+02  0.60824775590E+02  0.30463024020E+03  0.31287586588E+03  0.47000000000E+01 0. -1.
        -11    1    6    6    0    0 -0.52480039101E+02  0.12886477475E+03  0.28685206736E+03  0.31881717837E+03  0.00000000000E+00 0.  1.
         12    1    6    6    0    0 -0.10208734761E+02  0.20857062017E+02  0.41699665596E+01  0.23592878640E+02  0.00000000000E+00 0. -1.
         -5    1    3    3    0  503  0.53677468535E+01  0.21942951028E+02  0.10604772766E+02  0.25394034960E+02  0.47000000000E+01 0.  1.
         13    1    4    4    0    0 -0.18959764670E+02 -0.16795558687E+03 -0.29890632030E+02  0.17164498746E+03  0.00000000000E+00 0. -1.
        -14    1    4    4    0    0  0.39267538921E+02 -0.64533976518E+02  0.55347058962E+01  0.75744350993E+02  0.00000000000E+00 0.  1.
</event>
<event>
12    1  0.1032880E+000  0.2494657E+03  0.7818608E-02  0.1114046E+00
         21   -1    0    0  501  502  0.00000000000E+00  0.00000000000E+00  0.13151612091E+03  0.13151612091E+03  0.00000000000E+00 0. -1.
         21   -1    0    0  502  503 -0.00000000000E+00 -0.00000000000E+00 -0.73363959947E+03  0.73363959947E+03  0.00000000000E+00 0. -1.
         -6    2    1    2    0  503 -0.16508203800E+03 -0.67756005605E+02 -0.41946175867E+02  0.25296763881E+03  0.17432782064E+03 0.  0.
        -24    2    3    3    0    0 -0.88705542910E+02  0.24206135481E+02  0.93134442465E+01  0.12281371820E+03  0.80881758119E+02 0.  0.
          6    2    1    2  501    0  0.16508203800E+03  0.67756005605E+02 -0.56017730269E+03  0.61218808157E+03  0.17068298451E+03 0.  0.
         24    2    5    5    0    0 -0.48761954833E+01  0.13495067816E+02 -0.19954981884E+03  0.20981471937E+03  0.63215442169E+02 0.  0.
          5    1    5    5  501    0  0.16995823348E+03  0.54260937790E+02 -0.36062748385E+03  0.40237336220E+03  0.47000000000E+01 0. -1.
        -13    1    6    6    0    0  0.13461799438E+02 -0.20877229918E+02 -0.60259784441E+02  0.65179140790E+02  0.00000000000E+00 0.  1.
         14    1    6    6    0    0 -0.18337994922E+02  0.34372297734E+02 -0.13929003440E+03  0.14463557858E+03  0.00000000000E+00 0. -1.
         -5    1    3    3    0  503 -0.76376495088E+02 -0.91962141086E+02 -0.51259620114E+02  0.13015392061E+03  0.47000000000E+01 0.  1.
         13    1    4    4    0    0 -0.17057232951E+02  0.36746910668E+02 -0.19016479751E+02  0.44753895269E+02  0.00000000000E+00 0. -1.
        -14    1    4    4    0    0 -0.71648309960E+02 -0.12540775187E+02  0.28329923997E+02  0.78059822931E+02  0.00000000000E+00 0.  1.
</event>
<event>
12    1  0.1032880E+000  0.1763759E+03  0.7818608E-02  0.1171847E+00
         21   -1    0    0  501  502  0.00000000000E+00  0.00000000000E+00  0.42147043632E+03  0.42147043632E+03  0.00000000000E+00 0. -1.
         21   -1    0    0  502  503 -0.00000000000E+00 -0.00000000000E+00 -0.11125550182E+03  0.11125550182E+03  0.00000000000E+00 0. -1.
         -6    2    1    2    0  503 -0.28150864732E+02 -0.25097737603E+02  0.31074600437E+03  0.35634921825E+03  0.17029186270E+03 0.  0.
        -24    2    3    3    0    0  0.29942661304E+02 -0.30143530285E+02  0.80079072902E+02  0.11837938600E+03  0.76130320691E+02 0.  0.
          6    2    1    2  501    0  0.28150864732E+02  0.25097737603E+02 -0.53106987038E+00  0.17637671988E+03  0.17229653990E+03 0.  0.
         24    2    5    5    0    0  0.48996287455E+01  0.71476991910E+02 -0.38293718743E+02  0.11203573097E+03  0.77153284982E+02 0.  0.
          5    1    5    5  501    0  0.23251235987E+02 -0.46379254307E+02  0.37762648872E+02  0.64340988917E+02  0.47000000000E+01 0. -1.
        -11    1    6    6    0    0  0.33324602069E+02  0.67876586470E+02 -0.34567087182E+02  0.83142309386E+02  0.00000000000E+00 0.  1.
         12    1    6    6    0    0 -0.28424973323E+02  0.36004054399E+01 -0.37266315602E+01  0.28893421579E+02  0.00000000000E+00 0. -1.
         -5    1    3    3    0  503 -0.58093526036E+02  0.50457926820E+01  0.23066693147E+03  0.23796983225E+03  0.47000000000E+01 0.  1.
         11    1    4    4    0    0  0.23792351022E+02 -0.32055562971E+02  0.94499759630E+02  0.10258576731E+03  0.00000000000E+00 0. -1.
        -12    1    4    4    0    0  0.61503102816E+01  0.19120326864E+01 -0.14420686728E+02  0.15793618688E+02  0.00000000000E+00 0.  1.
</event>
<event>
12    1  0.1032880E+000  0.1731956E+03  0.7818608E-02  0.1177117E+00
         21   -1    0    0  503  502  0.00000000000E+00  0.00000000000E+00  0.24097607774E+03  0.24097607774E+03  0.00000000000E+00 0. -1.
         21   -1    0    0  501  503 -0.00000000000E+00 -0.00000000000E+00 -0.25079811134E+03  0.25079811134E+03  0.00000000000E+00 0. -1.
          6    2    1    2  501    0 -0.21730777914E+02  0.80133028650E+01  0.17433662181E+03  0.23896767965E+03  0.16178953762E+03 0.  0.
         24    2    3    3    0    0  0.26387909610E+02  0.22374546267E+02  0.41991991920E+02  0.97338429631E+02  0.80712455070E+02 0.  0.
         -6    2    1    2    0  502  0.21730777914E+02 -0.80133028650E+01 -0.18415865542E+03  0.25280650943E+03  0.17163997527E+03 0.  0.
        -24    2    5    5    0    0 -0.37707651780E+02 -0.22518999131E+02 -0.51406988803E+02  0.10655864743E+03  0.82359544199E+02 0.  0.
          5    1    3    3  501    0 -0.48118687524E+02 -0.14361243402E+02  0.13234462989E+03  0.14162925002E+03  0.47000000000E+01 0. -1.
        -11    1    4    4    0    0 -0.15343595322E+02  0.19479833357E+02  0.49006215549E+02  0.54922663696E+02  0.00000000000E+00 0.  1.
         12    1    4    4    0    0  0.41731504932E+02  0.28947129093E+01 -0.70142236293E+01  0.42415765935E+02  0.00000000000E+00 0. -1.
         -5    1    5    5    0  502  0.59438429694E+02  0.14505696266E+02 -0.13275166661E+03  0.14624786199E+03  0.47000000000E+01 0.  1.
         13    1    6    6    0    0 -0.51618279691E+00  0.29048327519E+02 -0.22342874634E+02  0.36650727459E+02  0.00000000000E+00 0. -1.
        -14    1    6    6    0    0 -0.37191468983E+02 -0.51567326650E+02 -0.29064114169E+02  0.69907919976E+02  0.00000000000E+00 0.  1.
</event>
<event>
12    1  0.1032880E+000  0.3248430E+03  0.7818608E-02  0.1073448E+00
         21   -1    0    0  503  502  0.00000000000E+00  0.00000000000E+00  0.65369713200E+02  0.65369713200E+02  0.00000000000E+00 0.  1.
         21   -1    0    0  501  503 -0.00000000000E+00 -0.00000000000E+00 -0.18384604583E+04  0.18384604583E+04  0.00000000000E+00 0.  1.
          6    2    1    2  501    0 -0.19780455496E+03 -0.19216048507E+03 -0.55398195676E+03  0.64219857926E+03  0.17167036089E+03 0.  0.
         24    2    3    3    0    0 -0.77817822122E+02 -0.16467617909E+03 -0.38120233576E+03  0.43000270144E+03  0.80082738816E+02 0.  0.
         -6    2    1    2    0  502  0.19780455496E+03  0.19216048507E+03 -0.12191087884E+04  0.12616315923E+04  0.17156847827E+03 0.  0.
        -24    2    5    5    0    0  0.18953714731E+03  0.20863896550E+03 -0.11986314081E+04  0.12336797864E+04  0.76118426617E+02 0.  0.
          5    1    3    3  501    0 -0.11998673284E+03 -0.27484305978E+02 -0.17277962100E+03  0.21219587783E+03  0.47000000000E+01 0. -1.
        -13    1    4    4    0    0 -0.80542201572E+02 -0.10620945227E+03 -0.20675510049E+03  0.24599830399E+03  0.00000000000E+00 0.  1.
         14    1    4    4    0    0  0.27243794504E+01 -0.58466726819E+02 -0.17444723527E+03  0.18400439745E+03  0.00000000000E+00 0. -1.
         -5    1    5    5    0  502  0.82674076531E+01 -0.16478480430E+02 -0.20477380328E+02  0.27951805876E+02  0.47000000000E+01 0.  1.
         11    1    6    6    0    0  0.15266430629E+03  0.17063181589E+03 -0.82004604087E+03  0.85140890068E+03  0.00000000000E+00 0. -1.
        -12    1    6    6    0    0  0.36872841025E+02  0.38007149604E+02 -0.37858536718E+03  0.38227088572E+03  0.00000000000E+00 0.  1.
</event>
<event>
12    1  0.1032880E+000  0.2194736E+03  0.7818608E-02  0.1134468E+00
         21   -1    0    0  501  502  0.00000000000E+00  0.00000000000E+00  0.15456252434E+03  0.15456252434E+03  0.00000000000E+00 0. -1.
         21   -1    0    0  502  503 -0.00000000000E+00 -0.00000000000E+00 -0.74630470816E+03  0.74630470816E+03  0.00000000000E+00 0.  1.
         -6    2    1    2    0  503  0.11944028099E+03  0.64754341925E+02  0.48742436124E+02  0.22382277468E+03  0.17106052690E+03 0.  0.
        -24    2    3    3    0    0  0.14711462326E+03  0.76796831511E+02  0.35969873382E+02  0.19071508472E+03  0.86821345540E+02 0.  0.
          6    2    1    2  501    0 -0.11944028099E+03 -0.64754341925E+02 -0.64048461994E+03  0.67704445782E+03  0.17236456703E+03 0.  0.
         24    2    5    5    0    0 -0.48354696499E+02  0.33103823989E+02 -0.30125854352E+03  0.31686977537E+03  0.78839740368E+02 0.  0.
          5    1    5    5  501    0 -0.71085584495E+02 -0.97858165914E+02 -0.33922607642E+03  0.36017468246E+03  0.47000000000E+01 0. -1.
        -11    1    6    6    0    0 -0.66730544928E+01  0.11259982017E+02 -0.23627113246E+03  0.23663339765E+03  0.00000000000E+00 0.  1.
         12    1    6    6    0    0 -0.41681642006E+02  0.21843841972E+02 -0.64987411064E+02  0.80236377718E+02  0.00000000000E+00 0. -1.
         -5    1    3    3    0  503 -0.27674342269E+02 -0.12042489586E+02  0.12772562742E+02  0.33107689959E+02  0.47000000000E+01 0.  1.
         11    1    4    4    0    0  0.28370869262E+02 -0.17332802846E+02  0.18864168615E+02  0.38225503721E+02  0.00000000000E+00 0. -1.
        -12    1    4    4    0    0  0.11874375400E+03  0.94129634356E+02  0.17105704766E+02  0.15248958100E+03  0.00000000000E+00 0.  1.
</event>
<event>
12    1  0.1032880E+000  0.1991860E+03  0.7818608E-02  0.1150703E+00
         21   -1    0    0  501  502  0.00000000000E+00  0.00000000000E+00  0.58408052396E+03  0.58408052396E+03  0.00000000000E+00 0.  1.
         21   -1    0    0  502  503 -0.00000000000E+00 -0.00000000000E+00 -0.89404383927E+02  0.89404383927E+02  0.00000000000E+00 0.  1.
         -6    2    1    2    0  503 -0.47323965664E+02 -0.88574818439E+02  0.41345847574E+03  0.45837710363E+03  0.17051862592E+03 0.  0.
        -24    2    3    3    0    0  0.30588056517E+02 -0.60327609060E+02  0.28770334791E+03  0.30769654678E+03  0.85608988339E+02 0.  0.
          6    2    1    2  501    0  0.47323965664E+02  0.88574818439E+02  0.81217664290E+02  0.21510780425E+03  0.17201744757E+03 0.  0.
         24    2    5    5    0    0  0.35031626779E+01  0.48127771244E+02  0.11550655558E+03  0.14615822509E+03  0.75444733838E+02 0.  0.
          5    1    5    5  501    0  0.43820802986E+02  0.40447047195E+02 -0.34288891293E+02  0.68949579167E+02  0.47000000000E+01 0. -1.
        -11    1    6    6    0    0 -0.12480073334E+02  0.15270157485E+02 -0.49072995660E+01  0.20322685085E+02  0.00000000000E+00 0.  1.
         12    1    6    6    0    0  0.15983236012E+02  0.32857613759E+02  0.12041385515E+03  0.12583554000E+03  0.00000000000E+00 0. -1.
         -5    1    3    3    0  503 -0.77912022181E+02 -0.28247209379E+02  0.12575512783E+03  0.15068055686E+03  0.47000000000E+01 0.  1.
         13    1    4    4    0    0  0.14487249292E+02  0.16861275642E+02  0.12419373527E+03  0.12616761426E+03  0.00000000000E+00 0. -1.
        -14    1    4    4    0    0  0.16100807226E+02 -0.77188884702E+02  0.16350961264E+03  0.18152893252E+03  0.00000000000E+00 0.  1.
</event>
<event>
12    1  0.1032880E+000  0.2077235E+03  0.7818608E-02  0.1143708E+00
         21   -1    0    0  501  502  0.00000000000E+00  0.00000000000E+00  0.43560618363E+03  0.43560618363E+03  0.00000000000E+00 0. -1.
         21   -1    0    0  502  503 -0.00000000000E+00 -0.00000000000E+00 -0.98594866059E+02  0.98594866059E+02  0.00000000000E+00 0. -1.
         -6    2    1    2    0  503  0.21690926623E+02 -0.11040757389E+03  0.15283701736E+03  0.25658759971E+03  0.17267806397E+03 0.  0.
        -24    2    3    3    0    0  0.68415044346E+02 -0.11689272390E+03  0.13131309852E+03  0.20452447043E+03  0.79010138396E+02 0.  0.
          6    2    1    2  501    0 -0.21690926623E+02  0.11040757389E+03  0.18417430020E+03  0.27761344998E+03  0.17461021185E+03 0.  0.
         24    2    5    5    0    0  0.50080865519E+02  0.93215667151E+02  0.13467375920E+03  0.18862386989E+03  0.79023345796E+02 0.  0.
          5    1    5    5  501    0 -0.71771792142E+02  0.17191906737E+02  0.49500540998E+02  0.88989580085E+02  0.47000000000E+01 0. -1.
        -11    1    6    6    0    0  0.91864127361E+01  0.90160008505E+02  0.85483414006E+02  0.12458182605E+03  0.00000000000E+00 0.  1.
         12    1    6    6    0    0  0.40894452783E+02  0.30556586458E+01  0.49190345199E+02  0.64042043838E+02  0.00000000000E+00 0. -1.
         -5    1    3    3    0  503 -0.46724117723E+02  0.64851500101E+01  0.21523918843E+02  0.52063129276E+02  0.47000000000E+01 0.  1.
         11    1    4    4    0    0  0.78363331263E+02 -0.10441393452E+03  0.85611714687E+02  0.15611677392E+03  0.00000000000E+00 0. -1.
        -12    1    4    4    0    0 -0.99482869165E+01 -0.12478789376E+02  0.45701383834E+02  0.48407696508E+02  0.00000000000E+00 0.  1.
</event>
<event>
12    1  0.1032880E+000  0.2187433E+03  0.7818608E-02  0.1134843E+00
         21   -1    0    0  501  502  0.00000000000E+00  0.00000000000E+00  0.82241209587E+02  0.82241209587E+02  0.00000000000E+00 0. -1.
         21   -1    0    0  502  503 -0.00000000000E+00 -0.00000000000E+00 -0.58172501184E+03  0.58172501184E+03  0.00000000000E+00 0. -1.
         -6    2    1    2    0  503 -0.68727806625E+02 -0.11684899607E+03 -0.25566473114E+03  0.33640499645E+03  0.17154202868E+03 0.  0.
        -24    2    3    3    0    0 -0.92427364353E+02 -0.60673786565E+02 -0.23202332143E+03  0.27084335025E+03  0.85423489932E+02 0.  0.
          6    2    1    2  501    0  0.68727806625E+02  0.11684899607E+03 -0.24381907111E+03  0.32756122498E+03  0.17167241300E+03 0.  0.
         24    2    5    5    0    0 -0.17098282315E+02  0.15946243762E+02 -0.70478864672E+02  0.10934940098E+03  0.80270711844E+02 0.  0.
          5    1    5    5  501    0  0.85826088940E+02  0.10090275231E+03 -0.17334020644E+03  0.21821182400E+03  0.47000000000E+01 0. -1.
        -13    1    6    6    0    0 -0.25913103137E+00  0.46688955622E+02 -0.28665287930E+02  0.54787082949E+02  0.00000000000E+00 0.  1.
         14    1    6    6    0    0 -0.16839151284E+02 -0.30742711860E+02 -0.41813576742E+02  0.54562318026E+02  0.00000000000E+00 0. -1.
         -5    1    3    3    0  503  0.23699557728E+02 -0.56175209503E+02 -0.23641409716E+02  0.65561646201E+02  0.47000000000E+01 0.  1.
         13    1    4    4    0    0 -0.69886243257E+02 -0.26719482502E+02 -0.65610447906E+02  0.99512555068E+02  0.00000000000E+00 0. -1.
        -14    1    4    4    0    0 -0.22541121096E+02 -0.33954304063E+02 -0.16641287352E+03  0.17133079518E+03  0.00000000000E+00 0.  1.
</event>
<event>
12    1  0.1032880E+000  0.1830857E+03  0.7818608E-02  0.1165007E+00
         21   -1    0    0  503  502  0.00000000000E+00  0.00000000000E+00  0.27290428327E+02  0.27290428327E+02  0.00000000000E+00 0. -1.
         21   -1    0    0  501  503 -0.00000000000E+00 -0.00000000000E+00 -0.22644829449E+04  0.22644829449E+04  0.00000000000E+00 0. -1.
          6    2    1    2  501    0 -0.33936125812E+02 -0.49346216719E+02 -0.34289409660E+03  0.38871162878E+03  0.17301346516E+03 0.  0.
         24    2    3    3    0    0 -0.50188095850E+02 -0.45324383647E+02 -0.35301656492E+03  0.36859059411E+03  0.81640591882E+02 0.  0.
         -6    2    1    2    0  502  0.33936125812E+02  0.49346216719E+02 -0.18942984200E+04  0.19030617445E+04  0.17231015501E+03 0.  0.
        -24    2    5    5    0    0  0.51986612646E+02  0.29471200864E+02 -0.57571288005E+03  0.58419452125E+03  0.79162862672E+02 0.  0.
          5    1    3    3  501    0  0.16251970038E+02 -0.40218330721E+01  0.10122468317E+02  0.20121034671E+02  0.47000000000E+01 0. -1.
        -11    1    4    4    0    0 -0.53174431145E+02 -0.11829813485E+02 -0.10485527378E+03  0.11816130100E+03  0.00000000000E+00 0.  1.
         12    1    4    4    0    0  0.29863352953E+01 -0.33494570162E+02 -0.24816129113E+03  0.25042929311E+03  0.00000000000E+00 0. -1.
         -5    1    5    5    0  502 -0.18050486835E+02  0.19875015855E+02 -0.13185855399E+04  0.13188672232E+04  0.47000000000E+01 0.  1.
         13    1    6    6    0    0 -0.18059009875E+01  0.54141649731E+01 -0.37417654817E+03  0.37422007384E+03  0.00000000000E+00 0. -1.
        -14    1    6    6    0    0  0.53792513634E+02  0.24057035891E+02 -0.20153633188E+03  0.20997444742E+03  0.00000000000E+00 0.  1.
</event>
<event>
12    1  0.1032880E+000  0.2192839E+03  0.7818608E-02  0.1134493E+00
         21   -1    0    0  501  502  0.00000000000E+00  0.00000000000E+00  0.93678282925E+02  0.93678282925E+02  0.00000000000E+00 0.  1.
         21   -1    0    0  502  503 -0.00000000000E+00 -0.00000000000E+00 -0.71109280908E+03  0.71109280908E+03  0.00000000000E+00 0.  1.
         -6    2    1    2    0  503  0.10910870298E+02  0.13539904022E+03 -0.96190089797E+02  0.23945347622E+03  0.17214379662E+03 0.  0.
        -24    2    3    3    0    0  0.23573079215E+02  0.16105580171E+03 -0.55266845392E+02  0.18929968397E+03  0.79279788246E+02 0.  0.
          6    2    1    2  501    0 -0.10910870298E+02 -0.13539904022E+03 -0.52122443636E+03  0.56531761579E+03  0.17163084361E+03 0.  0.
         24    2    5    5    0    0  0.49169010396E+02 -0.36184532364E+02 -0.23936757974E+03  0.26049227522E+03  0.82658788094E+02 0.  0.
          5    1    5    5  501    0 -0.60079880694E+02 -0.99214507859E+02 -0.28185685661E+03  0.30482534057E+03  0.47000000000E+01 0. -1.
        -13    1    6    6    0    0  0.60150743338E+02 -0.54464485445E+02 -0.18122335916E+03  0.19856081689E+03  0.00000000000E+00 0.  1.
         14    1    6    6    0    0 -0.10981732942E+02  0.18279953081E+02 -0.58144220584E+02  0.61931458326E+02  0.00000000000E+00 0. -1.
         -5    1    3    3    0  503 -0.12662208917E+02 -0.25656761482E+02 -0.40923244405E+02  0.50153792250E+02  0.47000000000E+01 0.  1.
         11    1    4    4    0    0  0.64403039171E+01 -0.58332293134E+01 -0.14090409197E+02  0.16554265616E+02  0.00000000000E+00 0. -1.
        -12    1    4    4    0    0  0.17132775298E+02  0.16688903102E+03 -0.41176436195E+02  0.17274541835E+03  0.00000000000E+00 0.  1.
</event>
<event>
12    1  0.1032880E+000  0.4084148E+03  0.7818608E-02  0.1040915E+00
         21   -1    0    0  503  502  0.00000000000E+00  0.00000000000E+00  0.37100220150E+03  0.37100220150E+03  0.00000000000E+00 0. -1.
         21   -1    0    0  501  503 -0.00000000000E+00 -0.00000000000E+00 -0.50113601580E+03  0.50113601580E+03  0.00000000000E+00 0. -1.
          6    2    1    2  501    0  0.12539855592E+02  0.37032920619E+03  0.74963684266E+02  0.41511786002E+03  0.17147103200E+03 0.  0.
         24    2    3    3    0    0  0.57562506367E+02  0.29728061900E+03  0.76628873775E+02  0.32916439570E+03  0.10386532880E+03 0.  0.
         -6    2    1    2    0  502 -0.12539855592E+02 -0.37032920619E+03 -0.20509749857E+03  0.45702035728E+03  0.17176045562E+03 0.  0.
        -24    2    5    5    0    0  0.41429438960E+02 -0.13315194356E+03 -0.11399941050E+03  0.19723835192E+03  0.80381984206E+02 0.  0.
          5    1    3    3  501    0 -0.45022650775E+02  0.73048587194E+02 -0.16651895092E+01  0.85953464328E+02  0.47000000000E+01 0. -1.
        -13    1    4    4    0    0 -0.23687065647E+02  0.14296337161E+03  0.46433330163E+02  0.15216982898E+03  0.00000000000E+00 0.  1.
         14    1    4    4    0    0  0.81249572014E+02  0.15431724738E+03  0.30195543612E+02  0.17699456671E+03  0.00000000000E+00 0. -1.
         -5    1    5    5    0  502 -0.53969294552E+02 -0.23717726263E+03 -0.91098088063E+02  0.25978200536E+03  0.47000000000E+01 0.  1.
         11    1    6    6    0    0 -0.24327309207E+02 -0.31059095902E+02 -0.30439955163E+02  0.49830475432E+02  0.00000000000E+00 0. -1.
        -12    1    6    6    0    0  0.65756748167E+02 -0.10209284766E+03 -0.83559455341E+02  0.14740787649E+03  0.00000000000E+00 0.  1.
</event>
<event>
12    1  0.1032880E+000  0.1949851E+03  0.7818608E-02  0.1154276E+00
         21   -1    0    0  501  502  0.00000000000E+00  0.00000000000E+00  0.43971036129E+02  0.43971036129E+02  0.00000000000E+00 0.  1.
         21   -1    0    0  502  503 -0.00000000000E+00 -0.00000000000E+00 -0.20477940031E+04  0.20477940031E+04  0.00000000000E+00 0.  1.
         -6    2    1    2    0  503  0.90305215612E+02  0.11867973168E+02 -0.17973328602E+04  0.18077626402E+04  0.17118548984E+03 0.  0.
        -24    2    3    3    0    0  0.19945776290E+01  0.52339635930E+02 -0.81212919971E+03  0.81777018212E+03  0.80316983975E+02 0.  0.
          6    2    1    2  501    0 -0.90305215612E+02 -0.11867973168E+02 -0.20649010679E+03  0.28400239912E+03  0.17240451778E+03 0.  0.
         24    2    5    5    0    0 -0.17942828559E+02 -0.19880384391E+02 -0.17868545972E+02  0.81763191747E+02  0.75158231813E+02 0.  0.
          5    1    5    5  501    0 -0.72362387053E+02  0.80124112229E+01 -0.18862156082E+03  0.20223920737E+03  0.47000000000E+01 0. -1.
        -11    1    6    6    0    0 -0.32659282931E+02  0.18662351587E+02 -0.23647754238E+01  0.37689578017E+02  0.00000000000E+00 0.  1.
         12    1    6    6    0    0  0.14716454372E+02 -0.38542735978E+02 -0.15503770548E+02  0.44073613730E+02  0.00000000000E+00 0. -1.
         -5    1    3    3    0  503  0.88310637983E+02 -0.40471662762E+02 -0.98520366052E+03  0.98999245803E+03  0.47000000000E+01 0.  1.
         11    1    4    4    0    0  0.15064216768E+02  0.63052949102E+02 -0.76427848548E+03  0.76702295167E+03  0.00000000000E+00 0. -1.
        -12    1    4    4    0    0 -0.13069639139E+02 -0.10713313172E+02 -0.47850714231E+02  0.50747230454E+02  0.00000000000E+00 0.  1.
</event>
<event>
12    1  0.1032880E+000  0.1746830E+03  0.7818608E-02  0.1173214E+00
         21   -1    0    0  501  502  0.00000000000E+00  0.00000000000E+00  0.55858203292E+02  0.55858203292E+02  0.00000000000E+00 0.  1.
         21   -1    0    0  502  503 -0.00000000000E+00 -0.00000000000E+00 -0.65797892128E+03  0.65797892128E+03  0.00000000000E+00 0.  1.
         -6    2    1    2    0  503 -0.28902187603E+02  0.56751981399E+01 -0.15313933527E+03  0.23230539990E+03  0.17218187620E+03 0.  0.
        -24    2    3    3    0    0  0.30620996282E+02 -0.38115727416E+02 -0.11633544895E+03  0.14961760981E+03  0.80380584684E+02 0.  0.
          6    2    1    2  501    0  0.28902187603E+02 -0.56751981399E+01 -0.44898138273E+03  0.48153172468E+03  0.17152543694E+03 0.  0.
         24    2    5    5    0    0  0.43708407985E+02 -0.65027577128E+02 -0.30981149666E+03  0.32943873917E+03  0.80048164804E+02 0.  0.
          5    1    5    5  501    0 -0.14806220382E+02  0.59352378988E+02 -0.13916988606E+03  0.15209298551E+03  0.47000000000E+01 0. -1.
        -11    1    6    6    0    0 -0.12659316004E+02  0.14674083507E+01 -0.11873539965E+03  0.11941736347E+03  0.00000000000E+00 0.  1.
         12    1    6    6    0    0  0.56367723989E+02 -0.66494985478E+02 -0.19107609701E+03  0.21002137570E+03  0.00000000000E+00 0. -1.
         -5    1    3    3    0  503 -0.59523183885E+02  0.43790925556E+02 -0.36803886317E+02  0.82687790083E+02  0.47000000000E+01 0.  1.
         11    1    4    4    0    0 -0.26407673000E+02 -0.22373064145E+02 -0.37183590118E+02  0.50799001629E+02  0.00000000000E+00 0. -1.
        -12    1    4    4    0    0  0.57028669281E+02 -0.15742663272E+02 -0.79151858832E+02  0.98818608184E+02  0.00000000000E+00 0.  1.
</event>
<event>
12    1  0.1032880E+000  0.2060674E+03  0.7818608E-02  0.1145846E+00
         21   -1    0    0  503  502  0.00000000000E+00  0.00000000000E+00  0.32527513568E+02  0.32527513568E+02  0.00000000000E+00 0. -1.
         21   -1    0    0  501  503 -0.00000000000E+00 -0.00000000000E+00 -0.12749448482E+04  0.12749448482E+04  0.00000000000E+00 0. -1.
          6    2    1    2  501    0 -0.10036882174E+03 -0.21655335646E+02 -0.66584965913E+03  0.69700755953E+03  0.17866425367E+03 0.  0.
         24    2    3    3    0    0 -0.12925958626E+03  0.32987892899E+01 -0.61369916001E+03  0.63220671706E+03  0.79622556199E+02 0.  0.
         -6    2    1    2    0  502  0.10036882174E+03  0.21655335646E+02 -0.57656767551E+03  0.61046480225E+03  0.17231986652E+03 0.  0.
        -24    2    5    5    0    0  0.36719306420E+02  0.61947805117E+02 -0.21312581181E+03  0.23926832841E+03  0.81491614898E+02 0.  0.
          5    1    3    3  501    0  0.28890764519E+02 -0.24954124936E+02 -0.52150499126E+02  0.64800842471E+02  0.47000000000E+01 0. -1.
        -11    1    4    4    0    0 -0.28048626862E+02 -0.14798348735E+02 -0.30910764022E+03  0.31073018816E+03  0.00000000000E+00 0.  1.
         12    1    4    4    0    0 -0.10121095940E+03  0.18097138025E+02 -0.30459151979E+03  0.32147652890E+03  0.00000000000E+00 0. -1.
         -5    1    5    5    0  502  0.63649515321E+02 -0.40292469471E+02 -0.36344186370E+03  0.37119647384E+03  0.47000000000E+01 0.  1.
         13    1    6    6    0    0  0.22763729848E+02 -0.54501045591E+01 -0.12640365923E+03  0.12855261998E+03  0.00000000000E+00 0. -1.
        -14    1    6    6    0    0  0.13955576572E+02  0.67397909676E+02 -0.86722152581E+02  0.11071570844E+03  0.00000000000E+00 0.  1.
</event>
<event>
12    1  0.1032880E+000  0.1820622E+03  0.7818608E-02  0.1166155E+00
         21   -1    0    0  501  502  0.00000000000E+00  0.00000000000E+00  0.49976812630E+02  0.49976812630E+02  0.00000000000E+00 0. -1.
         21   -1    0    0  502  503 -0.00000000000E+00 -0.00000000000E+00 -0.71156169985E+03  0.71156169985E+03  0.00000000000E+00 0.  1.
         -6    2    1    2    0  503 -0.36564628607E+02 -0.49791349507E+02 -0.22533823642E+03  0.28882529236E+03  0.16978391609E+03 0.  0.
        -24    2    3    3    0    0  0.10860255999E+02  0.26338281223E+02 -0.14268484323E+03  0.16676582422E+03  0.81487578344E+02 0.  0.
          6    2    1    2  501    0  0.36564628607E+02  0.49791349507E+02 -0.43624665079E+03  0.47271322011E+03  0.17126148894E+03 0.  0.
         24    2    5    5    0    0  0.65719013069E+02 -0.16150465883E+02 -0.31013884115E+03  0.32737371824E+03  0.80047638209E+02 0.  0.
          5    1    5    5  501    0 -0.29154384462E+02  0.65941815391E+02 -0.12610780965E+03  0.14533950187E+03  0.47000000000E+01 0. -1.
        -11    1    6    6    0    0 -0.32629735870E+01 -0.39245203373E+01 -0.17571901011E+03  0.17579311525E+03  0.00000000000E+00 0.  1.
         12    1    6    6    0    0  0.68981986656E+02 -0.12225945546E+02 -0.13441983104E+03  0.15158060299E+03  0.00000000000E+00 0. -1.
         -5    1    3    3    0  503 -0.47424884605E+02 -0.76129630730E+02 -0.82653393197E+02  0.12205946814E+03  0.47000000000E+01 0.  1.
         11    1    4    4    0    0  0.31197116852E+02 -0.48076818535E+01 -0.17332781660E+02  0.36011098633E+02  0.00000000000E+00 0. -1.
        -12    1    4    4    0    0 -0.20336860853E+02  0.31145963076E+02 -0.12535206157E+03  0.13075472559E+03  0.00000000000E+00 0.  1.
</event>
<event>
12    1  0.1032880E+000  0.2121559E+03  0.7818608E-02  0.1139969E+00
         21   -1    0    0  503  502  0.00000000000E+00  0.00000000000E+00  0.80750466908E+02  0.80750466908E+02  0.00000000000E+00 0. -1.
         21   -1    0    0  501  503 -0.00000000000E+00 -0.00000000000E+00 -0.57452787040E+03  0.57452787040E+03  0.00000000000E+00 0. -1.
          6    2    1    2  501    0 -0.46135179621E+02  0.11497665855E+03 -0.30590129495E+03  0.37227103759E+03  0.17222670051E+03 0.  0.
         24    2    3    3    0    0 -0.24655154272E+02  0.44348510940E+02 -0.27746971931E+03  0.29302350629E+03  0.79364116908E+02 0.  0.
         -6    2    1    2    0  502  0.46135179621E+02 -0.11497665855E+03 -0.18787610854E+03  0.28300729971E+03  0.17160306735E+03 0.  0.
        -24    2    5    5    0    0  0.58319991450E+02 -0.77502722536E+02 -0.42638336620E+02  0.13244546554E+03  0.79472512154E+02 0.  0.
          5    1    3    3  501    0 -0.21480025349E+02  0.70628147606E+02 -0.28431575644E+02  0.79247531298E+02  0.47000000000E+01 0. -1.
        -11    1    4    4    0    0 -0.21050918032E+02  0.32305447525E+02 -0.41234718737E+02  0.56454274586E+02  0.00000000000E+00 0.  1.
         12    1    4    4    0    0 -0.36042362399E+01  0.12043063415E+02 -0.23623500057E+03  0.23656923171E+03  0.00000000000E+00 0. -1.
         -5    1    5    5    0  502 -0.12184811829E+02 -0.37473936010E+02 -0.14523777192E+03  0.15056183418E+03  0.47000000000E+01 0.  1.
         11    1    6    6    0    0  0.26840008477E+02  0.12804825262E+02 -0.11108501433E+02  0.31745053302E+02  0.00000000000E+00 0. -1.
        -12    1    6    6    0    0  0.31479982973E+02 -0.90307547798E+02 -0.31529835187E+02  0.10070041223E+03  0.00000000000E+00 0.  1.
</event>
<event>
12    1  0.1032880E+000  0.2326606E+03  0.7818608E-02  0.1125730E+00
         21   -1    0    0  501  502  0.00000000000E+00  0.00000000000E+00  0.50937198852E+03  0.50937198852E+03  0.00000000000E+00 0. -1.
         21   -1    0    0  502  503 -0.00000000000E+00 -0.00000000000E+00 -0.17087918372E+03  0.17087918372E+03  0.00000000000E+00 0. -1.
         -6    2    1    2    0  503 -0.10742262423E+03  0.10273046134E+03 -0.42613584010E+02  0.23653091309E+03  0.17899102609E+03 0.  0.
        -24    2    3    3    0    0 -0.78108551247E+02  0.12319049180E+03 -0.78896145272E+02  0.18537974523E+03  0.82850498822E+02 0.  0.
          6    2    1    2  501    0  0.10742262423E+03 -0.10273046134E+03  0.38110638880E+03  0.44372025915E+03  0.17190817582E+03 0.  0.
         24    2    5    5    0    0  0.10177554798E+03 -0.84680272481E+02  0.39198406714E+03  0.42140182117E+03  0.79993595222E+02 0.  0.
          5    1    5    5  501    0  0.56470762440E+01 -0.18050188854E+02 -0.10877678343E+02  0.22318437981E+02  0.47000000000E+01 0. -1.
        -11    1    6    6    0    0  0.74023194622E+02 -0.13951221598E+02  0.23899754794E+03  0.25058710630E+03  0.00000000000E+00 0.  1.
         12    1    6    6    0    0  0.27752353362E+02 -0.70729050883E+02  0.15298651921E+03  0.17081471487E+03  0.00000000000E+00 0. -1.
         -5    1    3    3    0  503 -0.29314072981E+02 -0.20460030467E+02  0.36282561262E+02  0.51151167857E+02  0.47000000000E+01 0.  1.
         11    1    4    4    0    0 -0.28783003498E+02  0.16279759159E+01 -0.38529734980E+02  0.48121222694E+02  0.00000000000E+00 0. -1.
        -12    1    4    4    0    0 -0.49325547749E+02  0.12156251589E+03 -0.40366410292E+02  0.13725852254E+03  0.00000000000E+00 0.  1.
</event>
<event>
12    1  0.1032880E+000  0.2452265E+03  0.7818608E-02  0.1116478E+00
         21   -1    0    0  503  502  0.00000000000E+00  0.00000000000E+00  0.36288828674E+03  0.36288828674E+03  0.00000000000E+00 0. -1.
         21   -1    0    0  501  503 -0.00000000000E+00 -0.00000000000E+00 -0.18295332469E+03  0.18295332469E+03  0.00000000000E+00 0. -1.
          6    2    1    2  501    0 -0.12405734199E+03 -0.12144364880E+03  0.17480993158E+03  0.30056154948E+03  0.17216256536E+03 0.  0.
         24    2    3    3    0    0 -0.58255388392E+02 -0.74083043384E+01  0.12484532377E+03  0.15966261791E+03  0.80356850612E+02 0.  0.
         -6    2    1    2    0  502  0.12405734199E+03  0.12144364880E+03  0.51250304657E+01  0.24528006195E+03  0.17319716775E+03 0.  0.
        -24    2    5    5    0    0  0.11413900753E+02  0.10368250655E+03  0.98343871471E+01  0.13105103294E+03  0.78723051066E+02 0.  0.
          5    1    3    3  501    0 -0.65801953597E+02 -0.11403534446E+03  0.49964607810E+02  0.14089893157E+03  0.47000000000E+01 0. -1.
        -11    1    4    4    0    0  0.98174688038E+01  0.12956471343E+02  0.28143330359E+00  0.16258291671E+02  0.00000000000E+00 0.  1.
         12    1    4    4    0    0 -0.68072857196E+02 -0.20364775681E+02  0.12456389047E+03  0.14340432624E+03  0.00000000000E+00 0. -1.
         -5    1    5    5    0  502  0.11264344124E+03  0.17761142256E+02 -0.47093566814E+01  0.11422902901E+03  0.47000000000E+01 0.  1.
         13    1    6    6    0    0  0.30170139424E+02  0.10677750909E+03  0.34985983768E+01  0.11101312513E+03  0.00000000000E+00 0. -1.
        -14    1    6    6    0    0 -0.18756238671E+02 -0.30950025467E+01  0.63357887703E+01  0.20037907805E+02  0.00000000000E+00 0.  1.
</event>
<event>
12    1  0.1032880E+000  0.1863876E+03  0.7818608E-02  0.1161924E+00
         21   -1    0    0  501  502  0.00000000000E+00  0.00000000000E+00  0.83754501794E+03  0.83754501794E+03  0.00000000000E+00 0. -1.
         21   -1    0    0  502  503 -0.00000000000E+00 -0.00000000000E+00 -0.41506087033E+02  0.41506087033E+02  0.00000000000E+00 0. -1.
         -6    2    1    2    0  503 -0.14049258392E+02 -0.70276605674E+02  0.42654063994E+03  0.46520413560E+03  0.17129444619E+03 0.  0.
        -24    2    3    3    0    0  0.30847451053E+02 -0.39804264561E+02  0.11389728547E+03  0.14785222496E+03  0.79697829807E+02 0.  0.
          6    2    1    2  501    0  0.14049258392E+02  0.70276605674E+02  0.36949829097E+03  0.41384696937E+03  0.17205854835E+03 0.  0.
         24    2    5    5    0    0  0.89526670488E+01 -0.30138528640E+02  0.17084997303E+03  0.19115341611E+03  0.79758598604E+02 0.  0.
          5    1    5    5  501    0  0.50965913434E+01  0.10041513431E+03  0.19864831794E+03  0.22269355326E+03  0.47000000000E+01 0. -1.
        -13    1    6    6    0    0 -0.26695630823E+02 -0.11223331704E+02  0.20497193707E+02  0.35478935010E+02  0.00000000000E+00 0.  1.
         14    1    6    6    0    0  0.35648297872E+02 -0.18915196936E+02  0.15035277933E+03  0.15567448110E+03  0.00000000000E+00 0. -1.
         -5    1    3    3    0  503 -0.44896709445E+02 -0.30472341113E+02  0.31264335447E+03  0.31735191064E+03  0.47000000000E+01 0.  1.
         11    1    4    4    0    0 -0.12090960953E+02  0.10544131546E+02  0.61180406244E+02  0.63248811491E+02  0.00000000000E+00 0. -1.
        -12    1    4    4    0    0  0.42938412006E+02 -0.50348396106E+02  0.52716879222E+02  0.84603413471E+02  0.00000000000E+00 0.  1.
</event>
<event>
12    1  0.1032880E+000  0.2263546E+03  0.7818608E-02  0.1129389E+00
         21   -1    0    0  503  502  0.00000000000E+00  0.00000000000E+00  0.13479550179E+03  0.13479550179E+03  0.00000000000E+00 0.  1.
         21   -1    0    0  501  503 -0.00000000000E+00 -0.00000000000E+00 -0.42813003617E+03  0.42813003617E+03  0.00000000000E+00 0.  1.
          6    2    1    2  501    0  0.29571553731E+02 -0.14448612454E+03 -0.50721771296E+02  0.23111633418E+03  0.17056185057E+03 0.  0.
         24    2    3    3    0    0  0.31427006392E+02 -0.24280809520E+02  0.21063200903E+02  0.91016610067E+02  0.79140068449E+02 0.  0.
         -6    2    1    2    0  502 -0.29571553731E+02  0.14448612454E+03 -0.24261276308E+03  0.33180920377E+03  0.17171394214E+03 0.  0.
        -24    2    5    5    0    0 -0.20742545970E+00  0.16703963538E+03 -0.22425002488E+03  0.29021361465E+03  0.77676158885E+02 0.  0.
          5    1    3    3  501    0 -0.18554526615E+01 -0.12020531502E+03 -0.71784972199E+02  0.14009972412E+03  0.47000000000E+01 0. -1.
        -13    1    4    4    0    0  0.25674787335E+01 -0.15668207902E+02  0.48032746551E+02  0.50588827098E+02  0.00000000000E+00 0.  1.
         14    1    4    4    0    0  0.28859527659E+02 -0.86126016179E+01 -0.26969545648E+02  0.40427782969E+02  0.00000000000E+00 0. -1.
         -5    1    5    5    0  502 -0.29364128271E+02 -0.22553510836E+02 -0.18362738203E+02  0.41595589123E+02  0.47000000000E+01 0.  1.
         11    1    6    6    0    0 -0.76179398289E+01 -0.65331834245E+01 -0.80835422718E+01  0.12886393931E+02  0.00000000000E+00 0. -1.
        -12    1    6    6    0    0  0.74105143692E+01  0.17357281880E+03 -0.21616648261E+03  0.27732722072E+03  0.00000000000E+00 0.  1.
</event>
<event>
12    1  0.1032880E+000  0.2615371E+03  0.7818608E-02  0.1106571E+00
         21   -1    0    0  503  502  0.00000000000E+00  0.00000000000E+00  0.34110254631E+03  0.34110254631E+03  0.00000000000E+00 0.  1.
         21   -1    0    0  501  503 -0.00000000000E+00 -0.00000000000E+00 -0.25182857382E+03  0.25182857382E+03  0.00000000000E+00 0. -1.
          6    2    1    2  501    0 -0.72601874196E+01 -0.19378474333E+03 -0.91621035358E+02  0.27493009607E+03  0.17200844903E+03 0.  0.
         24    2    3    3    0    0  0.20573379610E+02 -0.10897452373E+03 -0.12145799948E+03  0.18069732455E+03  0.74838270225E+02 0.  0.
         -6    2    1    2    0  502  0.72601874196E+01  0.19378474333E+03  0.18089500785E+03  0.31800102406E+03  0.17548906054E+03 0.  0.
        -24    2    5    5    0    0 -0.23632315678E+01  0.13946670264E+03  0.20269343657E+03  0.25850042547E+03  0.79254619615E+02 0.  0.
          5    1    3    3  501    0 -0.27833567029E+02 -0.84810219597E+02  0.29836964118E+02  0.94232771526E+02  0.47000000000E+01 0. -1.
        -13    1    4    4    0    0 -0.24494529848E+02 -0.14014367863E+02 -0.32048720183E+02  0.42702517074E+02  0.00000000000E+00 0.  1.
         14    1    4    4    0    0  0.45067909458E+02 -0.94960155869E+02 -0.89409279293E+02  0.13799480747E+03  0.00000000000E+00 0. -1.
         -5    1    5    5    0  502  0.96234189875E+01  0.54318040693E+02 -0.21798428725E+02  0.59500598591E+02  0.47000000000E+01 0.  1.
         13    1    6    6    0    0  0.27689702105E+02  0.50311138436E+02  0.12084604148E+03  0.13379721968E+03  0.00000000000E+00 0. -1.
        -14    1    6    6    0    0 -0.30052933672E+02  0.89155564200E+02  0.81847395097E+02  0.12470320579E+03  0.00000000000E+00 0.  1.
</event>
<event>
12    1  0.1032880E+000  0.1851084E+03  0.7818608E-02  0.1164989E+00
         21   -1    0    0  501  502  0.00000000000E+00  0.00000000000E+00  0.10328087013E+04  0.10328087013E+04  0.00000000000E+00 0.  1.
         21   -1    0    0  502  503 -0.00000000000E+00 -0.00000000000E+00 -0.31666587238E+02  0.31666587238E+02  0.00000000000E+00 0.  1.
         -6    2    1    2    0  503  0.54884984486E+02  0.32211045434E+02  0.51481468168E+03  0.54708252356E+03  0.17382525173E+03 0.  0.
        -24    2    3    3    0    0  0.33033593495E+02  0.12405721193E+02  0.10916405315E+03  0.14033412887E+03  0.80819286111E+02 0.  0.
          6    2    1    2  501    0 -0.54884984486E+02 -0.32211045434E+02  0.48632743239E+03  0.51739276498E+03  0.16471487121E+03 0.  0.
         24    2    5    5    0    0  0.87150073404E+01  0.32783150940E+02  0.23473326322E+03  0.24982796820E+03  0.78508741503E+02 0.  0.
          5    1    5    5  501    0 -0.63599991827E+02 -0.64994196373E+02  0.25159416916E+03  0.26756479679E+03  0.47000000000E+01 0. -1.
        -11    1    6    6    0    0 -0.21334991190E+02  0.38705221201E+02  0.19338910717E+03  0.19837495500E+03  0.00000000000E+00 0.  1.
         12    1    6    6    0    0  0.30049998531E+02 -0.59220702614E+01  0.41344156047E+02  0.51453013198E+02  0.00000000000E+00 0. -1.
         -5    1    3    3    0  503  0.21851390992E+02  0.19805324241E+02  0.40565062853E+03  0.40674839469E+03  0.47000000000E+01 0.  1.
         13    1    4    4    0    0  0.46575630895E+02 -0.21764062030E+02  0.65174934471E+02  0.83010456405E+02  0.00000000000E+00 0. -1.
        -14    1    4    4    0    0 -0.13542037401E+02  0.34169783223E+02  0.43989118684E+02  0.57323672466E+02  0.00000000000E+00 0.  1.
</event>
<event>
12    1  0.1032880E+000  0.2065724E+03  0.7818608E-02  0.1144398E+00
         21   -1    0    0  501  502  0.00000000000E+00  0.00000000000E+00  0.29682153270E+03  0.29682153270E+03  0.00000000000E+00 0.  1.
         21   -1    0    0  502  503 -0.00000000000E+00 -0.00000000000E+00 -0.15014771127E+03  0.15014771127E+03  0.00000000000E+00 0.  1.
         -6    2    1    2    0  503  0.84516813921E+02 -0.74978709847E+02  0.26089540760E+02  0.20777739657E+03  0.17241195905E+03 0.  0.
        -24    2    3    3    0    0 -0.23037218769E+02 -0.59368322880E+02 -0.14883492261E+02  0.91534402962E+02  0.64044651404E+02 0.  0.
          6    2    1    2  501    0 -0.84516813921E+02  0.74978709847E+02  0.12058428067E+03  0.23919184740E+03  0.17293719192E+03 0.  0.
         24    2    5    5    0    0 -0.25405146989E+02  0.58299256913E+02  0.14005878146E+03  0.17458736227E+03  0.82583654255E+02 0.  0.
          5    1    5    5  501    0 -0.59111666933E+02  0.16679452934E+02 -0.19474500783E+02  0.64604485127E+02  0.47000000000E+01 0. -1.
        -13    1    6    6    0    0 -0.46068996651E+02  0.20804333890E+02  0.35976748080E+02  0.62044332243E+02  0.00000000000E+00 0.  1.
         14    1    6    6    0    0  0.20663849662E+02  0.37494923022E+02  0.10408203338E+03  0.11254303003E+03  0.00000000000E+00 0. -1.
         -5    1    3    3    0  503  0.10755403269E+03 -0.15610386966E+02  0.40973033020E+02  0.11624299361E+03  0.47000000000E+01 0.  1.
         13    1    4    4    0    0 -0.39422424655E+02 -0.36755910256E+02 -0.27937113674E+02  0.60709198848E+02  0.00000000000E+00 0. -1.
        -14    1    4    4    0    0  0.16385205886E+02 -0.22612412625E+02  0.13053621413E+02  0.30825204113E+02  0.00000000000E+00 0.  1.
</event>
<event>
12    1  0.1032880E+000  0.2348064E+03  0.7818608E-02  0.1123578E+00
         21   -1    0    0  501  502  0.00000000000E+00  0.00000000000E+00  0.15011700367E+04  0.15011700367E+04  0.00000000000E+00 0. -1.
         21   -1    0    0  502  503 -0.00000000000E+00 -0.00000000000E+00 -0.39168165056E+02  0.39168165056E+02  0.00000000000E+00 0. -1.
         -6    2    1    2    0  503 -0.14515595806E+03  0.61225555878E+02  0.52675954808E+03  0.57607048392E+03  0.17193824502E+03 0.  0.
        -24    2    3    3    0    0 -0.33131099205E+02 -0.83709484025E+01  0.30131751051E+03  0.31484367689E+03  0.84655515027E+02 0.  0.
          6    2    1    2  501    0  0.14515595806E+03 -0.61225555878E+02  0.93524232358E+03  0.96426771785E+03  0.17411262738E+03 0.  0.
         24    2    5    5    0    0  0.94408412015E+02 -0.25727842364E+02  0.84524328354E+03  0.85491819429E+03  0.82909833084E+02 0.  0.
          5    1    5    5  501    0  0.50747546049E+02 -0.35497713514E+02  0.89999040037E+02  0.10934952356E+03  0.47000000000E+01 0. -1.
        -13    1    6    6    0    0  0.28844615550E+02  0.12570698278E+02  0.80754124090E+02  0.86667542131E+02  0.00000000000E+00 0.  1.
         14    1    6    6    0    0  0.65563796464E+02 -0.38298540642E+02  0.76448915945E+03  0.76825065216E+03  0.00000000000E+00 0. -1.
         -5    1    3    3    0  503 -0.11202485886E+03  0.69596504281E+02  0.22544203757E+03  0.26122680703E+03  0.47000000000E+01 0.  1.
         11    1    4    4    0    0  0.14453556243E+02  0.22335748517E+02  0.44416937652E+02  0.51775045150E+02  0.00000000000E+00 0. -1.
        -12    1    4    4    0    0 -0.47584655448E+02 -0.30706696919E+02  0.25690057286E+03  0.26306863174E+03  0.00000000000E+00 0.  1.
</event>
<event>
12    1  0.1032880E+000  0.1893064E+03  0.7818608E-02  0.1159223E+00
         21   -1    0    0  501  502  0.00000000000E+00  0.00000000000E+00  0.31553035298E+02  0.31553035298E+02  0.00000000000E+00 0.  1.
         21   -1    0    0  502  503 -0.00000000000E+00 -0.00000000000E+00 -0.11323483797E+04  0.11323483797E+04  0.00000000000E+00 0.  1.
         -6    2    1    2    0  503 -0.78504791143E+02  0.69215818978E+01 -0.55774893485E+03  0.58899981205E+03  0.17212203154E+03 0.  0.
        -24    2    3    3    0    0 -0.87010872293E+02  0.10381730780E+02 -0.23385116954E+03  0.26493781425E+03  0.88470354884E+02 0.  0.
          6    2    1    2  501    0  0.78504791143E+02 -0.69215818978E+01 -0.54304640960E+03  0.57490160299E+03  0.17146877155E+03 0.  0.
         24    2    5    5    0    0  0.10660420301E+03 -0.15854320313E+01 -0.52387113200E+03  0.54014771525E+03  0.77146753973E+02 0.  0.
          5    1    5    5  501    0 -0.28099411863E+02 -0.53361498665E+01 -0.19175277595E+02  0.34753887743E+02  0.47000000000E+01 0. -1.
        -13    1    6    6    0    0  0.86238602035E+02  0.55755327051E+01 -0.23356020883E+03  0.24903524689E+03  0.00000000000E+00 0.  1.
         14    1    6    6    0    0  0.20365600971E+02 -0.71609647364E+01 -0.29031092317E+03  0.29111246836E+03  0.00000000000E+00 0. -1.
         -5    1    3    3    0  503  0.85060811500E+01 -0.34601488825E+01 -0.32389776531E+03  0.32406199780E+03  0.47000000000E+01 0.  1.
         11    1    4    4    0    0 -0.92677127472E+02  0.29983136811E+02 -0.21904930135E+03  0.23973033782E+03  0.00000000000E+00 0. -1.
        -12    1    4    4    0    0  0.56662551790E+01 -0.19601406031E+02 -0.14801868195E+02  0.25207476434E+02  0.00000000000E+00 0.  1.
</event>
<event>
12    1  0.1032880E+000  0.2123017E+03  0.7818608E-02  0.1140828E+00
         21   -1    0    0  501  502  0.00000000000E+00  0.00000000000E+00  0.14269192748E+04  0.14269192748E+04  0.00000000000E+00 0. -1.
         21   -1    0    0  502  503 -0.00000000000E+00 -0.00000000000E+00 -0.40754709302E+02  0.40754709302E+02  0.00000000000E+00 0. -1.
         -6    2    1    2    0  503  0.11582015253E+03  0.59754187506E+01  0.10492251486E+04  0.10694275891E+04  0.17132408580E+03 0.  0.
        -24    2    3    3    0    0  0.10411907843E+03  0.15909515603E+02  0.10442126531E+04  0.10526104393E+04  0.80714167097E+02 0.  0.
          6    2    1    2  501    0 -0.11582015253E+03 -0.59754187506E+01  0.33693941687E+03  0.39824639504E+03  0.17782577755E+03 0.  0.
         24    2    5    5    0    0 -0.11898414924E+03  0.38105210100E+02  0.17041350836E+03  0.22589187401E+03  0.79856997848E+02 0.  0.
          5    1    5    5  501    0  0.31639967057E+01 -0.44080628850E+02  0.16652590851E+03  0.17235452103E+03  0.47000000000E+01 0. -1.
        -11    1    6    6    0    0 -0.75796337015E+02  0.62835733125E+02  0.11025364653E+03  0.14781502168E+03  0.00000000000E+00 0.  1.
         12    1    6    6    0    0 -0.43187812222E+02 -0.24730523025E+02  0.60159861833E+02  0.78076852328E+02  0.00000000000E+00 0. -1.
         -5    1    3    3    0  503  0.11701074102E+02 -0.99340968523E+01  0.50124955027E+01  0.16817149776E+02  0.47000000000E+01 0.  1.
         11    1    4    4    0    0  0.28606232579E+02  0.21018654984E+02  0.11581975651E+03  0.12113759284E+03  0.00000000000E+00 0. -1.
        -12    1    4    4    0    0  0.75512845851E+02 -0.51091393808E+01  0.92839289663E+03  0.93147284646E+03  0.00000000000E+00 0.  1.
</event>
<event>
12    1  0.1032880E+000  0.2998354E+03  0.7818608E-02  0.1086211E+00
         21   -1    0    0  503  502  0.00000000000E+00  0.00000000000E+00  0.29885335805E+03  0.29885335805E+03  0.00000000000E+00 0. -1.
         21   -1    0    0  501  503 -0.00000000000E+00 -0.00000000000E+00 -0.35450846657E+03  0.35450846657E+03  0.00000000000E+00 0. -1.
          6    2    1    2  501    0 -0.22952384785E+03 -0.60925435088E+02 -0.16324715130E+03  0.34139548788E+03  0.18305229134E+03 0.  0.
         24    2    3    3    0    0 -0.19473804372E+03 -0.52826841072E+02 -0.49753397451E+02  0.22232172269E+03  0.78980801541E+02 0.  0.
         -6    2    1    2    0  502  0.22952384785E+03  0.60925435088E+02  0.10759204279E+03  0.31196633674E+03  0.17132963030E+03 0.  0.
        -24    2    5    5    0    0  0.14950621947E+03  0.73034624155E+02  0.13267057923E+03  0.22711071641E+03  0.79319789029E+02 0.  0.
          5    1    3    3  501    0 -0.34785804134E+02 -0.80985940157E+01 -0.11349375385E+03  0.11907376519E+03  0.47000000000E+01 0. -1.
        -13    1    4    4    0    0 -0.85577436179E+02 -0.56543119755E+02 -0.66066268419E+00  0.10257221090E+03  0.00000000000E+00 0.  1.
         14    1    4    4    0    0 -0.10916060754E+03  0.37162786822E+01 -0.49092734767E+02  0.11974951178E+03  0.00000000000E+00 0. -1.
         -5    1    5    5    0  502  0.80017628380E+02 -0.12109189067E+02 -0.25078536443E+02  0.84855620330E+02  0.47000000000E+01 0.  1.
         11    1    6    6    0    0 -0.80389326955E+01 -0.26238826848E+01  0.12192998309E+02  0.14838409854E+02  0.00000000000E+00 0. -1.
        -12    1    6    6    0    0  0.15754515217E+03  0.75658506840E+02  0.12047758092E+03  0.21227230656E+03  0.00000000000E+00 0.  1.
</event>
<event>
12    1  0.1032880E+000  0.1863531E+03  0.7818608E-02  0.1161958E+00
         21   -1    0    0  501  502  0.00000000000E+00  0.00000000000E+00  0.59178178199E+03  0.59178178199E+03  0.00000000000E+00 0.  1.
         21   -1    0    0  502  503 -0.00000000000E+00 -0.00000000000E+00 -0.97499887769E+02  0.97499887769E+02  0.00000000000E+00 0.  1.
         -6    2    1    2    0  503 -0.69926914512E+02 -0.18656695905E+02  0.46551441420E+03  0.50142910589E+03  0.17172545745E+03 0.  0.
        -24    2    3    3    0    0 -0.70944957345E+02 -0.24781603776E+02  0.47601637422E+03  0.48835500661E+03  0.79067750084E+02 0.  0.
          6    2    1    2  501    0  0.69926914512E+02  0.18656695905E+02  0.28767480021E+02  0.18785256386E+03  0.17094786389E+03 0.  0.
         24    2    5    5    0    0 -0.96359059539E+01 -0.95537145815E+01 -0.28046775958E+02  0.85989816292E+02  0.80146757380E+02 0.  0.
          5    1    5    5  501    0  0.79562820466E+02  0.28210410486E+02  0.56814255979E+02  0.10186274757E+03  0.47000000000E+01 0. -1.
        -13    1    6    6    0    0 -0.16778360677E-01 -0.17077013135E+02  0.25709305441E+02  0.30864106100E+02  0.00000000000E+00 0.  1.
         14    1    6    6    0    0 -0.96191275932E+01  0.75232985530E+01 -0.53756081399E+02  0.55125710192E+02  0.00000000000E+00 0. -1.
         -5    1    3    3    0  503  0.10180428335E+01  0.61249078715E+01 -0.10501960021E+02  0.13074099278E+02  0.47000000000E+01 0.  1.
         13    1    4    4    0    0 -0.34037892108E+02 -0.93486421845E+01  0.40741909838E+03  0.40894534713E+03  0.00000000000E+00 0. -1.
        -14    1    4    4    0    0 -0.36907065237E+02 -0.15432961592E+02  0.68597275836E+02  0.79409659488E+02  0.00000000000E+00 0.  1.
</event>
<event>
12    1  0.1032880E+000  0.1743499E+03  0.7818608E-02  0.1173656E+00
         21   -1    0    0  503  502  0.00000000000E+00  0.00000000000E+00  0.89068933176E+02  0.89068933176E+02  0.00000000000E+00 0.  1.
         21   -1    0    0  501  503 -0.00000000000E+00 -0.00000000000E+00 -0.34187746985E+03  0.34187746985E+03  0.00000000000E+00 0.  1.
          6    2    1    2  501    0  0.21475979579E+02 -0.19565389984E+02 -0.14509982953E+03  0.22600968370E+03  0.17082855268E+03 0.  0.
         24    2    3    3    0    0 -0.51513948600E+02 -0.39040475545E+01 -0.10160108754E+03  0.13948201288E+03  0.80396034981E+02 0.  0.
         -6    2    1    2    0  502 -0.21475979579E+02  0.19565389984E+02 -0.10770870715E+03  0.20493671933E+03  0.17191239382E+03 0.  0.
        -24    2    5    5    0    0 -0.28412720937E+02  0.76750806331E+02 -0.62067638047E+02  0.13129238885E+03  0.81776100991E+02 0.  0.
          5    1    3    3  501    0  0.72989928180E+02 -0.15661342430E+02 -0.43498741992E+02  0.86527670818E+02  0.47000000000E+01 0. -1.
        -13    1    4    4    0    0 -0.34899492736E+02  0.32708661578E+02 -0.81576903966E+02  0.94565439755E+02  0.00000000000E+00 0.  1.
         14    1    4    4    0    0 -0.16614455864E+02 -0.36612709132E+02 -0.20024183574E+02  0.44916573127E+02  0.00000000000E+00 0. -1.
         -5    1    5    5    0  502  0.69367413577E+01 -0.57185416347E+02 -0.45641069098E+02  0.73644330480E+02  0.47000000000E+01 0.  1.
         11    1    6    6    0    0  0.26456922376E+02  0.29588166025E+02 -0.38242742287E+02  0.55117471349E+02  0.00000000000E+00 0. -1.
        -12    1    6    6    0    0 -0.54869643314E+02  0.47162640307E+02 -0.23824895760E+02  0.76174917500E+02  0.00000000000E+00 0.  1.
</event>
<event>
12    1  0.1032880E+000  0.2031841E+03  0.7818608E-02  0.1147617E+00
         21   -1    0    0  501  502  0.00000000000E+00  0.00000000000E+00  0.61642019646E+02  0.61642019646E+02  0.00000000000E+00 0. -1.
         21   -1    0    0  502  503 -0.00000000000E+00 -0.00000000000E+00 -0.88776332288E+03  0.88776332288E+03  0.00000000000E+00 0. -1.
         -6    2    1    2    0  503  0.73617203144E+02 -0.77781702187E+02 -0.17524842793E+03  0.26832034600E+03  0.17266821014E+03 0.  0.
        -24    2    3    3    0    0  0.53440167353E+02 -0.27751753928E+02 -0.18778557175E+03  0.21273816836E+03  0.79800350815E+02 0.  0.
          6    2    1    2  501    0 -0.73617203144E+02  0.77781702187E+02 -0.65087287530E+03  0.68108499652E+03  0.16962248343E+03 0.  0.
         24    2    5    5    0    0  0.12076087069E+02  0.62989883562E+02 -0.23832412047E+03  0.25944450629E+03  0.79996925800E+02 0.  0.
          5    1    5    5  501    0 -0.85693290212E+02  0.14791818625E+02 -0.41254875483E+03  0.42164049022E+03  0.47000000000E+01 0. -1.
        -13    1    6    6    0    0  0.51386810565E+01 -0.15286121183E+02 -0.12699831940E+02  0.20526988944E+02  0.00000000000E+00 0.  1.
         14    1    6    6    0    0  0.69374060120E+01  0.78276004745E+02 -0.22562428853E+03  0.23891751735E+03  0.00000000000E+00 0. -1.
         -5    1    3    3    0  503  0.20177035791E+02 -0.50029948259E+02  0.12537143816E+02  0.55582177640E+02  0.47000000000E+01 0.  1.
         13    1    4    4    0    0  0.51528861402E+02  0.42906687808E+01 -0.52465990733E+02  0.73663515933E+02  0.00000000000E+00 0. -1.
        -14    1    4    4    0    0  0.19113059511E+01 -0.32042422709E+02 -0.13531958101E+03  0.13907465243E+03  0.00000000000E+00 0.  1.
</event>
<event>
12    1  0.1032880E+000  0.2426442E+03  0.7818608E-02  0.1118203E+00
         21   -1    0    0  501  502  0.00000000000E+00  0.00000000000E+00  0.12202643274E+03  0.12202643274E+03  0.00000000000E+00 0. -1.
         21   -1    0    0  502  503 -0.00000000000E+00 -0.00000000000E+00 -0.48057120564E+03  0.48057120564E+03  0.00000000000E+00 0. -1.
         -6    2    1    2    0  503  0.92226909495E+02 -0.14433415875E+03 -0.17852269903E+03  0.30046499401E+03  0.17050133823E+03 0.  0.
        -24    2    3    3    0    0 -0.20325937069E+01 -0.33328880980E+02 -0.31544219617E+02  0.93506570534E+02  0.81446271843E+02 0.  0.
          6    2    1    2  501    0 -0.92226909495E+02  0.14433415875E+03 -0.18002207387E+03  0.30213264438E+03  0.17186633034E+03 0.  0.
         24    2    5    5    0    0 -0.12010685274E+03  0.14428429060E+03 -0.13221298336E+03  0.24658903217E+03  0.89901419493E+02 0.  0.
          5    1    5    5  501    0  0.27879943247E+02  0.49868146687E-01 -0.47809090507E+02  0.55543612211E+02  0.47000000000E+01 0. -1.
        -11    1    6    6    0    0 -0.14710969588E+00  0.31396556615E+02  0.55093561377E+01  0.31876612330E+02  0.00000000000E+00 0.  1.
         12    1    6    6    0    0 -0.11995974305E+03  0.11288773398E+03 -0.13772233950E+03  0.21471241984E+03  0.00000000000E+00 0. -1.
         -5    1    3    3    0  503  0.94259503202E+02 -0.11100527776E+03 -0.14697847942E+03  0.20695842348E+03  0.47000000000E+01 0.  1.
         11    1    4    4    0    0  0.15956034418E+02 -0.11105080188E+02 -0.53844596183E+02  0.57246470445E+02  0.00000000000E+00 0. -1.
        -12    1    4    4    0    0 -0.17988628125E+02 -0.22223800792E+02  0.22300376566E+02  0.36260100089E+02  0.00000000000E+00 0.  1.
</event>
<event>
12    1  0.1032880E+000  0.2998455E+03  0.7818608E-02  0.1085444E+00
         21   -1    0    0  503  502  0.00000000000E+00  0.00000000000E+00  0.27356720709E+03  0.27356720709E+03  0.00000000000E+00 0.  1.
         21   -1    0    0  501  503 -0.00000000000E+00 -0.00000000000E+00 -0.47806309634E+03  0.47806309634E+03  0.00000000000E+00 0.  1.
          6    2    1    2  501    0 -0.24493606072E+03 -0.21342748869E+02 -0.31300502069E+03  0.43275483339E+03  0.16986882019E+03 0.  0.
         24    2    3    3    0    0 -0.16029234640E+03  0.30360801324E+02 -0.26697301396E+03  0.32330689545E+03  0.81469895592E+02 0.  0.
         -6    2    1    2    0  502  0.24493606072E+03  0.21342748869E+02  0.10850913145E+03  0.31887547004E+03  0.17163375837E+03 0.  0.
        -24    2    5    5    0    0  0.22034138856E+03 -0.26038525884E+02  0.57182535157E+02  0.24467039890E+03  0.85822080066E+02 0.  0.
          5    1    3    3  501    0 -0.84643714325E+02 -0.51703550193E+02 -0.46032006730E+02  0.10944793795E+03  0.47000000000E+01 0. -1.
        -13    1    4    4    0    0 -0.77347112968E+02  0.55159961229E+02 -0.15454165677E+03  0.18140650728E+03  0.00000000000E+00 0.  1.
         14    1    4    4    0    0 -0.82945233432E+02 -0.24799159905E+02 -0.11243135719E+03  0.14190038817E+03  0.00000000000E+00 0. -1.
         -5    1    5    5    0  502  0.24594672162E+02  0.47381274754E+02  0.51326596289E+02  0.74205071139E+02  0.47000000000E+01 0.  1.
         13    1    6    6    0    0  0.11665343242E+03 -0.48912082748E+02  0.56374314633E+02  0.13848638375E+03  0.00000000000E+00 0. -1.
        -14    1    6    6    0    0  0.10368795614E+03  0.22873556864E+02  0.80822052406E+00  0.10618401515E+03  0.00000000000E+00 0.  1.
</event>
<event>
12    1  0.1032880E+000  0.2241962E+03  0.7818608E-02  0.1131097E+00
         21   -1    0    0  501  502  0.00000000000E+00  0.00000000000E+00  0.33605383823E+03  0.33605383823E+03  0.00000000000E+00 0.  1.
         21   -1    0    0  502  503 -0.00000000000E+00 -0.00000000000E+00 -0.14890337586E+03  0.14890337586E+03  0.00000000000E+00 0.  1.
         -6    2    1    2    0  503 -0.76506661086E+02 -0.12096765518E+03  0.80709476790E+02  0.23828126151E+03  0.17256157496E+03 0.  0.
        -24    2    3    3    0    0  0.13547020905E+02 -0.10442654845E+03  0.53131651693E+02  0.14254255309E+03  0.80043620819E+02 0.  0.
          6    2    1    2  501    0  0.76506661086E+02  0.12096765518E+03  0.10644098558E+03  0.24667595258E+03  0.17039043217E+03 0.  0.
         24    2    5    5    0    0 -0.38316583126E+01  0.73845327775E+01  0.42470918604E+02  0.93477941073E+02  0.82856101830E+02 0.  0.
          5    1    5    5  501    0  0.80338319399E+02  0.11358312241E+03  0.63970066978E+02  0.15319801150E+03  0.47000000000E+01 0. -1.
        -11    1    6    6    0    0 -0.22433842940E+02 -0.46002097297E-01  0.61736114151E+02  0.65685822029E+02  0.00000000000E+00 0.  1.
         12    1    6    6    0    0  0.18602184628E+02  0.74305348748E+01 -0.19265195547E+02  0.27792119043E+02  0.00000000000E+00 0. -1.
         -5    1    3    3    0  503 -0.90053681992E+02 -0.16541106735E+02  0.27577825097E+02  0.95738708417E+02  0.47000000000E+01 0.  1.
         13    1    4    4    0    0 -0.15130722545E+02 -0.62386063766E+02  0.63843672320E+02  0.90537142722E+02  0.00000000000E+00 0. -1.
        -14    1    4    4    0    0  0.28677743450E+02 -0.42040484683E+02 -0.10712020627E+02  0.52005410369E+02  0.00000000000E+00 0.  1.
</event>
<event>
12    1  0.1032880E+000  0.3206149E+03  0.7818608E-02  0.1075465E+00
         21   -1    0    0  503  502  0.00000000000E+00  0.00000000000E+00  0.76169190353E+03  0.76169190353E+03  0.00000000000E+00 0.  1.
         21   -1    0    0  501  503 -0.00000000000E+00 -0.00000000000E+00 -0.21241982230E+03  0.21241982230E+03  0.00000000000E+00 0.  1.
          6    2    1    2  501    0 -0.54162865068E+02 -0.26528397301E+03 -0.19939398040E+02  0.32123434817E+03  0.17171116610E+03 0.  0.
         24    2    3    3    0    0  0.35212083862E+02 -0.12132682875E+03 -0.22670233800E+02  0.15170237967E+03  0.80867683735E+02 0.  0.
         -6    2    1    2    0  502  0.54162865068E+02  0.26528397301E+03  0.56921147927E+03  0.65287737766E+03  0.17011160993E+03 0.  0.
        -24    2    5    5    0    0  0.99779169272E+02  0.21898112321E+03  0.42816142748E+03  0.49750039024E+03  0.79220043944E+02 0.  0.
          5    1    3    3  501    0 -0.89374948930E+02 -0.14395714426E+03  0.27308357597E+01  0.16953196850E+03  0.47000000000E+01 0. -1.
        -13    1    4    4    0    0  0.12057814436E+02 -0.19998965377E+02  0.27675363504E+02  0.36211534767E+02  0.00000000000E+00 0.  1.
         14    1    4    4    0    0  0.23154269426E+02 -0.10132786338E+03 -0.50345597304E+02  0.11549084491E+03  0.00000000000E+00 0. -1.
         -5    1    5    5    0  502 -0.45616304205E+02  0.46302849803E+02  0.14105005180E+03  0.15537698742E+03  0.47000000000E+01 0.  1.
         11    1    6    6    0    0  0.36892310975E+02  0.10450349027E+03  0.12300666907E+03  0.16556769831E+03  0.00000000000E+00 0. -1.
        -12    1    6    6    0    0  0.62886858298E+02  0.11447763294E+03  0.30515475841E+03  0.33193269193E+03  0.00000000000E+00 0.  1.
</event>
<event>
12    1  0.1032880E+000  0.2167091E+03  0.7818608E-02  0.1136598E+00
         21   -1    0    0  503  502  0.00000000000E+00  0.00000000000E+00  0.33593078439E+02  0.33593078439E+02  0.00000000000E+00 0. -1.
         21   -1    0    0  501  503 -0.00000000000E+00 -0.00000000000E+00 -0.17120638341E+04  0.17120638341E+04  0.00000000000E+00 0. -1.
          6    2    1    2  501    0  0.12707074786E+03 -0.22043996452E+02 -0.12197838593E+04  0.12388847823E+04  0.17415489558E+03 0.  0.
         24    2    3    3    0    0  0.26088006974E+02 -0.62384881088E+02 -0.45434058212E+03  0.46574158631E+03  0.76924658950E+02 0.  0.
         -6    2    1    2    0  502 -0.12707074786E+03  0.22043996452E+02 -0.45868689635E+03  0.50677213024E+03  0.17260188399E+03 0.  0.
        -24    2    5    5    0    0 -0.89574198370E+02 -0.24424352693E+02 -0.15466643805E+03  0.19690792165E+03  0.78936281460E+02 0.  0.
          5    1    3    3  501    0  0.10098274088E+03  0.40340884636E+02 -0.76544327716E+03  0.77314319598E+03  0.47000000000E+01 0. -1.
        -11    1    4    4    0    0  0.46261571834E+02 -0.35518633673E+02 -0.17672898717E+03  0.18610438273E+03  0.00000000000E+00 0.  1.
         12    1    4    4    0    0 -0.20173564859E+02 -0.26866247415E+02 -0.27761159495E+03  0.27963720357E+03  0.00000000000E+00 0. -1.
         -5    1    5    5    0  502 -0.37496549489E+02  0.46468349145E+02 -0.30402045831E+03  0.30986420859E+03  0.47000000000E+01 0.  1.
         11    1    6    6    0    0 -0.10408825625E+02  0.67865853375E+01  0.69646757936E+01  0.14244581438E+02  0.00000000000E+00 0. -1.
        -12    1    6    6    0    0 -0.79165372745E+02 -0.31210938030E+02 -0.16163111384E+03  0.18266334021E+03  0.00000000000E+00 0.  1.
</event>
<event>
12    1  0.1032880E+000  0.2838906E+03  0.7818608E-02  0.1093898E+00
         21   -1    0    0  503  502  0.00000000000E+00  0.00000000000E+00  0.34657383551E+03  0.34657383551E+03  0.00000000000E+00 0. -1.
         21   -1    0    0  501  503 -0.00000000000E+00 -0.00000000000E+00 -0.32425762949E+03  0.32425762949E+03  0.00000000000E+00 0. -1.
          6    2    1    2  501    0 -0.68481475518E+02  0.21402666336E+03  0.19135912854E+03  0.34042353163E+03  0.16962529202E+03 0.  0.
         24    2    3    3    0    0 -0.34947085564E+02  0.20580478125E+03  0.20141856247E+03  0.30415457981E+03  0.91453071757E+02 0.  0.
         -6    2    1    2    0  502  0.68481475518E+02 -0.21402666336E+03 -0.16904292252E+03  0.33040793337E+03  0.17348420003E+03 0.  0.
        -24    2    5    5    0    0  0.71342645756E+02 -0.52883439963E+02 -0.92828328031E+02  0.15206534408E+03  0.81365466009E+02 0.  0.
          5    1    3    3  501    0 -0.33534389954E+02  0.82218821092E+01 -0.10059433936E+02  0.36268951820E+02  0.47000000000E+01 0. -1.
        -13    1    4    4    0    0  0.25769351300E+02  0.32246518908E+02  0.56847820868E+02  0.70253627561E+02  0.00000000000E+00 0.  1.
         14    1    4    4    0    0 -0.60716436864E+02  0.17355826235E+03  0.14457074161E+03  0.23390095225E+03  0.00000000000E+00 0. -1.
         -5    1    5    5    0  502 -0.28611702380E+01 -0.16114322340E+03 -0.76214594491E+02  0.17834258929E+03  0.47000000000E+01 0.  1.
         11    1    6    6    0    0  0.70428280272E+02 -0.84410158361E+01 -0.34917103315E+02  0.79060720426E+02  0.00000000000E+00 0. -1.
        -12    1    6    6    0    0  0.91436548448E+00 -0.44442424126E+02 -0.57911224716E+02  0.73004623652E+02  0.00000000000E+00 0.  1.
</event>
<event>
12    1  0.1032880E+000  0.3859188E+03  0.7818608E-02  0.1048833E+00
         21   -1    0    0  501  502  0.00000000000E+00  0.00000000000E+00  0.54623096669E+03  0.54623096669E+03  0.00000000000E+00 0. -1.
         21   -1    0    0  502  503 -0.00000000000E+00 -0.00000000000E+00 -0.34462974812E+03  0.34462974812E+03  0.00000000000E+00 0. -1.
         -6    2    1    2    0  503 -0.15646895605E+03 -0.30783674934E+03  0.30514839577E+03  0.49198458373E+03  0.17229999635E+03 0.  0.
        -24    2    3    3    0    0 -0.96143521775E+02 -0.22088430956E+03  0.12488496193E+03  0.28289876312E+03  0.80012508203E+02 0.  0.
          6    2    1    2  501    0  0.15646895605E+03  0.30783674934E+03 -0.10354717720E+03  0.39887613108E+03  0.17068729183E+03 0.  0.
         24    2    5    5    0    0  0.11916373363E+03  0.16898283751E+03 -0.12724587453E+02  0.22874993893E+03  0.97002188885E+02 0.  0.
          5    1    5    5  501    0  0.37305222427E+02  0.13885391182E+03 -0.90822589744E+02  0.17012619215E+03  0.47000000000E+01 0. -1.
        -11    1    6    6    0    0  0.25889206627E+02  0.40513318774E+02 -0.46000811664E+02  0.66540624370E+02  0.00000000000E+00 0.  1.
         12    1    6    6    0    0  0.93274527001E+02  0.12846951874E+03  0.33276224210E+02  0.16220931456E+03  0.00000000000E+00 0. -1.
         -5    1    3    3    0  503 -0.60325434280E+02 -0.86952439776E+02  0.18026343383E+03  0.20908582061E+03  0.47000000000E+01 0.  1.
         13    1    4    4    0    0  0.55739006752E+00 -0.73023546669E+02  0.14133647889E+02  0.74380837952E+02  0.00000000000E+00 0. -1.
        -14    1    4    4    0    0 -0.96700911842E+02 -0.14786076289E+03  0.11075131405E+03  0.20851792517E+03  0.00000000000E+00 0.  1.
</event>
<event>
12    1  0.1032880E+000  0.1836387E+03  0.7818608E-02  0.1164429E+00
         21   -1    0    0  501  502  0.00000000000E+00  0.00000000000E+00  0.39296565896E+03  0.39296565896E+03  0.00000000000E+00 0.  1.
         21   -1    0    0  502  503 -0.00000000000E+00 -0.00000000000E+00 -0.19057572619E+03  0.19057572619E+03  0.00000000000E+00 0.  1.
         -6    2    1    2    0  503 -0.60656585962E+02 -0.15321100221E+02  0.31777975892E+03  0.36702471162E+03  0.17265342809E+03 0.  0.
        -24    2    3    3    0    0 -0.65322408538E+02  0.43314089808E+02  0.13623633963E+03  0.17613218035E+03  0.79492624089E+02 0.  0.
          6    2    1    2  501    0  0.60656585962E+02  0.15321100221E+02 -0.11538982615E+03  0.21651667352E+03  0.17219378735E+03 0.  0.
         24    2    5    5    0    0  0.25048997279E+02  0.57703137802E+02 -0.16318236905E+02  0.10293231158E+03  0.79822750737E+02 0.  0.
          5    1    5    5  501    0  0.35607588683E+02 -0.42382037581E+02 -0.99071589244E+02  0.11358436194E+03  0.47000000000E+01 0. -1.
        -13    1    6    6    0    0 -0.10705679024E+02  0.33278846086E+02 -0.40368123307E+02  0.53401109909E+02  0.00000000000E+00 0.  1.
         14    1    6    6    0    0  0.35754676303E+02  0.24424291716E+02  0.24049886402E+02  0.49531201674E+02  0.00000000000E+00 0. -1.
         -5    1    3    3    0  503  0.46658225760E+01 -0.58635190029E+02  0.18154341929E+03  0.19089253127E+03  0.47000000000E+01 0.  1.
         13    1    4    4    0    0  0.10812663735E+02  0.31747084587E+02  0.30555954739E+02  0.45370226435E+02  0.00000000000E+00 0. -1.
        -14    1    4    4    0    0 -0.76135072272E+02  0.11567005222E+02  0.10568038490E+03  0.13076195391E+03  0.00000000000E+00 0.  1.
</event>
<event>
12    1  0.1032880E+000  0.4028551E+03  0.7818608E-02  0.1042826E+00
         21   -1    0    0  501  502  0.00000000000E+00  0.00000000000E+00  0.36283180248E+03  0.36283180248E+03  0.00000000000E+00 0.  1.
         21   -1    0    0  502  503 -0.00000000000E+00 -0.00000000000E+00 -0.93728422241E+03  0.93728422241E+03  0.00000000000E+00 0.  1.
         -6    2    1    2    0  503 -0.16080239772E+03 -0.32675995450E+03 -0.75736919739E+03  0.85767866616E+03  0.17139169831E+03 0.  0.
        -24    2    3    3    0    0 -0.17193875321E+03 -0.22193635223E+03 -0.61077035295E+03  0.67705386942E+03  0.80887815867E+02 0.  0.
          6    2    1    2  501    0  0.16080239772E+03  0.32675995450E+03  0.18291677746E+03  0.44243735873E+03  0.17222888825E+03 0.  0.
         24    2    5    5    0    0  0.29662004313E+02  0.93168777911E+02  0.18497310547E+02  0.12808327229E+03  0.80640675004E+02 0.  0.
          5    1    5    5  501    0  0.13114039341E+03  0.23359117659E+03  0.16441946691E+03  0.31435408645E+03  0.47000000000E+01 0. -1.
        -13    1    6    6    0    0 -0.27845379839E+02  0.27046565532E+02  0.16942272405E+01  0.38855531027E+02  0.00000000000E+00 0.  1.
         14    1    6    6    0    0  0.57507384151E+02  0.66122212378E+02  0.16803083307E+02  0.89227741260E+02  0.00000000000E+00 0. -1.
         -5    1    3    3    0  503  0.11136355485E+02 -0.10482360227E+03 -0.14659884444E+03  0.18062479674E+03  0.47000000000E+01 0.  1.
         11    1    4    4    0    0 -0.10621515545E+03 -0.71799742635E+02 -0.27537391679E+03  0.30375591572E+03  0.00000000000E+00 0. -1.
        -12    1    4    4    0    0 -0.65723597760E+02 -0.15013660960E+03 -0.33539643616E+03  0.37329795370E+03  0.00000000000E+00 0.  1.
</event>
<event>
12    1  0.1032880E+000  0.2712458E+03  0.7818608E-02  0.1100641E+00
         21   -1    0    0  501  502  0.00000000000E+00  0.00000000000E+00  0.11180494779E+03  0.11180494779E+03  0.00000000000E+00 0. -1.
         21   -1    0    0  502  503 -0.00000000000E+00 -0.00000000000E+00 -0.66366225009E+03  0.66366225009E+03  0.00000000000E+00 0.  1.
         -6    2    1    2    0  503  0.55730073359E+02  0.20087259963E+03 -0.23632430341E+03  0.35937182185E+03  0.17275209869E+03 0.  0.
        -24    2    3    3    0    0  0.65414872393E+02  0.63120529778E+02 -0.16359182718E+03  0.20322595678E+03  0.79216139639E+02 0.  0.
          6    2    1    2  501    0 -0.55730073359E+02 -0.20087259963E+03 -0.31553299889E+03  0.41609537603E+03  0.17354724489E+03 0.  0.
         24    2    5    5    0    0 -0.80496331338E+02 -0.11004829350E+03 -0.11680315761E+03  0.19614524092E+03  0.78991718860E+02 0.  0.
          5    1    5    5  501    0  0.24766257979E+02 -0.90824306128E+02 -0.19872984129E+03  0.21995013511E+03  0.47000000000E+01 0. -1.
        -13    1    6    6    0    0 -0.32710876394E+02 -0.27787860643E+02 -0.86058844392E+02  0.96168036954E+02  0.00000000000E+00 0.  1.
         14    1    6    6    0    0 -0.47785454944E+02 -0.82260432858E+02 -0.30744313213E+02  0.99977203967E+02  0.00000000000E+00 0. -1.
         -5    1    3    3    0  503 -0.96847990344E+01  0.13775206985E+03 -0.72732476229E+02  0.15614586507E+03  0.47000000000E+01 0.  1.
         13    1    4    4    0    0  0.50922157826E+02  0.79515682613E+02 -0.10785529508E+03  0.14334774018E+03  0.00000000000E+00 0. -1.
        -14    1    4    4    0    0  0.14492714567E+02 -0.16395152836E+02 -0.55736532105E+02  0.59878216600E+02  0.00000000000E+00 0.  1.
</event>
<event>
12    1  0.1032880E+000  0.1877016E+03  0.7818608E-02  0.1160562E+00
         21   -1    0    0  501  502  0.00000000000E+00  0.00000000000E+00  0.14086156507E+03  0.14086156507E+03  0.00000000000E+00 0.  1.
         21   -1    0    0  502  503 -0.00000000000E+00 -0.00000000000E+00 -0.26141672594E+03  0.26141672594E+03  0.00000000000E+00 0.  1.
         -6    2    1    2    0  503  0.74914788064E+02 -0.14158380463E+02 -0.10221839289E+03  0.21372990762E+03  0.17152022726E+03 0.  0.
        -24    2    3    3    0    0  0.28625942008E+02 -0.26766810822E+02 -0.13030713945E+03  0.15793835389E+03  0.80178964316E+02 0.  0.
          6    2    1    2  501    0 -0.74914788064E+02  0.14158380463E+02 -0.18336767981E+02  0.18854838339E+03  0.17146886193E+03 0.  0.
         24    2    5    5    0    0 -0.50695460598E+02 -0.54118471517E+02 -0.34799284595E+02  0.11410774400E+03  0.79440218710E+02 0.  0.
          5    1    5    5  501    0 -0.24219327466E+02  0.68276851980E+02  0.16462516613E+02  0.74440639387E+02  0.47000000000E+01 0. -1.
        -11    1    6    6    0    0  0.89321851134E+01 -0.24962860089E+02 -0.39494047874E+02  0.47567931763E+02  0.00000000000E+00 0.  1.
         12    1    6    6    0    0 -0.59627645711E+02 -0.29155611427E+02  0.46947632790E+01  0.66539812240E+02  0.00000000000E+00 0. -1.
         -5    1    3    3    0  503  0.46288846056E+02  0.12608430359E+02  0.28088746559E+02  0.55791553739E+02  0.47000000000E+01 0.  1.
         11    1    4    4    0    0 -0.65432169639E+01  0.76772031378E+01 -0.99189686474E+02  0.99701289054E+02  0.00000000000E+00 0. -1.
        -12    1    4    4    0    0  0.35169158972E+02 -0.34444013959E+02 -0.31117452978E+02  0.58237064832E+02  0.00000000000E+00 0.  1.
</event>
<event>
12    1  0.1032880E+000  0.2339930E+03  0.7818608E-02  0.1125161E+00
         21   -1    0    0  503  502  0.00000000000E+00  0.00000000000E+00  0.64784119759E+03  0.64784119759E+03  0.00000000000E+00 0. -1.
         21   -1    0    0  501  503 -0.00000000000E+00 -0.00000000000E+00 -0.84261522815E+02  0.84261522815E+02  0.00000000000E+00 0. -1.
          6    2    1    2  501    0  0.15607934096E+03 -0.29037041257E+02  0.21550698497E+03  0.31268965481E+03  0.16164049374E+03 0.  0.
         24    2    3    3    0    0  0.83954783024E+02  0.22998439230E+02  0.55522528823E+02  0.12958651640E+03  0.78310792533E+02 0.  0.
         -6    2    1    2    0  502 -0.15607934096E+03  0.29037041257E+02  0.34807268980E+03  0.41941306559E+03  0.17189767818E+03 0.  0.
        -24    2    5    5    0    0 -0.11787324168E+03 -0.98201507567E+01  0.33947902319E+03  0.36404585057E+03  0.57383252493E+02 0.  0.
          5    1    3    3  501    0  0.72124557931E+02 -0.52035480487E+02  0.15998445615E+03  0.18310313841E+03  0.47000000000E+01 0. -1.
        -13    1    4    4    0    0  0.99222712229E+02  0.19164522307E+02  0.44812649856E+02  0.11054681870E+03  0.00000000000E+00 0.  1.
         14    1    4    4    0    0 -0.15267929205E+02  0.38339169231E+01  0.10709878967E+02  0.19039697704E+02  0.00000000000E+00 0. -1.
         -5    1    5    5    0  502 -0.38206099280E+02  0.38857192014E+02  0.85936666122E+01  0.55367215022E+02  0.47000000000E+01 0.  1.
         13    1    6    6    0    0 -0.98402913873E+01 -0.18356929514E+02  0.83780693645E+02  0.86330833561E+02  0.00000000000E+00 0. -1.
        -14    1    6    6    0    0 -0.10803295029E+03  0.85367787577E+01  0.25569832955E+03  0.27771501701E+03  0.00000000000E+00 0.  1.
</event>
<event>
12    1  0.1032880E+000  0.2507361E+03  0.7818608E-02  0.1112926E+00
         21   -1    0    0  503  502  0.00000000000E+00  0.00000000000E+00  0.13163311642E+04  0.13163311642E+04  0.00000000000E+00 0. -1.
         21   -1    0    0  501  503 -0.00000000000E+00 -0.00000000000E+00 -0.48625240337E+02  0.48625240337E+02  0.00000000000E+00 0. -1.
          6    2    1    2  501    0 -0.55547109343E+01 -0.18160898665E+03  0.53688720601E+03  0.59232155483E+03  0.17200079503E+03 0.  0.
         24    2    3    3    0    0  0.50862518767E+02 -0.16661497890E+03  0.40926464569E+03  0.45190313731E+03  0.79820725936E+02 0.  0.
         -6    2    1    2    0  502  0.55547109343E+01  0.18160898665E+03  0.73081871786E+03  0.77263484972E+03  0.17278869689E+03 0.  0.
        -24    2    5    5    0    0  0.39201653726E+02  0.19464633215E+03  0.61944131451E+03  0.65546358569E+03  0.80628814756E+02 0.  0.
          5    1    3    3  501    0 -0.56417229702E+02 -0.14994007749E+02  0.12762256032E+03  0.14041841752E+03  0.47000000000E+01 0. -1.
        -13    1    4    4    0    0  0.32203199651E+02 -0.12283509204E+03  0.19709005996E+03  0.23445681402E+03  0.00000000000E+00 0.  1.
         14    1    4    4    0    0  0.18659319116E+02 -0.43779886861E+02  0.21217458573E+03  0.21744632329E+03  0.00000000000E+00 0. -1.
         -5    1    5    5    0  502 -0.33646942792E+02 -0.13037345494E+02  0.11137740335E+03  0.11717126403E+03  0.47000000000E+01 0.  1.
         13    1    6    6    0    0  0.32126510508E+01  0.12721599152E+03  0.47848038930E+03  0.49511383799E+03  0.00000000000E+00 0. -1.
        -14    1    6    6    0    0  0.35989002675E+02  0.67430340628E+02  0.14096092521E+03  0.16034974770E+03  0.00000000000E+00 0.  1.
</event>
<event>
12    1  0.1032880E+000  0.1777611E+03  0.7818608E-02  0.1170586E+00
         21   -1    0    0  503  502  0.00000000000E+00  0.00000000000E+00  0.25470148467E+02  0.25470148467E+02  0.00000000000E+00 0. -1.
         21   -1    0    0  501  503 -0.00000000000E+00 -0.00000000000E+00 -0.12429794980E+04  0.12429794980E+04  0.00000000000E+00 0. -1.
          6    2    1    2  501    0 -0.15451365879E+02  0.36005550890E+02 -0.52593743319E+03  0.55439733034E+03  0.17091246839E+03 0.  0.
         24    2    3    3    0    0  0.20331288976E+02  0.72948360369E+02 -0.23681867754E+03  0.26070205555E+03  0.78406958537E+02 0.  0.
         -6    2    1    2    0  502  0.15451365879E+02 -0.36005550890E+02 -0.69157191639E+03  0.71405231618E+03  0.17338930271E+03 0.  0.
        -24    2    5    5    0    0  0.13501519053E+02 -0.37085132390E+02 -0.69923124412E+03  0.70479366076E+03  0.79070686306E+02 0.  0.
          5    1    3    3  501    0 -0.35782654855E+02 -0.36942809479E+02 -0.28911875565E+03  0.29369527479E+03  0.47000000000E+01 0. -1.
        -11    1    4    4    0    0  0.25391656482E+00  0.21593999986E+01  0.63146261032E+01  0.66784717413E+01  0.00000000000E+00 0.  1.
         12    1    4    4    0    0  0.20077372411E+02  0.70788960370E+02 -0.24313330364E+03  0.25402358381E+03  0.00000000000E+00 0. -1.
         -5    1    5    5    0  502  0.19498468262E+01  0.10795814997E+01  0.76593277298E+01  0.92586554171E+01  0.47000000000E+01 0.  1.
         11    1    6    6    0    0 -0.13868593975E+00 -0.86578737712E+01 -0.53121376035E+01  0.10158583462E+02  0.00000000000E+00 0. -1.
        -12    1    6    6    0    0  0.13640204993E+02 -0.28427258619E+02 -0.69391910651E+03  0.69463507730E+03  0.00000000000E+00 0.  1.
</event>
<event>
12    1  0.1032880E+000  0.1967452E+03  0.7818608E-02  0.1152559E+00
         21   -1    0    0  503  502  0.00000000000E+00  0.00000000000E+00  0.27528732690E+03  0.27528732690E+03  0.00000000000E+00 0. -1.
         21   -1    0    0  501  503 -0.00000000000E+00 -0.00000000000E+00 -0.14046421850E+03  0.14046421850E+03  0.00000000000E+00 0. -1.
          6    2    1    2  501    0  0.94387893703E+02 -0.71928094346E+01  0.67005218092E+02  0.20784217491E+03  0.17247567780E+03 0.  0.
         24    2    3    3    0    0  0.88557289776E+02 -0.68707552838E+02  0.31919874267E+02  0.13663030125E+03  0.71315071739E+02 0.  0.
         -6    2    1    2    0  502 -0.94387893703E+02  0.71928094346E+01  0.67817890302E+02  0.20790937049E+03  0.17223887223E+03 0.  0.
        -24    2    5    5    0    0  0.43705756186E+01 -0.29033624374E+02  0.36576849282E+01  0.84604010825E+02  0.79261634559E+02 0.  0.
          5    1    3    3  501    0  0.58306039270E+01  0.61514743404E+02  0.35085343825E+02  0.71211873655E+02  0.47000000000E+01 0. -1.
        -13    1    4    4    0    0  0.58090591563E+02 -0.65622649659E+01 -0.41056323754E+01  0.58604064422E+02  0.00000000000E+00 0.  1.
         14    1    4    4    0    0  0.30466698213E+02 -0.62145287872E+02  0.36025506643E+02  0.78026236828E+02  0.00000000000E+00 0. -1.
         -5    1    5    5    0  502 -0.98758469322E+02  0.36226433809E+02  0.64160205374E+02  0.12330535967E+03  0.47000000000E+01 0.  1.
         13    1    6    6    0    0 -0.25485784922E+02 -0.37242009234E+02  0.20263385420E+02  0.49468144028E+02  0.00000000000E+00 0. -1.
        -14    1    6    6    0    0  0.29856360541E+02  0.82083848595E+01 -0.16605700492E+02  0.35135866797E+02  0.00000000000E+00 0.  1.
</event>
<event>
12    1  0.1032880E+000  0.1939477E+03  0.7818608E-02  0.1154951E+00
         21   -1    0    0  501  502  0.00000000000E+00  0.00000000000E+00  0.28538853215E+03  0.28538853215E+03  0.00000000000E+00 0. -1.
         21   -1    0    0  502  503 -0.00000000000E+00 -0.00000000000E+00 -0.16801068781E+03  0.16801068781E+03  0.00000000000E+00 0. -1.
         -6    2    1    2    0  503 -0.53190471319E+02 -0.71364778357E+02 -0.46560779546E+02  0.19944732637E+03  0.17230546125E+03 0.  0.
        -24    2    3    3    0    0 -0.98794668391E+02 -0.42074872338E+02 -0.53708511739E+02  0.14457637357E+03  0.80542176389E+02 0.  0.
          6    2    1    2  501    0  0.53190471319E+02  0.71364778357E+02  0.16393862389E+03  0.25395189359E+03  0.17231811869E+03 0.  0.
         24    2    5    5    0    0 -0.11276553472E+02  0.94024424950E+02  0.90374954075E+02  0.15343741510E+03  0.80047828730E+02 0.  0.
          5    1    5    5  501    0  0.64467024791E+02 -0.22659646593E+02  0.73563669817E+02  0.10051447849E+03  0.47000000000E+01 0. -1.
        -13    1    6    6    0    0  0.12663009037E+02  0.11821146861E+02  0.60223097612E+02  0.62665084353E+02  0.00000000000E+00 0.  1.
         14    1    6    6    0    0 -0.23939562509E+02  0.82203278090E+02  0.30151856462E+02  0.90772330751E+02  0.00000000000E+00 0. -1.
         -5    1    3    3    0  503  0.45604197073E+02 -0.29289906019E+02  0.71477321937E+01  0.54870952796E+02  0.47000000000E+01 0.  1.
         13    1    4    4    0    0 -0.20411545424E+01 -0.11602801469E+02 -0.40623532251E+02  0.42297312992E+02  0.00000000000E+00 0. -1.
        -14    1    4    4    0    0 -0.96753513849E+02 -0.30472070868E+02 -0.13084979489E+02  0.10227906058E+03  0.00000000000E+00 0.  1.
</event>
<event>
12    1  0.1032880E+000  0.1900580E+03  0.7818608E-02  0.1158739E+00
         21   -1    0    0  503  502  0.00000000000E+00  0.00000000000E+00  0.11541046975E+03  0.11541046975E+03  0.00000000000E+00 0.  1.
         21   -1    0    0  501  503 -0.00000000000E+00 -0.00000000000E+00 -0.32436388304E+03  0.32436388304E+03  0.00000000000E+00 0.  1.
          6    2    1    2  501    0  0.16858742898E+02 -0.78087355815E+02 -0.59548021072E+02  0.19916826732E+03  0.17245341268E+03 0.  0.
         24    2    3    3    0    0 -0.24864008504E+02 -0.24633342275E+02  0.24263289459E+02  0.91258372871E+02  0.80711603461E+02 0.  0.
         -6    2    1    2    0  502 -0.16858742898E+02  0.78087355815E+02 -0.14940539221E+03  0.24060608547E+03  0.17084339259E+03 0.  0.
        -24    2    5    5    0    0  0.43127618808E+02  0.44528788997E+02 -0.13742752119E+03  0.17067683271E+03  0.80009081293E+02 0.  0.
          5    1    3    3  501    0  0.41722751402E+02 -0.53454013540E+02 -0.83811310531E+02  0.10790989445E+03  0.47000000000E+01 0. -1.
        -13    1    4    4    0    0 -0.35886889095E+00 -0.21264267047E+02 -0.26981801995E+02  0.34355719739E+02  0.00000000000E+00 0.  1.
         14    1    4    4    0    0 -0.24505139613E+02 -0.33690752281E+01  0.51245091454E+02  0.56902653132E+02  0.00000000000E+00 0. -1.
         -5    1    5    5    0  502 -0.59986361706E+02  0.33558566819E+02 -0.11977871025E+02  0.69929252762E+02  0.47000000000E+01 0.  1.
         11    1    6    6    0    0  0.47970340310E+01  0.64656990753E+01 -0.10963036412E+03  0.10992558182E+03  0.00000000000E+00 0. -1.
        -12    1    6    6    0    0  0.38330584777E+02  0.38063089921E+02 -0.27797157063E+02  0.60751250888E+02  0.00000000000E+00 0.  1.
</event>
<event>
12    1  0.1032880E+000  0.1983309E+03  0.7818608E-02  0.1151268E+00
         21   -1    0    0  501  502  0.00000000000E+00  0.00000000000E+00  0.27672488219E+03  0.27672488219E+03  0.00000000000E+00 0.  1.
         21   -1    0    0  502  503 -0.00000000000E+00 -0.00000000000E+00 -0.14181368446E+03  0.14181368446E+03  0.00000000000E+00 0.  1.
         -6    2    1    2    0  503 -0.31275371555E+02 -0.95121046541E+02  0.63677541879E+02  0.20830260424E+03  0.17119866597E+03 0.  0.
        -24    2    3    3    0    0  0.28485108713E+02 -0.10785088874E+03  0.28853657046E+02  0.13781745091E+03  0.75616801241E+02 0.  0.
          6    2    1    2  501    0  0.31275371555E+02  0.95121046541E+02  0.71233655852E+02  0.21023596242E+03  0.17058359771E+03 0.  0.
         24    2    5    5    0    0 -0.24664064759E+02  0.58690418299E+01  0.61984358290E+02  0.10439277470E+03  0.80081389820E+02 0.  0.
          5    1    5    5  501    0  0.55939436315E+02  0.89252004711E+02  0.92492975619E+01  0.10584318771E+03  0.47000000000E+01 0. -1.
        -13    1    6    6    0    0  0.26415462988E+01 -0.32370635675E+02  0.42587473981E+02  0.53558647863E+02  0.00000000000E+00 0.  1.
         14    1    6    6    0    0 -0.27305611058E+02  0.38239677504E+02  0.19396884309E+02  0.50834126842E+02  0.00000000000E+00 0. -1.
         -5    1    3    3    0  503 -0.59760480268E+02  0.12729842203E+02  0.34823884833E+02  0.70485153325E+02  0.47000000000E+01 0.  1.
         11    1    4    4    0    0 -0.18324592182E+02 -0.67288587516E+02  0.29878062257E+02  0.75869910326E+02  0.00000000000E+00 0. -1.
        -12    1    4    4    0    0  0.46809700895E+02 -0.40562301228E+02 -0.10244052107E+01  0.61947540587E+02  0.00000000000E+00 0.  1.
</event>
<event>
12    1  0.1032880E+000  0.2658908E+03  0.7818608E-02  0.1103723E+00
         21   -1    0    0  503  502  0.00000000000E+00  0.00000000000E+00  0.24458251189E+03  0.24458251189E+03  0.00000000000E+00 0. -1.
         21   -1    0    0  501  503 -0.00000000000E+00 -0.00000000000E+00 -0.32321257255E+03  0.32321257255E+03  0.00000000000E+00 0. -1.
          6    2    1    2  501    0  0.14413854072E+03  0.14244096191E+03  0.53691588838E+02  0.27079855822E+03  0.17141681910E+03 0.  0.
         24    2    3    3    0    0  0.17336280942E+03  0.11767028642E+03  0.31863474674E+02  0.22645669523E+03  0.79789684800E+02 0.  0.
         -6    2    1    2    0  502 -0.14413854072E+03 -0.14244096191E+03 -0.13232164949E+03  0.29699652622E+03  0.17214113719E+03 0.  0.
        -24    2    5    5    0    0 -0.82879344638E+02 -0.77544698529E+02 -0.73686934777E+00  0.13793409046E+03  0.78377957979E+02 0.  0.
          5    1    3    3  501    0 -0.29224268699E+02  0.24770675485E+02  0.21828114165E+02  0.44341862984E+02  0.47000000000E+01 0. -1.
        -13    1    4    4    0    0  0.15907117113E+02  0.83413857366E+01  0.29753863333E+02  0.34754963302E+02  0.00000000000E+00 0.  1.
         14    1    4    4    0    0  0.15745569231E+03  0.10932890069E+03  0.21096113403E+01  0.19170173193E+03  0.00000000000E+00 0. -1.
         -5    1    5    5    0  502 -0.61259196081E+02 -0.64896263380E+02 -0.13158478015E+03  0.15906243576E+03  0.47000000000E+01 0.  1.
         13    1    6    6    0    0 -0.14640665902E+02 -0.39854625748E+02  0.32218508065E+02  0.53298898239E+02  0.00000000000E+00 0. -1.
        -14    1    6    6    0    0 -0.68238678736E+02 -0.37690072781E+02 -0.32955377413E+02  0.84635192221E+02  0.00000000000E+00 0.  1.
</event>
<event>
12    1  0.1032880E+000  0.2121003E+03  0.7818608E-02  0.1139932E+00
         21   -1    0    0  501  502  0.00000000000E+00  0.00000000000E+00  0.31264193420E+03  0.31264193420E+03  0.00000000000E+00 0. -1.
         21   -1    0    0  502  503 -0.00000000000E+00 -0.00000000000E+00 -0.18078686768E+03  0.18078686768E+03  0.00000000000E+00 0. -1.
         -6    2    1    2    0  503  0.74290352677E+02  0.97949084003E+02  0.17749288632E+03  0.27656876727E+03  0.17283945955E+03 0.  0.
        -24    2    3    3    0    0  0.38874042689E+02  0.23262842846E+02  0.14089892629E+02  0.93388588268E+02  0.80439743237E+02 0.  0.
          6    2    1    2  501    0 -0.74290352677E+02 -0.97949084003E+02 -0.45637819803E+02  0.21686003460E+03  0.17272053860E+03 0.  0.
         24    2    5    5    0    0 -0.10546823877E+03 -0.56837524598E+02  0.31292877609E+00  0.14760844839E+03  0.86221241702E+02 0.  0.
          5    1    5    5  501    0  0.31177886091E+02 -0.41111559405E+02 -0.45950748579E+02  0.69251586211E+02  0.47000000000E+01 0. -1.
        -13    1    6    6    0    0 -0.10679804862E+03 -0.38381754767E+02 -0.25045887094E+02  0.11621651668E+03  0.00000000000E+00 0.  1.
         14    1    6    6    0    0  0.13298098540E+01 -0.18455769831E+02  0.25358815870E+02  0.31391931713E+02  0.00000000000E+00 0. -1.
         -5    1    3    3    0  503  0.35416309987E+02  0.74686241157E+02  0.16340299369E+03  0.18318017900E+03  0.47000000000E+01 0.  1.
         13    1    4    4    0    0  0.17096512401E+02 -0.14150277301E+02  0.37947039914E+02  0.43960197022E+02  0.00000000000E+00 0. -1.
        -14    1    4    4    0    0  0.21777530288E+02  0.37413120147E+02 -0.23857147285E+02  0.49428391246E+02  0.00000000000E+00 0.  1.
</event>
<event>
12    1  0.1032880E+000  0.1881831E+03  0.7818608E-02  0.1160503E+00
         21   -1    0    0  501  502  0.00000000000E+00  0.00000000000E+00  0.22627295731E+03  0.22627295731E+03  0.00000000000E+00 0. -1.
         21   -1    0    0  502  503 -0.00000000000E+00 -0.00000000000E+00 -0.31874953657E+03  0.31874953657E+03  0.00000000000E+00 0. -1.
         -6    2    1    2    0  503  0.46200468623E+02 -0.58122709932E+02 -0.24140538467E+03  0.30503775214E+03  0.17105185696E+03 0.  0.
        -24    2    3    3    0    0  0.74639574421E+02 -0.11775159368E+02 -0.85571851351E+02  0.13992246427E+03  0.80907563395E+02 0.  0.
          6    2    1    2  501    0 -0.46200468623E+02  0.58122709932E+02  0.14892880541E+03  0.23998474174E+03  0.17291661133E+03 0.  0.
         24    2    5    5    0    0 -0.42403715764E+02  0.40868798486E+02  0.17829804909E+03  0.20539059098E+03  0.83227199582E+02 0.  0.
          5    1    5    5  501    0 -0.37967528594E+01  0.17253911445E+02 -0.29369243684E+02  0.34594150763E+02  0.47000000000E+01 0. -1.
        -13    1    6    6    0    0 -0.50351552703E+02 -0.84865031484E+01  0.76436176345E+02  0.91922731952E+02  0.00000000000E+00 0.  1.
         14    1    6    6    0    0  0.79478369392E+01  0.49355301635E+02  0.10186187275E+03  0.11346785902E+03  0.00000000000E+00 0. -1.
         -5    1    3    3    0  503 -0.28439105797E+02 -0.46347550564E+02 -0.15583353332E+03  0.16511528787E+03  0.47000000000E+01 0.  1.
         11    1    4    4    0    0 -0.92059641726E+01  0.11263959811E+02  0.39992939238E+01  0.15087111018E+02  0.00000000000E+00 0. -1.
        -12    1    4    4    0    0  0.83845538593E+02 -0.23039119179E+02 -0.89571145275E+02  0.12483535325E+03  0.00000000000E+00 0.  1.
</event>
<event>
12    1  0.1032880E+000  0.2710555E+03  0.7818608E-02  0.1100685E+00
         21   -1    0    0  501  502  0.00000000000E+00  0.00000000000E+00  0.37462573038E+03  0.37462573038E+03  0.00000000000E+00 0.  1.
         21   -1    0    0  502  503 -0.00000000000E+00 -0.00000000000E+00 -0.19613589238E+03  0.19613589238E+03  0.00000000000E+00 0.  1.
         -6    2    1    2    0  503 -0.10450125158E+03  0.18202843368E+03  0.84413386442E+02  0.28384444981E+03  0.17142692212E+03 0.  0.
        -24    2    3    3    0    0 -0.77714088597E+01  0.15107247513E+03  0.50356422344E+02  0.17662084865E+03  0.75999127415E+02 0.  0.
          6    2    1    2  501    0  0.10450125158E+03 -0.18202843368E+03  0.94076451551E+02  0.28691717295E+03  0.17151158314E+03 0.  0.
         24    2    5    5    0    0  0.23866746587E+02 -0.51823188837E+02  0.91110371243E+02  0.13366503818E+03  0.79435371158E+02 0.  0.
          5    1    5    5  501    0  0.80634504988E+02 -0.13020524484E+03  0.29660803087E+01  0.15325213477E+03  0.47000000000E+01 0. -1.
        -13    1    6    6    0    0  0.17401727590E+02 -0.82870402801E+01 -0.11197912945E+02  0.22290994012E+02  0.00000000000E+00 0.  1.
         14    1    6    6    0    0  0.64650189975E+01 -0.43536148557E+02  0.10230828419E+03  0.11137404417E+03  0.00000000000E+00 0. -1.
         -5    1    3    3    0  503 -0.96729842716E+02  0.30955958544E+02  0.34056964098E+02  0.10722360116E+03  0.47000000000E+01 0.  1.
         11    1    4    4    0    0  0.20124229067E+01  0.99486568134E+02  0.68794131998E+02  0.12097214424E+03  0.00000000000E+00 0. -1.
        -12    1    4    4    0    0 -0.97838317664E+01  0.51585907000E+02 -0.18437709654E+02  0.55648704408E+02  0.00000000000E+00 0.  1.
</event>
<event>
12    1  0.1032880E+000  0.2024486E+03  0.7818608E-02  0.1147716E+00
         21   -1    0    0  501  502  0.00000000000E+00  0.00000000000E+00  0.62452779868E+03  0.62452779868E+03  0.00000000000E+00 0.  1.
         21   -1    0    0  502  503 -0.00000000000E+00 -0.00000000000E+00 -0.14066993874E+03  0.14066993874E+03  0.00000000000E+00 0.  1.
         -6    2    1    2    0  503  0.55298979918E+02  0.91505713426E+02  0.52141821054E+03  0.55929432954E+03  0.17176124124E+03 0.  0.
        -24    2    3    3    0    0  0.10302330827E+03  0.79184490963E+02  0.40163594083E+03  0.42968219207E+03  0.80195832566E+02 0.  0.
          6    2    1    2  501    0 -0.55298979918E+02 -0.91505713426E+02 -0.37560350602E+02  0.20590340788E+03  0.17191323587E+03 0.  0.
         24    2    5    5    0    0 -0.48461628451E+02 -0.35234679672E+01 -0.66906054043E+02  0.11278581984E+03  0.76702521676E+02 0.  0.
          5    1    5    5  501    0 -0.68373514668E+01 -0.87982245459E+02  0.29345703441E+02  0.93117588035E+02  0.47000000000E+01 0. -1.
        -13    1    6    6    0    0  0.14444413230E+02  0.12334424153E+02  0.80669345579E+00  0.19011308400E+02  0.00000000000E+00 0.  1.
         14    1    6    6    0    0 -0.62906041681E+02 -0.15857892120E+02 -0.67712747499E+02  0.93774511443E+02  0.00000000000E+00 0. -1.
         -5    1    3    3    0  503 -0.47724328354E+02  0.12321222463E+02  0.11978226972E+03  0.12961213747E+03  0.47000000000E+01 0.  1.
         13    1    4    4    0    0  0.67458817797E+02  0.34567740008E+02  0.32735983355E+03  0.33602095376E+03  0.00000000000E+00 0. -1.
        -14    1    4    4    0    0  0.35564490475E+02  0.44616750954E+02  0.74276107283E+02  0.93661238309E+02  0.00000000000E+00 0.  1.
</event>
<event>
12    1  0.1032880E+000  0.1985456E+03  0.7818608E-02  0.1151091E+00
         21   -1    0    0  501  502  0.00000000000E+00  0.00000000000E+00  0.17804632919E+03  0.17804632919E+03  0.00000000000E+00 0. -1.
         21   -1    0    0  502  503 -0.00000000000E+00 -0.00000000000E+00 -0.23221603324E+03  0.23221603324E+03  0.00000000000E+00 0. -1.
         -6    2    1    2    0  503  0.50578486781E+02 -0.85979284958E+02 -0.72567752525E+02  0.21086620112E+03  0.17102004357E+03 0.  0.
        -24    2    3    3    0    0  0.61131700556E+01 -0.95320780909E+02 -0.54621423444E+00  0.12558068116E+03  0.81527829658E+02 0.  0.
          6    2    1    2  501    0 -0.50578486781E+02  0.85979284958E+02  0.18398048471E+02  0.19939616131E+03  0.17166746981E+03 0.  0.
         24    2    5    5    0    0 -0.86022724455E+02  0.23233866614E+02 -0.14400027087E+02  0.12007979939E+03  0.79196437809E+02 0.  0.
          5    1    5    5  501    0  0.35444237674E+02  0.62745418344E+02  0.32798075558E+02  0.79316361917E+02  0.47000000000E+01 0. -1.
        -11    1    6    6    0    0 -0.82603524009E+02 -0.73419361549E+01  0.60298596328E+01  0.83148093258E+02  0.00000000000E+00 0.  1.
         12    1    6    6    0    0 -0.34192004457E+01  0.30575802769E+02 -0.20429886719E+02  0.36931706135E+02  0.00000000000E+00 0. -1.
         -5    1    3    3    0  503  0.44465316725E+02  0.93414959511E+01 -0.72021538290E+02  0.85285519965E+02  0.47000000000E+01 0.  1.
         13    1    4    4    0    0 -0.15455299441E+02 -0.19221041270E+02 -0.32049078508E+02  0.40440797983E+02  0.00000000000E+00 0. -1.
        -14    1    4    4    0    0  0.21568469496E+02 -0.76099739640E+02  0.31502864273E+02  0.85139883175E+02  0.00000000000E+00 0.  1.
</event>
<event>
12    1  0.1032880E+000  0.1972112E+03  0.7818608E-02  0.1152171E+00
         21   -1    0    0  501  502  0.00000000000E+00  0.00000000000E+00  0.11583297517E+02  0.11583297517E+02  0.00000000000E+00 0.  1.
         21   -1    0    0  502  503 -0.00000000000E+00 -0.00000000000E+00 -0.34193196540E+04  0.34193196540E+04  0.00000000000E+00 0.  1.
         -6    2    1    2    0  503 -0.94330759370E+01 -0.95878714943E+02 -0.14661552903E+04  0.14793591802E+04  0.17207712796E+03 0.  0.
        -24    2    3    3    0    0  0.10690454072E+02  0.15155294218E+02 -0.79449535921E+03  0.79826986107E+03  0.75285632972E+02 0.  0.
          6    2    1    2  501    0  0.94330759370E+01  0.95878714943E+02 -0.19415810662E+04  0.19515437713E+04  0.17176828511E+03 0.  0.
         24    2    5    5    0    0  0.12132963839E+02  0.10888363738E+02 -0.43936436071E+03  0.44691499003E+03  0.80163592537E+02 0.  0.
          5    1    5    5  501    0 -0.26998879019E+01  0.84990351205E+02 -0.15022167055E+04  0.15046287813E+04  0.47000000000E+01 0. -1.
        -13    1    6    6    0    0  0.30273933634E+02  0.36791334138E+02 -0.20724639240E+03  0.21265272273E+03  0.00000000000E+00 0.  1.
         14    1    6    6    0    0 -0.18140969795E+02 -0.25902970400E+02 -0.23211796832E+03  0.23426226729E+03  0.00000000000E+00 0. -1.
         -5    1    3    3    0  503 -0.20123530009E+02 -0.11103400916E+03 -0.67165993105E+03  0.68108931912E+03  0.47000000000E+01 0.  1.
         13    1    4    4    0    0  0.14550109931E+02  0.41646970130E+02 -0.32086596259E+03  0.32388445743E+03  0.00000000000E+00 0. -1.
        -14    1    4    4    0    0 -0.38596558587E+01 -0.26491675912E+02 -0.47362939662E+03  0.47438540363E+03  0.00000000000E+00 0.  1.
</event>
<event>
12    1  0.1032880E+000  0.1713513E+03  0.7818608E-02  0.1180486E+00
         21   -1    0    0  503  502  0.00000000000E+00  0.00000000000E+00  0.67781134942E+03  0.67781134942E+03  0.00000000000E+00 0. -1.
         21   -1    0    0  501  503 -0.00000000000E+00 -0.00000000000E+00 -0.40516322824E+02  0.40516322824E+02  0.00000000000E+00 0. -1.
          6    2    1    2  501    0  0.93700487622E+01  0.57164253621E+01  0.38589782267E+03  0.42223025134E+03  0.17099935751E+03 0.  0.
         24    2    3    3    0    0 -0.17849065968E+02 -0.53958176388E+02  0.28383262492E+03  0.30081636048E+03  0.81850166820E+02 0.  0.
         -6    2    1    2    0  502 -0.93700487622E+01 -0.57164253621E+01  0.25139720393E+03  0.29609742091E+03  0.15605336649E+03 0.  0.
        -24    2    5    5    0    0  0.45320200305E+01 -0.22089315526E+01  0.56580452361E+02  0.10069725018E+03  0.83145475047E+02 0.  0.
          5    1    3    3  501    0  0.27219114731E+02  0.59674601750E+02  0.10206519776E+03  0.12141389086E+03  0.47000000000E+01 0. -1.
        -11    1    4    4    0    0  0.12680917328E+02  0.54460740036E+01  0.59658758911E+01  0.15035194095E+02  0.00000000000E+00 0.  1.
         12    1    4    4    0    0 -0.30529983296E+02 -0.59404250392E+02  0.27786674902E+03  0.28578116638E+03  0.00000000000E+00 0. -1.
         -5    1    5    5    0  502 -0.13902068793E+02 -0.35074938095E+01  0.19481675156E+03  0.19540017073E+03  0.47000000000E+01 0.  1.
         13    1    6    6    0    0  0.19365213308E+02 -0.28103813462E+02 -0.27952218550E+01  0.34243964180E+02  0.00000000000E+00 0. -1.
        -14    1    6    6    0    0 -0.14833193278E+02  0.25894881909E+02  0.59375674216E+02  0.66453286003E+02  0.00000000000E+00 0.  1.
</event>
<event>
12    1  0.1032880E+000  0.2484784E+03  0.7818608E-02  0.1114460E+00
         21   -1    0    0  503  502  0.00000000000E+00  0.00000000000E+00  0.11273943102E+04  0.11273943102E+04  0.00000000000E+00 0.  1.
         21   -1    0    0  501  503 -0.00000000000E+00 -0.00000000000E+00 -0.62476334119E+02  0.62476334119E+02  0.00000000000E+00 0.  1.
          6    2    1    2  501    0 -0.94823177996E+02 -0.15099931697E+03  0.31880822894E+03  0.40347300253E+03  0.17134628133E+03 0.  0.
         24    2    3    3    0    0  0.16017587529E+02 -0.40993430549E+02  0.97023357558E+02  0.13218424581E+03  0.78243967634E+02 0.  0.
         -6    2    1    2    0  502  0.94823177996E+02  0.15099931697E+03  0.74610974713E+03  0.78639764177E+03  0.17305856641E+03 0.  0.
        -24    2    5    5    0    0 -0.72410550204E+01  0.10541143958E+03  0.47916612825E+03  0.49695620057E+03  0.78748221220E+02 0.  0.
          5    1    3    3  501    0 -0.11084076552E+03 -0.11000588642E+03  0.22178487138E+03  0.27128875672E+03  0.47000000000E+01 0. -1.
        -13    1    4    4    0    0  0.96790039990E+01  0.18895130367E+02  0.54422344449E+02  0.58416612751E+02  0.00000000000E+00 0.  1.
         14    1    4    4    0    0  0.63385835298E+01 -0.59888560916E+02  0.42601013109E+02  0.73767633062E+02  0.00000000000E+00 0. -1.
         -5    1    5    5    0  502  0.10206423302E+03  0.45587877395E+02  0.26694361887E+03  0.28944144120E+03  0.47000000000E+01 0.  1.
         11    1    6    6    0    0 -0.14820841678E+02 -0.38010071780E+01  0.21561914022E+02  0.26439007922E+02  0.00000000000E+00 0. -1.
        -12    1    6    6    0    0  0.75797866580E+01  0.10921244676E+03  0.45760421423E+03  0.47051719265E+03  0.00000000000E+00 0.  1.
</event>
<event>
12    1  0.1032880E+000  0.2426408E+03  0.7818608E-02  0.1118194E+00
         21   -1    0    0  503  502  0.00000000000E+00  0.00000000000E+00  0.29672409107E+03  0.29672409107E+03  0.00000000000E+00 0.  1.
         21   -1    0    0  501  503 -0.00000000000E+00 -0.00000000000E+00 -0.29833110820E+03  0.29833110820E+03  0.00000000000E+00 0.  1.
          6    2    1    2  501    0 -0.16524671520E+03 -0.49513355237E+02 -0.17361733533E+03  0.29762941185E+03  0.16935831375E+03 0.  0.
         24    2    3    3    0    0 -0.47209453412E+02 -0.58849981122E+02 -0.13080777168E+03  0.17163450523E+03  0.81582335613E+02 0.  0.
         -6    2    1    2    0  502  0.16524671520E+03  0.49513355237E+02  0.17201031821E+03  0.29742578742E+03  0.17063557724E+03 0.  0.
        -24    2    5    5    0    0  0.33154140591E+02  0.37575505211E+02  0.13127679587E+03  0.15860118451E+03  0.73550139128E+02 0.  0.
          5    1    3    3  501    0 -0.11803726179E+03  0.93366258847E+01 -0.42809563652E+02  0.12599490661E+03  0.47000000000E+01 0. -1.
        -11    1    4    4    0    0 -0.70570894186E+01 -0.66266254233E+02 -0.58884604245E+02  0.88929272898E+02  0.00000000000E+00 0.  1.
         12    1    4    4    0    0 -0.40152363993E+02  0.74162731109E+01 -0.71923167437E+02  0.82705232333E+02  0.00000000000E+00 0. -1.
         -5    1    5    5    0  502  0.13209257461E+03  0.11937850026E+02  0.40733522340E+02  0.13882460290E+03  0.47000000000E+01 0.  1.
         13    1    6    6    0    0 -0.68024659665E+01 -0.54819103835E+01 -0.50969868843E+01  0.10114551892E+02  0.00000000000E+00 0. -1.
        -14    1    6    6    0    0  0.39956606557E+02  0.43057415594E+02  0.13637378275E+03  0.14848663262E+03  0.00000000000E+00 0.  1.
</event>
<event>
12    1  0.1032880E+000  0.1885724E+03  0.7818608E-02  0.1159915E+00
         21   -1    0    0  501  502  0.00000000000E+00  0.00000000000E+00  0.65156639878E+02  0.65156639878E+02  0.00000000000E+00 0. -1.
         21   -1    0    0  502  503 -0.00000000000E+00 -0.00000000000E+00 -0.88670091795E+03  0.88670091795E+03  0.00000000000E+00 0. -1.
         -6    2    1    2    0  503  0.71986402494E+02  0.21917070734E+02 -0.70629649738E+03  0.73085622856E+03  0.17214437106E+03 0.  0.
        -24    2    3    3    0    0  0.70545525170E+02  0.26740649503E+02 -0.71301738767E+03  0.72123316222E+03  0.78049636156E+02 0.  0.
          6    2    1    2  501    0 -0.71986402494E+02 -0.21917070734E+02 -0.11524778069E+03  0.22100132926E+03  0.17290788428E+03 0.  0.
         24    2    5    5    0    0 -0.73091959199E+02  0.20911768747E+02 -0.13397560867E+03  0.17400820968E+03  0.80929949632E+02 0.  0.
          5    1    5    5  501    0  0.11055567057E+01 -0.42828839482E+02  0.18727827977E+02  0.46993119578E+02  0.47000000000E+01 0. -1.
        -13    1    6    6    0    0 -0.81386736288E+02 -0.47230342081E+01 -0.82943802963E+02  0.11630039701E+03  0.00000000000E+00 0.  1.
         14    1    6    6    0    0  0.82947770883E+01  0.25634802955E+02 -0.51031805705E+02  0.57707812669E+02  0.00000000000E+00 0. -1.
         -5    1    3    3    0  503  0.14408773235E+01 -0.48235787689E+01  0.67208902911E+01  0.96230663464E+01  0.47000000000E+01 0.  1.
         13    1    4    4    0    0  0.26122897849E+02  0.46472471954E+02 -0.49501774637E+03  0.49788017199E+03  0.00000000000E+00 0. -1.
        -14    1    4    4    0    0  0.44422627322E+02 -0.19731822451E+02 -0.21799964130E+03  0.22335299022E+03  0.00000000000E+00 0.  1.
</event>
<event>
12    1  0.1032880E+000  0.2234133E+03  0.7818608E-02  0.1131365E+00
         21   -1    0    0  501  502  0.00000000000E+00  0.00000000000E+00  0.13686749232E+04  0.13686749232E+04  0.00000000000E+00 0.  1.
         21   -1    0    0  502  503 -0.00000000000E+00 -0.00000000000E+00 -0.41515643288E+02  0.41515643288E+02  0.00000000000E+00 0.  1.
         -6    2    1    2    0  503  0.14070468252E+03 -0.29509433322E+02  0.90944702453E+03  0.93648492311E+03  0.17100148087E+03 0.  0.
        -24    2    3    3    0    0  0.10222578853E+03 -0.47775894919E+02  0.85953239952E+03  0.87069853628E+03  0.81162474674E+02 0.  0.
          6    2    1    2  501    0 -0.14070468252E+03  0.29509433322E+02  0.41771225543E+03  0.47370564342E+03  0.17101138540E+03 0.  0.
         24    2    5    5    0    0 -0.65065433578E+02  0.27110017881E+02  0.10379000010E+03  0.15075622700E+03  0.83585956611E+02 0.  0.
          5    1    5    5  501    0 -0.75639248939E+02  0.23994154407E+01  0.31392225533E+03  0.32294941642E+03  0.47000000000E+01 0. -1.
        -11    1    6    6    0    0  0.76834107910E+01 -0.72486863805E+01  0.56403070038E+02  0.57383661136E+02  0.00000000000E+00 0.  1.
         12    1    6    6    0    0 -0.72748844369E+02  0.34358704261E+02  0.47386930062E+02  0.93372565865E+02  0.00000000000E+00 0. -1.
         -5    1    3    3    0  503  0.38478893988E+02  0.18266461597E+02  0.49914625011E+02  0.65786386828E+02  0.47000000000E+01 0.  1.
         13    1    4    4    0    0  0.64911057910E+02 -0.66245986746E+02  0.68599528256E+03  0.69223659532E+03  0.00000000000E+00 0. -1.
        -14    1    4    4    0    0  0.37314730619E+02  0.18470091827E+02  0.17353711696E+03  0.17846194097E+03  0.00000000000E+00 0.  1.
</event>
<event>
12    1  0.1032880E+000  0.1768096E+03  0.7818608E-02  0.1171285E+00
         21   -1    0    0  503  502  0.00000000000E+00  0.00000000000E+00  0.73060503897E+02  0.73060503897E+02  0.00000000000E+00 0.  1.
         21   -1    0    0  501  503 -0.00000000000E+00 -0.00000000000E+00 -0.69509490594E+03  0.69509490594E+03  0.00000000000E+00 0.  1.
          6    2    1    2  501    0  0.10883166878E+01 -0.33098345599E+02 -0.72116738458E+02  0.19095142868E+03  0.17368056666E+03 0.  0.
         24    2    3    3    0    0 -0.50256523672E+01  0.50973880748E+02 -0.36125507483E+02  0.99174642030E+02  0.76856773487E+02 0.  0.
         -6    2    1    2    0  502 -0.10883166878E+01  0.33098345599E+02 -0.54991766358E+03  0.57720398115E+03  0.17221589424E+03 0.  0.
        -24    2    5    5    0    0  0.32805918396E+02 -0.12115615824E+02 -0.46248658661E+03  0.47299551365E+03  0.92778751386E+02 0.  0.
          5    1    3    3  501    0  0.61139690550E+01 -0.84072226347E+02 -0.35991230976E+02  0.91776786649E+02  0.47000000000E+01 0. -1.
        -13    1    4    4    0    0  0.14687104373E+02  0.33598681433E+02 -0.55505390584E+02  0.66523911586E+02  0.00000000000E+00 0.  1.
         14    1    4    4    0    0 -0.19712756740E+02  0.17375199315E+02  0.19379883101E+02  0.32650730444E+02  0.00000000000E+00 0. -1.
         -5    1    5    5    0  502 -0.33894235084E+02  0.45213961422E+02 -0.87431076965E+02  0.10420846750E+03  0.47000000000E+01 0.  1.
         13    1    6    6    0    0  0.45420880594E+02  0.11296455769E+01 -0.97671009992E+02  0.10772167231E+03  0.00000000000E+00 0. -1.
        -14    1    6    6    0    0 -0.12614962198E+02 -0.13245261401E+02 -0.36481557662E+03  0.36527384134E+03  0.00000000000E+00 0.  1.
</event>
<event>
12    1  0.1032880E+000  0.2378271E+03  0.7818608E-02  0.1121360E+00
         21   -1    0    0  503  502  0.00000000000E+00  0.00000000000E+00  0.23888097100E+03  0.23888097100E+03  0.00000000000E+00 0. -1.
         21   -1    0    0  501  503 -0.00000000000E+00 -0.00000000000E+00 -0.28998824101E+03  0.28998824101E+03  0.00000000000E+00 0.  1.
          6    2    1    2  501    0 -0.14045157930E+03 -0.84352487721E+02  0.88383340731E+02  0.25371903015E+03  0.17239415022E+03 0.  0.
         24    2    3    3    0    0 -0.72814057816E+02 -0.62958511949E+02 -0.18090254432E+02  0.12569070134E+03  0.78773306740E+02 0.  0.
         -6    2    1    2    0  502  0.14045157930E+03  0.84352487721E+02 -0.13949061074E+03  0.27515018186E+03  0.17148761990E+03 0.  0.
        -24    2    5    5    0    0  0.73494674306E+02  0.64854894821E+02 -0.15530619592E+03  0.20348703938E+03  0.87631821669E+02 0.  0.
          5    1    3    3  501    0 -0.67637521482E+02 -0.21393975772E+02  0.10647359516E+03  0.12802832881E+03  0.47000000000E+01 0. -1.
        -13    1    4    4    0    0 -0.67473341154E+02 -0.80369549355E+02 -0.89629291761E+01  0.10531975280E+03  0.00000000000E+00 0.  1.
         14    1    4    4    0    0 -0.53407166618E+01  0.17411037407E+02 -0.91273252558E+01  0.20370948539E+02  0.00000000000E+00 0. -1.
         -5    1    5    5    0  502  0.66956904993E+02  0.19497592899E+02  0.15815585186E+02  0.71663142478E+02  0.47000000000E+01 0.  1.
         13    1    6    6    0    0  0.54865947845E+02 -0.57549679556E+00 -0.34415986178E+02  0.64769310125E+02  0.00000000000E+00 0. -1.
        -14    1    6    6    0    0  0.18628726461E+02  0.65430391617E+02 -0.12089020975E+03  0.13871772925E+03  0.00000000000E+00 0.  1.
</event>
<event>
12    1  0.1032880E+000  0.2602370E+03  0.7818608E-02  0.1107803E+00
         21   -1    0    0  503  502  0.00000000000E+00  0.00000000000E+00  0.12593380717E+04  0.12593380717E+04  0.00000000000E+00 0.  1.
         21   -1    0    0  501  503 -0.00000000000E+00 -0.00000000000E+00 -0.20542994493E+03  0.20542994493E+03  0.00000000000E+00 0.  1.
          6    2    1    2  501    0  0.18779868707E+03 -0.54930787920E+02 -0.10593973057E+03  0.27608372627E+03  0.16344191344E+03 0.  0.
         24    2    3    3    0    0  0.15149454822E+03 -0.33642978464E+02 -0.13865339250E+03  0.22257265259E+03  0.78939054263E+02 0.  0.
         -6    2    1    2    0  502 -0.18779868707E+03  0.54930787920E+02  0.11598478573E+04  0.11886842903E+04  0.17157374988E+03 0.  0.
        -24    2    5    5    0    0 -0.68328412572E+02  0.60239609893E+02  0.80402138557E+03  0.81326998843E+03  0.81609454514E+02 0.  0.
          5    1    3    3  501    0  0.36304138852E+02 -0.21287809456E+02  0.32713661934E+02  0.53511073679E+02  0.47000000000E+01 0. -1.
        -11    1    4    4    0    0  0.60265361409E+02 -0.38266127728E+01 -0.86871152909E+01  0.61008382401E+02  0.00000000000E+00 0.  1.
         12    1    4    4    0    0  0.91229186809E+02 -0.29816365691E+02 -0.12996627721E+03  0.16156427019E+03  0.00000000000E+00 0. -1.
         -5    1    5    5    0  502 -0.11947027450E+03 -0.53088219738E+01  0.35582647173E+03  0.37541430189E+03  0.47000000000E+01 0.  1.
         13    1    6    6    0    0 -0.16099468539E+02  0.59227034242E+01  0.49124969243E+03  0.49154911414E+03  0.00000000000E+00 0. -1.
        -14    1    6    6    0    0 -0.52228944034E+02  0.54316906469E+02  0.31277169314E+03  0.32172087429E+03  0.00000000000E+00 0.  1.
</event>
<event>
12    1  0.1032880E+000  0.1908362E+03  0.7818608E-02  0.1159965E+00
         21   -1    0    0  501  502  0.00000000000E+00  0.00000000000E+00  0.47916410324E+03  0.47916410324E+03  0.00000000000E+00 0. -1.
         21   -1    0    0  502  503 -0.00000000000E+00 -0.00000000000E+00 -0.99685631883E+02  0.99685631883E+02  0.00000000000E+00 0. -1.
         -6    2    1    2    0  503  0.16086184923E+02 -0.56959524789E+02  0.33817891368E+03  0.38359582330E+03  0.17110705767E+03 0.  0.
        -24    2    3    3    0    0  0.57803871967E+02 -0.79266956731E+02  0.19315812385E+03  0.23098158276E+03  0.80111751458E+02 0.  0.
          6    2    1    2  501    0 -0.16086184923E+02  0.56959524789E+02  0.41299557685E+02  0.19525391183E+03  0.18142569777E+03 0.  0.
         24    2    5    5    0    0 -0.27717940227E+02  0.34729277874E+02 -0.47469921825E+02  0.10288729393E+03  0.79737035453E+02 0.  0.
          5    1    5    5  501    0  0.11631755304E+02  0.22230246915E+02  0.88769479510E+02  0.92366617898E+02  0.47000000000E+01 0. -1.
        -13    1    6    6    0    0 -0.25170189905E+02  0.43382076095E+02  0.42983787148E+01  0.50339040970E+02  0.00000000000E+00 0.  1.
         14    1    6    6    0    0 -0.25477503225E+01 -0.86527982213E+01 -0.51768300540E+02  0.52548252964E+02  0.00000000000E+00 0. -1.
         -5    1    3    3    0  503 -0.41717687045E+02  0.22307431942E+02  0.14502078983E+03  0.15261424054E+03  0.47000000000E+01 0.  1.
         11    1    4    4    0    0  0.44878962058E+02 -0.90400181729E+02  0.18762478386E+03  0.21304782001E+03  0.00000000000E+00 0. -1.
        -12    1    4    4    0    0  0.12924909909E+02  0.11133224998E+02  0.55333399905E+01  0.17933762753E+02  0.00000000000E+00 0.  1.
</event>
<event>
12    1  0.1032880E+000  0.3278432E+03  0.7818608E-02  0.1072110E+00
         21   -1    0    0  501  502  0.00000000000E+00  0.00000000000E+00  0.49695209351E+03  0.49695209351E+03  0.00000000000E+00 0.  1.
         21   -1    0    0  502  503 -0.00000000000E+00 -0.00000000000E+00 -0.21761904185E+03  0.21761904185E+03  0.00000000000E+00 0.  1.
         -6    2    1    2    0  503  0.27835246299E+03 -0.20768255499E+02  0.11077114191E+03  0.34605121068E+03  0.17195865912E+03 0.  0.
        -24    2    3    3    0    0  0.22919405811E+03  0.74213729513E+01  0.14154903798E+03  0.28139386146E+03  0.81002358412E+02 0.  0.
          6    2    1    2  501    0 -0.27835246299E+03  0.20768255499E+02  0.16856190975E+03  0.36851992467E+03  0.17170440697E+03 0.  0.
         24    2    5    5    0    0 -0.16017925968E+03 -0.38345536867E+02  0.14631907546E+03  0.23444464692E+03  0.80170101613E+02 0.  0.
          5    1    5    5  501    0 -0.11817320331E+03  0.59113792366E+02  0.22242834281E+02  0.13407527775E+03  0.47000000000E+01 0. -1.
        -11    1    6    6    0    0 -0.10462331257E+03 -0.10265675616E+02  0.13511673702E+03  0.17119566073E+03  0.00000000000E+00 0.  1.
         12    1    6    6    0    0 -0.55555947107E+02 -0.28079861251E+02  0.11202338445E+02  0.63248986185E+02  0.00000000000E+00 0. -1.
         -5    1    3    3    0  503  0.49158404879E+02 -0.28189628451E+02 -0.30777896061E+02  0.64657349222E+02  0.47000000000E+01 0.  1.
         13    1    4    4    0    0  0.93299245947E+02 -0.76426174883E+01  0.14457718534E+02  0.94721615915E+02  0.00000000000E+00 0. -1.
        -14    1    4    4    0    0  0.13589481216E+03  0.15063990440E+02  0.12709131944E+03  0.18667224555E+03  0.00000000000E+00 0.  1.
</event>
<event>
12    1  0.1032880E+000  0.1752160E+03  0.7818608E-02  0.1173062E+00
         21   -1    0    0  503  502  0.00000000000E+00  0.00000000000E+00  0.18216670582E+02  0.18216670582E+02  0.00000000000E+00 0.  1.
         21   -1    0    0  501  503 -0.00000000000E+00 -0.00000000000E+00 -0.16729124887E+04  0.16729124887E+04  0.00000000000E+00 0.  1.
          6    2    1    2  501    0  0.86125106213E+01 -0.24178286234E+02 -0.89242202597E+03  0.90946012599E+03  0.17332594574E+03 0.  0.
         24    2    3    3    0    0 -0.11010465836E+02  0.24904571213E+02 -0.78620681247E+03  0.79072533884E+03  0.79899571277E+02 0.  0.
         -6    2    1    2    0  502 -0.86125106213E+01  0.24178286234E+02 -0.76227379216E+03  0.78166903330E+03  0.17113263437E+03 0.  0.
        -24    2    5    5    0    0 -0.17116972434E+02 -0.50251810056E+02 -0.48484343482E+03  0.49426364317E+03  0.80032227950E+02 0.  0.
          5    1    3    3  501    0  0.19622976457E+02 -0.49082857447E+02 -0.10621521350E+03  0.11873478715E+03  0.47000000000E+01 0. -1.
        -11    1    4    4    0    0 -0.10790497056E+02  0.17255580042E+01 -0.72786890788E+03  0.72795093202E+03  0.00000000000E+00 0.  1.
         12    1    4    4    0    0 -0.21996877981E+00  0.23179013209E+02 -0.58337904595E+02  0.62774406824E+02  0.00000000000E+00 0. -1.
         -5    1    5    5    0  502  0.85044618128E+01  0.74430096290E+02 -0.27743035734E+03  0.28740539013E+03  0.47000000000E+01 0.  1.
         13    1    6    6    0    0 -0.71243721382E+01 -0.61653696475E+02 -0.46582680341E+03  0.46994313033E+03  0.00000000000E+00 0. -1.
        -14    1    6    6    0    0 -0.99926002958E+01  0.11401886419E+02 -0.19016631406E+02  0.24320512836E+02  0.00000000000E+00 0.  1.
</event>
<event>
12    1  0.1032880E+000  0.2259290E+03  0.7818608E-02  0.1129548E+00
         21   -1    0    0  501  502  0.00000000000E+00  0.00000000000E+00  0.27331344107E+03  0.27331344107E+03  0.00000000000E+00 0. -1.
         21   -1    0    0  502  503 -0.00000000000E+00 -0.00000000000E+00 -0.18805703742E+03  0.18805703742E+03  0.00000000000E+00 0. -1.
         -6    2    1    2    0  503  0.26206874992E+02 -0.14421257317E+03  0.62109273359E+02  0.23425879793E+03  0.17185911676E+03 0.  0.
        -24    2    3    3    0    0  0.69641301183E+02 -0.42428662482E+02  0.29932089330E+02  0.11891593935E+03  0.81209410964E+02 0.  0.
          6    2    1    2  501    0 -0.26206874992E+02  0.14421257317E+03  0.23147130296E+02  0.22711168055E+03  0.17192980907E+03 0.  0.
         24    2    5    5    0    0  0.76218959073E+01  0.15220190361E+03 -0.18246970223E+02  0.17285509847E+03  0.79513649043E+02 0.  0.
          5    1    5    5  501    0 -0.33828770900E+02 -0.79893304421E+01  0.41394100519E+02  0.54256582082E+02  0.47000000000E+01 0. -1.
        -11    1    6    6    0    0  0.17234675397E+02  0.97844014679E+02  0.25327472729E+02  0.10252787972E+03  0.00000000000E+00 0.  1.
         12    1    6    6    0    0 -0.96127794898E+01  0.54357888935E+02 -0.43574442953E+02  0.70327218754E+02  0.00000000000E+00 0. -1.
         -5    1    3    3    0  503 -0.43434426190E+02 -0.10178391069E+03  0.32177184029E+02  0.11534285858E+03  0.47000000000E+01 0.  1.
         11    1    4    4    0    0  0.15843208713E+02 -0.19396461029E+02 -0.27309383045E+02  0.37054451353E+02  0.00000000000E+00 0. -1.
        -12    1    4    4    0    0  0.53798092470E+02 -0.23032201453E+02  0.57241472375E+02  0.81861487996E+02  0.00000000000E+00 0.  1.
</event>
<event>
12    1  0.1032880E+000  0.1728412E+03  0.7818608E-02  0.1175173E+00
         21   -1    0    0  501  502  0.00000000000E+00  0.00000000000E+00  0.30992221045E+02  0.30992221045E+02  0.00000000000E+00 0.  1.
         21   -1    0    0  502  503 -0.00000000000E+00 -0.00000000000E+00 -0.96943364471E+03  0.96943364471E+03  0.00000000000E+00 0.  1.
         -6    2    1    2    0  503  0.40727839949E+01  0.15410266928E+01 -0.41707689234E+03  0.45147226294E+03  0.17278630661E+03 0.  0.
        -24    2    3    3    0    0 -0.23749476462E+02  0.38086332017E+02 -0.38582112427E+03  0.39571698915E+03  0.75626643777E+02 0.  0.
          6    2    1    2  501    0 -0.40727839949E+01 -0.15410266928E+01 -0.52136453133E+03  0.54895360281E+03  0.17178510175E+03 0.  0.
         24    2    5    5    0    0 -0.42209438824E+01  0.38683219731E+02 -0.49001679906E+03  0.49774049639E+03  0.78198021219E+02 0.  0.
          5    1    5    5  501    0  0.14815988757E+00 -0.40224246424E+02 -0.31347732264E+02  0.51213106426E+02  0.47000000000E+01 0. -1.
        -11    1    6    6    0    0  0.25340891134E+02  0.47151700384E+02 -0.24358343856E+03  0.24939594053E+03  0.00000000000E+00 0.  1.
         12    1    6    6    0    0 -0.29561835016E+02 -0.84684806533E+01 -0.24643336050E+03  0.24834455585E+03  0.00000000000E+00 0. -1.
         -5    1    3    3    0  503  0.27822260457E+02 -0.36545305324E+02 -0.31255768066E+02  0.55755273791E+02  0.47000000000E+01 0.  1.
         11    1    4    4    0    0  0.25489575527E+02  0.32529519897E+01 -0.15655865745E+03  0.15865343797E+03  0.00000000000E+00 0. -1.
        -12    1    4    4    0    0 -0.49239051989E+02  0.34833380027E+02 -0.22926246682E+03  0.23706355118E+03  0.00000000000E+00 0.  1.
</event>
<event>
12    1  0.1032880E+000  0.1926985E+03  0.7818608E-02  0.1156059E+00
         21   -1    0    0  503  502  0.00000000000E+00  0.00000000000E+00  0.16469048924E+03  0.16469048924E+03  0.00000000000E+00 0. -1.
         21   -1    0    0  501  503 -0.00000000000E+00 -0.00000000000E+00 -0.23172317324E+03  0.23172317324E+03  0.00000000000E+00 0. -1.
          6    2    1    2  501    0  0.79885986198E+02 -0.33877576001E+02 -0.66208523510E+02  0.20375546992E+03  0.17205598504E+03 0.  0.
         24    2    3    3    0    0  0.10451177657E+03 -0.63494298832E+02 -0.75579387856E+02  0.16383701653E+03  0.78588082369E+02 0.  0.
         -6    2    1    2    0  502 -0.79885986198E+02  0.33877576001E+02 -0.82416048605E+00  0.19265819256E+03  0.17200883400E+03 0.  0.
        -24    2    5    5    0    0 -0.23817206949E+02  0.61346921341E+02  0.46894763620E+02  0.11393425302E+03  0.80319306837E+02 0.  0.
          5    1    3    3  501    0 -0.24625790370E+02  0.29616722831E+02  0.93708643459E+01  0.39918453391E+02  0.47000000000E+01 0. -1.
        -11    1    4    4    0    0  0.28510653186E+02 -0.40050998917E+02  0.64460932217E+01  0.49583182402E+02  0.00000000000E+00 0.  1.
         12    1    4    4    0    0  0.76001123382E+02 -0.23443299915E+02 -0.82025481078E+02  0.11425383413E+03  0.00000000000E+00 0. -1.
         -5    1    5    5    0  502 -0.56068779249E+02 -0.27469345340E+02 -0.47718924106E+02  0.78723939546E+02  0.47000000000E+01 0.  1.
         13    1    6    6    0    0  0.29818256659E+02  0.26061069114E+02  0.19276037541E+02  0.44043993652E+02  0.00000000000E+00 0. -1.
        -14    1    6    6    0    0 -0.53635463609E+02  0.35285852228E+02  0.27618726079E+02  0.69890259366E+02  0.00000000000E+00 0.  1.
</event>
<event>
12    1  0.1032880E+000  0.1809456E+03  0.7818608E-02  0.1167482E+00
         21   -1    0    0  501  502  0.00000000000E+00  0.00000000000E+00  0.32949257767E+02  0.32949257767E+02  0.00000000000E+00 0.  1.
         21   -1    0    0  502  503 -0.00000000000E+00 -0.00000000000E+00 -0.14017505861E+04  0.14017505861E+04  0.00000000000E+00 0.  1.
         -6    2    1    2    0  503  0.52342276808E+02  0.22710787851E+02 -0.10809716947E+04  0.10960114555E+04  0.17171433260E+03 0.  0.
        -24    2    3    3    0    0  0.46206584102E+02 -0.19236993760E+02 -0.29455288345E+03  0.30843676076E+03  0.76594542211E+02 0.  0.
          6    2    1    2  501    0 -0.52342276808E+02 -0.22710787851E+02 -0.28782963366E+03  0.33868838839E+03  0.16914027490E+03 0.  0.
         24    2    5    5    0    0  0.76159731919E+01 -0.26339724500E+02 -0.26518192627E+03  0.27432093098E+03  0.64643135882E+02 0.  0.
          5    1    5    5  501    0 -0.59958250000E+02  0.36289366488E+01 -0.22647707391E+02  0.64367457417E+02  0.47000000000E+01 0. -1.
        -11    1    6    6    0    0 -0.13373950352E+02  0.26629999597E+01 -0.19554588836E+03  0.19602078607E+03  0.00000000000E+00 0.  1.
         12    1    6    6    0    0  0.20989923543E+02 -0.29002724460E+02 -0.69636037905E+02  0.78300144901E+02  0.00000000000E+00 0. -1.
         -5    1    3    3    0  503  0.61356927060E+01  0.41947781612E+02 -0.78641881123E+03  0.78757469472E+03  0.47000000000E+01 0.  1.
         13    1    4    4    0    0 -0.20598385664E+02  0.28501788570E+01 -0.56600488828E+02  0.60299521947E+02  0.00000000000E+00 0. -1.
        -14    1    4    4    0    0  0.66804969767E+02 -0.22087172617E+02 -0.23795239462E+03  0.24813723881E+03  0.00000000000E+00 0.  1.
</event>
<event>
12    1  0.1032880E+000  0.1869459E+03  0.7818608E-02  0.1162361E+00
         21   -1    0    0  501  502  0.00000000000E+00  0.00000000000E+00  0.62009109542E+03  0.62009109542E+03  0.00000000000E+00 0. -1.
         21   -1    0    0  502  503 -0.00000000000E+00 -0.00000000000E+00 -0.55003658356E+02  0.55003658356E+02  0.00000000000E+00 0. -1.
         -6    2    1    2    0  503 -0.32167730939E+02  0.50984262929E+02  0.29865660260E+03  0.35234148462E+03  0.17695931037E+03 0.  0.
        -24    2    3    3    0    0 -0.33410524861E+02 -0.32744164721E+02  0.21432335447E+03  0.23340376615E+03  0.79714329258E+02 0.  0.
          6    2    1    2  501    0  0.32167730939E+02 -0.50984262929E+02  0.26643083447E+03  0.32275326916E+03  0.17190149859E+03 0.  0.
         24    2    5    5    0    0  0.73422118850E+02 -0.77298539638E+02  0.19573280957E+03  0.23664481194E+03  0.79520830659E+02 0.  0.
          5    1    5    5  501    0 -0.41254387911E+02  0.26314276709E+02  0.70698024901E+02  0.86108457225E+02  0.47000000000E+01 0. -1.
        -11    1    6    6    0    0 -0.16664002209E+02 -0.52033845765E+01  0.21956473109E+02  0.28050862590E+02  0.00000000000E+00 0.  1.
         12    1    6    6    0    0  0.90086121060E+02 -0.72095155062E+02  0.17377633646E+03  0.20859394935E+03  0.00000000000E+00 0. -1.
         -5    1    3    3    0  503  0.12427939218E+01  0.83728427650E+02  0.84333248130E+02  0.11893771847E+03  0.47000000000E+01 0.  1.
         13    1    4    4    0    0 -0.23029506487E+02  0.21478138327E+02  0.12046441760E+03  0.12451242710E+03  0.00000000000E+00 0. -1.
        -14    1    4    4    0    0 -0.10381018373E+02 -0.54222303048E+02  0.93858936870E+02  0.10889133905E+03  0.00000000000E+00 0.  1.
</event>
<event>
12    1  0.1032880E+000  0.1859942E+03  0.7818608E-02  0.1162185E+00
         21   -1    0    0  503  502  0.00000000000E+00  0.00000000000E+00  0.55988848908E+02  0.55988848908E+02  0.00000000000E+00 0.  1.
         21   -1    0    0  501  503 -0.00000000000E+00 -0.00000000000E+00 -0.64453189461E+03  0.64453189461E+03  0.00000000000E+00 0.  1.
          6    2    1    2  501    0 -0.67650131847E+02  0.21201575116E+02 -0.36645941843E+03  0.41083990300E+03  0.17167082867E+03 0.  0.
         24    2    3    3    0    0 -0.84363112980E+00  0.44481291496E+01 -0.31154501018E+03  0.32262726942E+03  0.83711194242E+02 0.  0.
         -6    2    1    2    0  502  0.67650131847E+02 -0.21201575116E+02 -0.22208362727E+03  0.28968084051E+03  0.17195291429E+03 0.  0.
        -24    2    5    5    0    0  0.48671617827E+02 -0.79767012640E+02 -0.13243079801E+03  0.18082398836E+03  0.80172911987E+02 0.  0.
          5    1    3    3  501    0 -0.66806500718E+02  0.16753445966E+02 -0.54914408253E+02  0.88212633583E+02  0.47000000000E+01 0. -1.
        -13    1    4    4    0    0  0.83286613559E+01 -0.37023101474E+02 -0.10222156940E+03  0.10903818548E+03  0.00000000000E+00 0.  1.
         14    1    4    4    0    0 -0.91722924857E+01  0.41471230624E+02 -0.20932344078E+03  0.21358908394E+03  0.00000000000E+00 0. -1.
         -5    1    5    5    0  502  0.18978514021E+02  0.58565437525E+02 -0.89652829257E+02  0.10885685215E+03  0.47000000000E+01 0.  1.
         13    1    6    6    0    0  0.58167299488E+01  0.47467118343E+01  0.82827793123E+01  0.11179000567E+02  0.00000000000E+00 0. -1.
        -14    1    6    6    0    0  0.42854887878E+02 -0.84513724475E+02 -0.14071357732E+03  0.16964498779E+03  0.00000000000E+00 0.  1.
</event>
<event>
12    1  0.1032880E+000  0.2212682E+03  0.7818608E-02  0.1133140E+00
         21   -1    0    0  501  502  0.00000000000E+00  0.00000000000E+00  0.67620400675E+02  0.67620400675E+02  0.00000000000E+00 0. -1.
         21   -1    0    0  502  503 -0.00000000000E+00 -0.00000000000E+00 -0.11073652857E+04  0.11073652857E+04  0.00000000000E+00 0. -1.
         -6    2    1    2    0  503 -0.98415125006E+00  0.13745007585E+03 -0.17182044041E+03  0.27930022645E+03  0.17202575635E+03 0.  0.
        -24    2    3    3    0    0  0.15236110591E+02  0.10000491732E+03 -0.29769891531E+02  0.13142972490E+03  0.78450006959E+02 0.  0.
          6    2    1    2  501    0  0.98415125006E+00 -0.13745007585E+03 -0.86792444461E+03  0.89568545992E+03  0.17339581787E+03 0.  0.
         24    2    5    5    0    0 -0.93856451507E+01 -0.16422875518E+03 -0.80767251963E+03  0.82877496143E+03  0.86451508751E+02 0.  0.
          5    1    5    5  501    0  0.10369796401E+02  0.26778679333E+02 -0.60251924977E+02  0.66910498486E+02  0.47000000000E+01 0. -1.
        -13    1    6    6    0    0 -0.42980524769E+02 -0.65055126540E+02 -0.27152755701E+03  0.28250081277E+03  0.00000000000E+00 0.  1.
         14    1    6    6    0    0  0.33594879619E+02 -0.99173628642E+02 -0.53614496262E+03  0.54627414867E+03  0.00000000000E+00 0. -1.
         -5    1    3    3    0  503 -0.16220261841E+02  0.37445158531E+02 -0.14205054888E+03  0.14787050155E+03  0.47000000000E+01 0.  1.
         11    1    4    4    0    0 -0.37658249680E+01  0.36327945304E+00  0.18649092503E+02  0.19028979501E+02  0.00000000000E+00 0. -1.
        -12    1    4    4    0    0  0.19001935559E+02  0.99641637865E+02 -0.48418984034E+02  0.11240074540E+03  0.00000000000E+00 0.  1.
</event>
<event>
12    1  0.1032880E+000  0.1742091E+03  0.7818608E-02  0.1176723E+00
         21   -1    0    0  501  502  0.00000000000E+00  0.00000000000E+00  0.10932739248E+03  0.10932739248E+03  0.00000000000E+00 0.  1.
         21   -1    0    0  502  503 -0.00000000000E+00 -0.00000000000E+00 -0.31192500031E+03  0.31192500031E+03  0.00000000000E+00 0.  1.
         -6    2    1    2    0  503  0.10799648096E+01 -0.18602956981E+02 -0.11173538111E+02  0.16242430360E+03  0.16096449954E+03 0.  0.
        -24    2    3    3    0    0 -0.49870407446E+02 -0.43387279072E+02 -0.18644728851E+02  0.10508224447E+03  0.79530740371E+02 0.  0.
          6    2    1    2  501    0 -0.10799648096E+01  0.18602956981E+02 -0.19142406971E+03  0.25882808919E+03  0.17320960989E+03 0.  0.
         24    2    5    5    0    0  0.48858765094E+01  0.40821106460E+02 -0.21028301485E+03  0.22871186034E+03  0.79999588769E+02 0.  0.
          5    1    5    5  501    0 -0.59658413191E+01 -0.22218149480E+02  0.18858945134E+02  0.30116228856E+02  0.47000000000E+01 0. -1.
        -13    1    6    6    0    0  0.20789752785E+02  0.60115099614E+02 -0.16731618748E+03  0.17899928943E+03  0.00000000000E+00 0.  1.
         14    1    6    6    0    0 -0.15903876275E+02 -0.19293993154E+02 -0.42966827366E+02  0.49712570908E+02  0.00000000000E+00 0. -1.
         -5    1    3    3    0  503  0.50950372255E+02  0.24784322091E+02  0.74711907402E+01  0.57342059132E+02  0.47000000000E+01 0.  1.
         13    1    4    4    0    0 -0.22073424671E+02  0.13033712940E+02 -0.31778619079E+02  0.40828842505E+02  0.00000000000E+00 0. -1.
        -14    1    4    4    0    0 -0.27796982774E+02 -0.56420992012E+02  0.13133890228E+02  0.64253401960E+02  0.00000000000E+00 0.  1.
</event>
<event>
12    1  0.1032880E+000  0.2397935E+03  0.7818608E-02  0.1119990E+00
         21   -1    0    0  501  502  0.00000000000E+00  0.00000000000E+00  0.29336545212E+03  0.29336545212E+03  0.00000000000E+00 0. -1.
         21   -1    0    0  502  503 -0.00000000000E+00 -0.00000000000E+00 -0.28104529743E+03  0.28104529743E+03  0.00000000000E+00 0. -1.
         -6    2    1    2    0  503  0.15119367634E+03  0.69435456266E+02  0.16441937283E+03  0.29074846660E+03  0.17268506108E+03 0.  0.
        -24    2    3    3    0    0  0.95042529138E+02 -0.61450175936E+01  0.32725748424E+02  0.12878964446E+03  0.80280472874E+02 0.  0.
          6    2    1    2  501    0 -0.15119367634E+03 -0.69435456266E+02 -0.15209921813E+03  0.28366228294E+03  0.17218974493E+03 0.  0.
         24    2    5    5    0    0 -0.13051909546E+03 -0.57951024108E+02 -0.18229837070E+03  0.24501762882E+03  0.80046155414E+02 0.  0.
          5    1    5    5  501    0 -0.20674580876E+02 -0.11484432158E+02  0.30199152571E+02  0.38644654124E+02  0.47000000000E+01 0. -1.
        -11    1    6    6    0    0 -0.97079742886E+02 -0.16625304560E+01 -0.94447383571E+02  0.13545312381E+03  0.00000000000E+00 0.  1.
         12    1    6    6    0    0 -0.33439352576E+02 -0.56288493652E+02 -0.87850987131E+02  0.10956450501E+03  0.00000000000E+00 0. -1.
         -5    1    3    3    0  503  0.56151147200E+02  0.75580473860E+02  0.13169362440E+03  0.16195882214E+03  0.47000000000E+01 0.  1.
         13    1    4    4    0    0  0.11668367063E+02  0.18588337636E+02  0.35549330193E+02  0.41778367167E+02  0.00000000000E+00 0. -1.
        -14    1    4    4    0    0  0.83374162075E+02 -0.24733355230E+02 -0.28235817694E+01  0.87011277296E+02  0.00000000000E+00 0.  1.
</event>
<event>
12    1  0.1032880E+000  0.3935113E+03  0.7818608E-02  0.1046133E+00
         21   -1    0    0  503  502  0.00000000000E+00  0.00000000000E+00  0.68078575001E+03  0.68078575001E+03  0.00000000000E+00 0.  1.
         21   -1    0    0  501  503 -0.00000000000E+00 -0.00000000000E+00 -0.23168543347E+03  0.23168543347E+03  0.00000000000E+00 0.  1.
          6    2    1    2  501    0 -0.65207532977E+02  0.34745641163E+03  0.29026901628E+03  0.48898595500E+03  0.17283860110E+03 0.  0.
         24    2    3    3    0    0 -0.68364464381E+01  0.98136401483E+02  0.45334209512E+02  0.13460931811E+03  0.79918631579E+02 0.  0.
         -6    2    1    2    0  502  0.65207532977E+02 -0.34745641163E+03  0.15883130025E+03  0.42348522849E+03  0.17068795055E+03 0.  0.
        -24    2    5    5    0    0  0.13587103003E+02 -0.74767020225E+02  0.72570151658E+02  0.13281832508E+03  0.81237699898E+02 0.  0.
          5    1    3    3  501    0 -0.58371086539E+02  0.24932001015E+03  0.24493480677E+03  0.35437663689E+03  0.47000000000E+01 0. -1.
        -13    1    4    4    0    0  0.31534806258E+02  0.19271838952E+02  0.26016017261E+01  0.37048834177E+02  0.00000000000E+00 0.  1.
         14    1    4    4    0    0 -0.38371252696E+02  0.78864562531E+02  0.42732607786E+02  0.97560483931E+02  0.00000000000E+00 0. -1.
         -5    1    5    5    0  502  0.51620429973E+02 -0.27268939141E+03  0.86261148597E+02  0.29066690340E+03  0.47000000000E+01 0.  1.
         13    1    6    6    0    0  0.71388469589E+01 -0.79915475098E+02  0.24278162641E+02  0.83826460484E+02  0.00000000000E+00 0. -1.
        -14    1    6    6    0    0  0.64482560444E+01  0.51484548732E+01  0.48291989017E+02  0.48991864598E+02  0.00000000000E+00 0.  1.
</event>
<event>
12    1  0.1032880E+000  0.1952275E+03  0.7818608E-02  0.1154021E+00
         21   -1    0    0  501  502  0.00000000000E+00  0.00000000000E+00  0.55851642299E+02  0.55851642299E+02  0.00000000000E+00 0. -1.
         21   -1    0    0  502  503 -0.00000000000E+00 -0.00000000000E+00 -0.71722514987E+03  0.71722514987E+03  0.00000000000E+00 0. -1.
         -6    2    1    2    0  503  0.36704076430E+01  0.92352154109E+02 -0.24256522136E+03  0.31137058991E+03  0.17196326756E+03 0.  0.
        -24    2    3    3    0    0  0.29846488409E+02  0.12048507707E+03 -0.22177523669E+03  0.26742787697E+03  0.83222275279E+02 0.  0.
          6    2    1    2  501    0 -0.36704076430E+01 -0.92352154109E+02 -0.41880828621E+03  0.46170620225E+03  0.17096737800E+03 0.  0.
         24    2    5    5    0    0 -0.42863489359E+01  0.19739466155E+02 -0.18985368000E+03  0.20674108224E+03  0.79305964251E+02 0.  0.
          5    1    5    5  501    0  0.61594129290E+00 -0.11209162026E+03 -0.22895460621E+03  0.25496512001E+03  0.47000000000E+01 0. -1.
        -13    1    6    6    0    0 -0.63251905122E+01 -0.27060586397E+02 -0.11601155526E+03  0.11929360555E+03  0.00000000000E+00 0.  1.
         14    1    6    6    0    0  0.20388415763E+01  0.46800052552E+02 -0.73842124740E+02  0.87447476693E+02  0.00000000000E+00 0. -1.
         -5    1    3    3    0  503 -0.26176080766E+02 -0.28132922961E+02 -0.20789984665E+02  0.43942712945E+02  0.47000000000E+01 0.  1.
         13    1    4    4    0    0  0.36026280577E+02  0.98021708434E+01 -0.41753402057E+02  0.56011802585E+02  0.00000000000E+00 0. -1.
        -14    1    4    4    0    0 -0.61797921681E+01  0.11068290623E+03 -0.18002183463E+03  0.21141607438E+03  0.00000000000E+00 0.  1.
</event>
<event>
12    1  0.1032880E+000  0.2943028E+03  0.7818608E-02  0.1088140E+00
         21   -1    0    0  503  502  0.00000000000E+00  0.00000000000E+00  0.14977361837E+03  0.14977361837E+03  0.00000000000E+00 0.  1.
         21   -1    0    0  501  503 -0.00000000000E+00 -0.00000000000E+00 -0.62126682578E+03  0.62126682578E+03  0.00000000000E+00 0.  1.
          6    2    1    2  501    0  0.14425430529E+03  0.19053271032E+03 -0.13401065959E+03  0.32325853725E+03  0.17153777055E+03 0.  0.
         24    2    3    3    0    0  0.15000931290E+03  0.20243960638E+03 -0.93406766386E+02  0.28029738701E+03  0.79732132575E+02 0.  0.
         -6    2    1    2    0  502 -0.14425430529E+03 -0.19053271032E+03 -0.33748254783E+03  0.44778190690E+03  0.17176189266E+03 0.  0.
        -24    2    5    5    0    0 -0.23875982774E+02 -0.12378109686E+03 -0.22034104190E+03  0.26697554407E+03  0.82667671386E+02 0.  0.
          5    1    3    3  501    0 -0.57550076126E+01 -0.11906896070E+02 -0.40603893204E+02  0.42961150240E+02  0.47000000000E+01 0. -1.
        -11    1    4    4    0    0  0.45593103312E+01 -0.28146782898E+01  0.75267102755E+01  0.92391066745E+01  0.00000000000E+00 0.  1.
         12    1    4    4    0    0  0.14545000257E+03  0.20525428467E+03 -0.10093347666E+03  0.27105828033E+03  0.00000000000E+00 0. -1.
         -5    1    5    5    0  502 -0.12037832252E+03 -0.66751613454E+02 -0.11714150593E+03  0.18080636283E+03  0.47000000000E+01 0.  1.
         13    1    6    6    0    0 -0.48668321259E+02 -0.11230538566E+03 -0.19128966659E+03  0.22709654706E+03  0.00000000000E+00 0. -1.
        -14    1    6    6    0    0  0.24792338485E+02 -0.11475711201E+02 -0.29051375312E+02  0.39878997012E+02  0.00000000000E+00 0.  1.
</event>
<event>
12    1  0.1032880E+000  0.1905879E+03  0.7818608E-02  0.1158149E+00
         21   -1    0    0  503  502  0.00000000000E+00  0.00000000000E+00  0.59506447743E+03  0.59506447743E+03  0.00000000000E+00 0.  1.
         21   -1    0    0  501  503 -0.00000000000E+00 -0.00000000000E+00 -0.62922813338E+02  0.62922813338E+02  0.00000000000E+00 0.  1.
          6    2    1    2  501    0  0.43569527770E+02  0.66084166717E+02  0.20406541575E+03  0.27856963212E+03  0.17231635209E+03 0.  0.
         24    2    3    3    0    0 -0.30849594137E+02  0.22186965937E+02  0.73596775431E+02  0.12201508557E+03  0.89594848266E+02 0.  0.
         -6    2    1    2    0  502 -0.43569527770E+02 -0.66084166717E+02  0.32807624835E+03  0.37941765865E+03  0.17337333740E+03 0.  0.
        -24    2    5    5    0    0  0.84851736644E+01  0.17262589432E+02  0.90131748817E+02  0.12193746803E+03  0.79843714840E+02 0.  0.
          5    1    3    3  501    0  0.74419121907E+02  0.43897200781E+02  0.13046864031E+03  0.15655454656E+03  0.47000000000E+01 0. -1.
        -11    1    4    4    0    0  0.85177376166E+01  0.20940363325E+02 -0.13567259943E+02  0.26365151482E+02  0.00000000000E+00 0.  1.
         12    1    4    4    0    0 -0.39367331754E+02  0.12466026111E+01  0.87164035374E+02  0.95649934083E+02  0.00000000000E+00 0. -1.
         -5    1    5    5    0  502 -0.52054701435E+02 -0.83346756149E+02  0.23794449953E+03  0.25748019061E+03  0.47000000000E+01 0.  1.
         13    1    6    6    0    0  0.42143920567E+02  0.90317332504E+01  0.68988882553E+02  0.81345855224E+02  0.00000000000E+00 0. -1.
        -14    1    6    6    0    0 -0.33658746903E+02  0.82308561817E+01  0.21142866264E+02  0.40591612808E+02  0.00000000000E+00 0.  1.
</event>
<event>
12    1  0.1032880E+000  0.2048344E+03  0.7818608E-02  0.1146211E+00
         21   -1    0    0  503  502  0.00000000000E+00  0.00000000000E+00  0.32339519035E+03  0.32339519035E+03  0.00000000000E+00 0.  1.
         21   -1    0    0  501  503 -0.00000000000E+00 -0.00000000000E+00 -0.16886402848E+03  0.16886402848E+03  0.00000000000E+00 0.  1.
          6    2    1    2  501    0  0.27242711433E+02 -0.10327717781E+03  0.19764135341E+03  0.28293740899E+03  0.17199747686E+03 0.  0.
         24    2    3    3    0    0  0.25834580705E+02 -0.13757755031E+03  0.17659915793E+03  0.24239900281E+03  0.89302889496E+02 0.  0.
         -6    2    1    2    0  502 -0.27242711433E+02  0.10327717781E+03 -0.43110191545E+02  0.20932180983E+03  0.17478212344E+03 0.  0.
        -24    2    5    5    0    0 -0.17500764306E+02  0.46049710124E+01 -0.70873937556E+02  0.10624889622E+03  0.77059914441E+02 0.  0.
          5    1    3    3  501    0  0.14081307270E+01  0.34300372495E+02  0.21042195484E+02  0.40538406187E+02  0.47000000000E+01 0. -1.
        -13    1    4    4    0    0 -0.32463981901E+02 -0.49399992612E+02  0.49611976874E+02  0.77172648265E+02  0.00000000000E+00 0.  1.
         14    1    4    4    0    0  0.58298562607E+02 -0.88177557694E+02  0.12698718105E+03  0.16522635454E+03  0.00000000000E+00 0. -1.
         -5    1    5    5    0  502 -0.97419471267E+01  0.98672206799E+02  0.27763746011E+02  0.10307291361E+03  0.47000000000E+01 0.  1.
         11    1    6    6    0    0 -0.51536154728E+01  0.36103125510E+02 -0.60887901184E+02  0.70974163853E+02  0.00000000000E+00 0. -1.
        -12    1    6    6    0    0 -0.12347148833E+02 -0.31498154497E+02 -0.99860363711E+01  0.35274732365E+02  0.00000000000E+00 0.  1.
</event>
<event>
12    1  0.1032880E+000  0.3021745E+03  0.7818608E-02  0.1084396E+00
         21   -1    0    0  503  502  0.00000000000E+00  0.00000000000E+00  0.26984193965E+03  0.26984193965E+03  0.00000000000E+00 0. -1.
         21   -1    0    0  501  503 -0.00000000000E+00 -0.00000000000E+00 -0.36380144885E+03  0.36380144885E+03  0.00000000000E+00 0. -1.
          6    2    1    2  501    0 -0.20926601360E+03  0.13232200087E+03  0.40080655603E+02  0.30482110803E+03  0.17322838273E+03 0.  0.
         24    2    3    3    0    0 -0.96010174552E+02  0.11361531049E+03  0.74180733280E+02  0.18498066977E+03  0.81170651127E+02 0.  0.
         -6    2    1    2    0  502  0.20926601360E+03 -0.13232200087E+03 -0.13404016480E+03  0.32882228048E+03  0.16987039176E+03 0.  0.
        -24    2    5    5    0    0  0.18458693682E+03 -0.12254334512E+03 -0.57254818538E+02  0.24744194907E+03  0.94128610081E+02 0.  0.
          5    1    3    3  501    0 -0.11325583905E+03  0.18706690375E+02 -0.34100077677E+02  0.11984043826E+03  0.47000000000E+01 0. -1.
        -11    1    4    4    0    0 -0.95875185049E+01 -0.11898331202E+02  0.15265003349E+02  0.21598868575E+02  0.00000000000E+00 0.  1.
         12    1    4    4    0    0 -0.86422656047E+02  0.12551364169E+03  0.58915729931E+02  0.16338180120E+03  0.00000000000E+00 0. -1.
         -5    1    5    5    0  502  0.24679076781E+02 -0.97786557454E+01 -0.76785346265E+02  0.81380331408E+02  0.47000000000E+01 0.  1.
         13    1    6    6    0    0  0.40180142645E+02 -0.55183833129E+02  0.18906274721E+02  0.70831818596E+02  0.00000000000E+00 0. -1.
        -14    1    6    6    0    0  0.14440679418E+03 -0.67359511992E+02 -0.76161093259E+02  0.17661013048E+03  0.00000000000E+00 0.  1.
</event>
<event>
12    1  0.1032880E+000  0.2344322E+03  0.7818608E-02  0.1123638E+00
         21   -1    0    0  501  502  0.00000000000E+00  0.00000000000E+00  0.25164861445E+03  0.25164861445E+03  0.00000000000E+00 0. -1.
         21   -1    0    0  502  503 -0.00000000000E+00 -0.00000000000E+00 -0.21950034022E+03  0.21950034022E+03  0.00000000000E+00 0. -1.
         -6    2    1    2    0  503  0.15086619322E+03  0.49362343376E+02 -0.36182739169E+01  0.23446016192E+03  0.17251442381E+03 0.  0.
        -24    2    3    3    0    0  0.19010736777E+02  0.41285225674E+02  0.30523321357E+02  0.97936025773E+02  0.81202918826E+02 0.  0.
          6    2    1    2  501    0 -0.15086619322E+03 -0.49362343376E+02  0.35766548148E+02  0.23668879274E+03  0.17188685070E+03 0.  0.
         24    2    5    5    0    0 -0.18521600556E+02  0.11745427854E+02  0.34258926305E+02  0.90834023075E+02  0.81216629785E+02 0.  0.
          5    1    5    5  501    0 -0.13234459266E+03 -0.61107771230E+02  0.15076218430E+01  0.14585476967E+03  0.47000000000E+01 0. -1.
        -13    1    6    6    0    0 -0.42494952852E+02 -0.59661821060E+01 -0.31211711059E+01  0.43025086356E+02  0.00000000000E+00 0.  1.
         14    1    6    6    0    0  0.23973352297E+02  0.17711609960E+02  0.37380097411E+02  0.47808936719E+02  0.00000000000E+00 0. -1.
         -5    1    3    3    0  503  0.13185545644E+03  0.80771177017E+01 -0.34141595274E+02  0.13652413615E+03  0.47000000000E+01 0.  1.
         13    1    4    4    0    0 -0.57634377652E+01  0.13620251109E+02 -0.26230123449E+02  0.30112253840E+02  0.00000000000E+00 0. -1.
        -14    1    4    4    0    0  0.24774174542E+02  0.27664974565E+02  0.56753444806E+02  0.67823771934E+02  0.00000000000E+00 0.  1.
</event>
<event>
12    1  0.1032880E+000  0.1966104E+03  0.7818608E-02  0.1152819E+00
         21   -1    0    0  503  502  0.00000000000E+00  0.00000000000E+00  0.95366574549E+02  0.95366574549E+02  0.00000000000E+00 0. -1.
         21   -1    0    0  501  503 -0.00000000000E+00 -0.00000000000E+00 -0.46929568574E+03  0.46929568574E+03  0.00000000000E+00 0. -1.
          6    2    1    2  501    0  0.80944017149E+02  0.39023516646E+02 -0.29300455716E+03  0.35285596926E+03  0.17487394248E+03 0.  0.
         24    2    3    3    0    0  0.56270093812E+02  0.49069894822E+02 -0.30493942319E+03  0.32328802657E+03  0.77155157132E+02 0.  0.
         -6    2    1    2    0  502 -0.80944017149E+02 -0.39023516646E+02 -0.80924554028E+02  0.21180629103E+03  0.17389178448E+03 0.  0.
        -24    2    5    5    0    0 -0.11783870804E+03 -0.12270794280E+02 -0.35650223657E+02  0.14739525657E+03  0.80111732634E+02 0.  0.
          5    1    3    3  501    0  0.24673923336E+02 -0.10046378176E+02  0.11934866034E+02  0.29567942683E+02  0.47000000000E+01 0. -1.
        -13    1    4    4    0    0  0.63165407765E+02  0.28046566538E+02 -0.28578619165E+03  0.29402419283E+03  0.00000000000E+00 0.  1.
         14    1    4    4    0    0 -0.68953139528E+01  0.21023328284E+02 -0.19153231543E+02  0.29263833740E+02  0.00000000000E+00 0. -1.
         -5    1    5    5    0  502  0.36894690894E+02 -0.26752722366E+02 -0.45274330371E+02  0.64411034464E+02  0.47000000000E+01 0.  1.
         13    1    6    6    0    0  0.71450829347E+01  0.10686860973E+02  0.52711280138E+01  0.13894099400E+02  0.00000000000E+00 0. -1.
        -14    1    6    6    0    0 -0.12498379098E+03 -0.22957655253E+02 -0.40921351671E+02  0.13350115717E+03  0.00000000000E+00 0.  1.
</event>
<event>
12    1  0.1032880E+000  0.2498166E+03  0.7818608E-02  0.1113691E+00
         21   -1    0    0  503  502  0.00000000000E+00  0.00000000000E+00  0.34957978910E+03  0.34957978910E+03  0.00000000000E+00 0. -1.
         21   -1    0    0  501  503 -0.00000000000E+00 -0.00000000000E+00 -0.21277938579E+03  0.21277938579E+03  0.00000000000E+00 0. -1.
          6    2    1    2  501    0 -0.28417104526E+02  0.17784352884E+03  0.18300775154E+03  0.30830511919E+03  0.17065859726E+03 0.  0.
         24    2    3    3    0    0  0.41382596240E+02  0.62495900485E+02  0.11735139553E+03  0.15827205391E+03  0.75235870214E+02 0.  0.
         -6    2    1    2    0  502  0.28417104526E+02 -0.17784352884E+03 -0.46207348231E+02  0.25405405569E+03  0.17312565265E+03 0.  0.
        -24    2    5    5    0    0 -0.19802596653E+01 -0.65233514972E+02 -0.81929523650E+02  0.13197547940E+03  0.80285412211E+02 0.  0.
          5    1    3    3  501    0 -0.69799700766E+02  0.11534762835E+03  0.65656356008E+02  0.15003306528E+03  0.47000000000E+01 0. -1.
        -11    1    4    4    0    0 -0.21052816791E+02  0.15827211336E+02  0.43742455447E+02  0.51060005112E+02  0.00000000000E+00 0.  1.
         12    1    4    4    0    0  0.62435413031E+02  0.46668689149E+02  0.73608940087E+02  0.10721204880E+03  0.00000000000E+00 0. -1.
         -5    1    5    5    0  502  0.30397364192E+02 -0.11261001386E+03  0.35722175419E+02  0.12207857629E+03  0.47000000000E+01 0.  1.
         11    1    6    6    0    0  0.29675816528E+02 -0.38618132999E+01 -0.43933181086E+02  0.53157239290E+02  0.00000000000E+00 0. -1.
        -12    1    6    6    0    0 -0.31656076194E+02 -0.61371701672E+02 -0.37996342563E+02  0.78818240112E+02  0.00000000000E+00 0.  1.
</event>
<event>
12    1  0.1032880E+000  0.1739374E+03  0.7818608E-02  0.1174367E+00
         21   -1    0    0  501  502  0.00000000000E+00  0.00000000000E+00  0.30766961684E+02  0.30766961684E+02  0.00000000000E+00 0. -1.
         21   -1    0    0  502  503 -0.00000000000E+00 -0.00000000000E+00 -0.10831388520E+04  0.10831388520E+04  0.00000000000E+00 0. -1.
         -6    2    1    2    0  503  0.11394041718E+02 -0.37401358619E+01 -0.70248855610E+03  0.72317244255E+03  0.17130206483E+03 0.  0.
        -24    2    3    3    0    0  0.43977352248E+02 -0.33228394172E+02 -0.23658146853E+03  0.25517379538E+03  0.78132841425E+02 0.  0.
          6    2    1    2  501    0 -0.11394041718E+02  0.37401358619E+01 -0.34988333420E+03  0.39073337112E+03  0.17352350547E+03 0.  0.
         24    2    5    5    0    0  0.48586987306E+02 -0.36070168611E+02 -0.22878982009E+03  0.24977836643E+03  0.79891790336E+02 0.  0.
          5    1    5    5  501    0 -0.59981029024E+02  0.39810304473E+02 -0.12109351412E+03  0.14095500469E+03  0.47000000000E+01 0. -1.
        -13    1    6    6    0    0  0.52208586053E+02 -0.29989352908E+02 -0.23359115121E+03  0.24122587687E+03  0.00000000000E+00 0.  1.
         14    1    6    6    0    0 -0.36215987475E+01 -0.60808157031E+01  0.48013311288E+01  0.85524895622E+01  0.00000000000E+00 0. -1.
         -5    1    3    3    0  503 -0.32583310530E+02  0.29488258310E+02 -0.46590708757E+03  0.46799864717E+03  0.47000000000E+01 0.  1.
         11    1    4    4    0    0  0.52303094930E+02 -0.33174496709E+02 -0.23868181331E+03  0.24658704138E+03  0.00000000000E+00 0. -1.
        -12    1    4    4    0    0 -0.83257426819E+01 -0.53897463240E-01  0.21003447808E+01  0.85867540049E+01  0.00000000000E+00 0.  1.
</event>
<event>
12    1  0.1032880E+000  0.2166351E+03  0.7818608E-02  0.1136564E+00
         21   -1    0    0  501  502  0.00000000000E+00  0.00000000000E+00  0.91928559935E+03  0.91928559935E+03  0.00000000000E+00 0.  1.
         21   -1    0    0  502  503 -0.00000000000E+00 -0.00000000000E+00 -0.95948390457E+02  0.95948390457E+02  0.00000000000E+00 0.  1.
         -6    2    1    2    0  503 -0.91747901033E+02  0.91878724331E+02  0.75921845059E+03  0.78930931015E+03  0.17244464052E+03 0.  0.
        -24    2    3    3    0    0  0.30208012183E+01 -0.14240529885E+00  0.35078374305E+03  0.36001920364E+03  0.80965715471E+02 0.  0.
          6    2    1    2  501    0  0.91747901033E+02 -0.91878724331E+02  0.64118758302E+02  0.22592467965E+03  0.17341098115E+03 0.  0.
         24    2    5    5    0    0  0.10565841302E+02  0.13758781303E+02  0.20327828770E+02  0.85605240773E+02  0.81327089952E+02 0.  0.
          5    1    5    5  501    0  0.81182059731E+02 -0.10563750563E+03  0.43790929532E+02  0.14031943888E+03  0.47000000000E+01 0. -1.
        -13    1    6    6    0    0  0.21203611482E+02 -0.56839163182E+01 -0.26132686159E+02  0.34129420307E+02  0.00000000000E+00 0.  1.
         14    1    6    6    0    0 -0.10637770180E+02  0.19442697621E+02  0.46460514929E+02  0.51475820466E+02  0.00000000000E+00 0. -1.
         -5    1    3    3    0  503 -0.94768702252E+02  0.92021129630E+02  0.40843470754E+03  0.42929010651E+03  0.47000000000E+01 0.  1.
         13    1    4    4    0    0 -0.25153181838E+02  0.19700021933E+02  0.27400975955E+03  0.27586613012E+03  0.00000000000E+00 0. -1.
        -14    1    4    4    0    0  0.28173983056E+02 -0.19842427231E+02  0.76773983500E+02  0.84153073516E+02  0.00000000000E+00 0.  1.
</event>
<event>
12    1  0.1032880E+000  0.2598410E+03  0.7818608E-02  0.1107346E+00
         21   -1    0    0  503  502  0.00000000000E+00  0.00000000000E+00  0.85499612208E+03  0.85499612208E+03  0.00000000000E+00 0. -1.
         21   -1    0    0  501  503 -0.00000000000E+00 -0.00000000000E+00 -0.22208568647E+03  0.22208568647E+03  0.00000000000E+00 0. -1.
          6    2    1    2  501    0 -0.18665813117E+03  0.56101332400E+02  0.74894806287E+03  0.79250835236E+03  0.17075617193E+03 0.  0.
         24    2    3    3    0    0 -0.10355777630E+03 -0.21417277457E+02  0.28047279993E+03  0.31042333305E+03  0.80713947963E+02 0.  0.
         -6    2    1    2    0  502  0.18665813117E+03 -0.56101332400E+02 -0.11603762726E+03  0.28457345618E+03  0.17183917945E+03 0.  0.
        -24    2    5    5    0    0  0.40767851767E+02  0.24520502213E+02 -0.40117223193E+02  0.10135268336E+03  0.79998137854E+02 0.  0.
          5    1    3    3  501    0 -0.83100354873E+02  0.77518609857E+02  0.46847526294E+03  0.48208501931E+03  0.47000000000E+01 0. -1.
        -11    1    4    4    0    0 -0.10177871817E+03 -0.54460746748E+01  0.16575118987E+03  0.19458166446E+03  0.00000000000E+00 0.  1.
         12    1    4    4    0    0 -0.17790581285E+01 -0.15971202782E+02  0.11472161006E+03  0.11584166859E+03  0.00000000000E+00 0. -1.
         -5    1    5    5    0  502  0.14589027941E+03 -0.80621834613E+02 -0.75920404069E+02  0.18322077283E+03  0.47000000000E+01 0.  1.
         13    1    6    6    0    0  0.36252556122E+01  0.54283506255E+01 -0.56216927114E+02  0.56594631927E+02  0.00000000000E+00 0. -1.
        -14    1    6    6    0    0  0.37142596154E+02  0.19092151588E+02  0.16099703921E+02  0.44758051429E+02  0.00000000000E+00 0.  1.
</event>
<event>
12    1  0.1032880E+000  0.2056109E+03  0.7818608E-02  0.1145421E+00
         21   -1    0    0  503  502  0.00000000000E+00  0.00000000000E+00  0.11489337750E+03  0.11489337750E+03  0.00000000000E+00 0. -1.
         21   -1    0    0  501  503 -0.00000000000E+00 -0.00000000000E+00 -0.36768071708E+03  0.36768071708E+03  0.00000000000E+00 0. -1.
          6    2    1    2  501    0 -0.97031943716E+02  0.57785477741E+02 -0.14625519293E+03  0.25100345680E+03  0.16987582032E+03 0.  0.
         24    2    3    3    0    0  0.21052148703E+01  0.41953814560E+02 -0.11227864158E+03  0.14491239302E+03  0.81415930940E+02 0.  0.
         -6    2    1    2    0  502  0.97031943716E+02 -0.57785477741E+02 -0.10653214665E+03  0.23157063778E+03  0.17181822509E+03 0.  0.
        -24    2    5    5    0    0  0.24643485437E+02 -0.27539392480E+02 -0.12243487290E+03  0.15138397263E+03  0.81000552793E+02 0.  0.
          5    1    3    3  501    0 -0.99137158587E+02  0.15831663182E+02 -0.33976551349E+02  0.10609106378E+03  0.47000000000E+01 0. -1.
        -11    1    4    4    0    0 -0.14530645516E+02  0.59103921464E+02 -0.10226357309E+03  0.11900525859E+03  0.00000000000E+00 0.  1.
         12    1    4    4    0    0  0.16635860386E+02 -0.17150106904E+02 -0.10015068493E+02  0.25907134433E+02  0.00000000000E+00 0. -1.
         -5    1    5    5    0  502  0.72388458280E+02 -0.30246085262E+02  0.15902726254E+02  0.80186665151E+02  0.47000000000E+01 0.  1.
         13    1    6    6    0    0 -0.16875460988E+02 -0.40982918358E+02 -0.49979468249E+02  0.66800658883E+02  0.00000000000E+00 0. -1.
        -14    1    6    6    0    0  0.41518946425E+02  0.13443525879E+02 -0.72455404654E+02  0.84583313743E+02  0.00000000000E+00 0.  1.
</event>
<event>
12    1  0.1032880E+000  0.2732169E+03  0.7818608E-02  0.1100492E+00
         21   -1    0    0  503  502  0.00000000000E+00  0.00000000000E+00  0.50233951196E+03  0.50233951196E+03  0.00000000000E+00 0.  1.
         21   -1    0    0  501  503 -0.00000000000E+00 -0.00000000000E+00 -0.18492238005E+03  0.18492238005E+03  0.00000000000E+00 0.  1.
          6    2    1    2  501    0 -0.20154930209E+03  0.25271919409E+02  0.31734041267E+03  0.41404493273E+03  0.17166093825E+03 0.  0.
         24    2    3    3    0    0 -0.14961400609E+03 -0.15679390559E+02  0.30080875370E+03  0.34570994530E+03  0.79995411560E+02 0.  0.
         -6    2    1    2    0  502  0.20154930209E+03 -0.25271919409E+02  0.76719240187E-01  0.27321695929E+03  0.18272030504E+03 0.  0.
        -24    2    5    5    0    0  0.15939828346E+02 -0.29997066898E+02  0.16791349322E+02  0.86737275088E+02  0.78022453995E+02 0.  0.
          5    1    3    3  501    0 -0.51935296000E+02  0.40951309968E+02  0.16531658971E+02  0.68334987430E+02  0.47000000000E+01 0. -1.
        -11    1    4    4    0    0 -0.42924247097E+02 -0.42311077167E+02  0.11339366388E+03  0.12841667045E+03  0.00000000000E+00 0.  1.
         12    1    4    4    0    0 -0.10668975899E+03  0.26631686608E+02  0.18741508982E+03  0.21729327485E+03  0.00000000000E+00 0. -1.
         -5    1    5    5    0  502  0.18560947374E+03  0.47251474890E+01 -0.16714630082E+02  0.18647968420E+03  0.47000000000E+01 0.  1.
         13    1    6    6    0    0  0.43932662021E+02 -0.29385333721E+02 -0.22076609466E+01  0.52900381823E+02  0.00000000000E+00 0. -1.
        -14    1    6    6    0    0 -0.27992833675E+02 -0.61173317726E+00  0.18999010268E+02  0.33836893265E+02  0.00000000000E+00 0.  1.
</event>
<event>
12    1  0.1032880E+000  0.1974982E+03  0.7818608E-02  0.1152234E+00
         21   -1    0    0  503  502  0.00000000000E+00  0.00000000000E+00  0.26377673701E+03  0.26377673701E+03  0.00000000000E+00 0. -1.
         21   -1    0    0  501  503 -0.00000000000E+00 -0.00000000000E+00 -0.24949797840E+03  0.24949797840E+03  0.00000000000E+00 0. -1.
          6    2    1    2  501    0  0.97034902681E+02 -0.96044430242E+01  0.17193186691E+03  0.26056923962E+03  0.16978734969E+03 0.  0.
         24    2    3    3    0    0  0.13297315694E+03  0.11565269675E+00  0.15754140214E+03  0.22037951636E+03  0.77884298805E+02 0.  0.
         -6    2    1    2    0  502 -0.97034902681E+02  0.96044430242E+01 -0.15765310830E+03  0.25270547579E+03  0.17174847095E+03 0.  0.
        -24    2    5    5    0    0 -0.80213601201E+02  0.70981909450E+02 -0.12517133580E+03  0.18110027267E+03  0.75211649167E+02 0.  0.
          5    1    3    3  501    0 -0.35938254257E+02 -0.97200957209E+01  0.14390464772E+02  0.40189723266E+02  0.47000000000E+01 0. -1.
        -13    1    4    4    0    0  0.41563560941E+02 -0.36802504065E+02  0.55930744230E+02  0.78804835218E+02  0.00000000000E+00 0.  1.
         14    1    4    4    0    0  0.91409595997E+02  0.36918156762E+02  0.10161065791E+03  0.14157468114E+03  0.00000000000E+00 0. -1.
         -5    1    5    5    0  502 -0.16821301480E+02 -0.61377466426E+02 -0.32481772508E+02  0.71605203118E+02  0.47000000000E+01 0.  1.
         13    1    6    6    0    0 -0.14119559016E+02  0.14502801984E+02  0.82465284819E+01  0.21856313601E+02  0.00000000000E+00 0. -1.
        -14    1    6    6    0    0 -0.66094042184E+02  0.56479107466E+02 -0.13341786428E+03  0.15924395907E+03  0.00000000000E+00 0.  1.
</event>
<event>
12    1  0.1032880E+000  0.3437332E+03  0.7818608E-02  0.1065830E+00
         21   -1    0    0  503  502  0.00000000000E+00  0.00000000000E+00  0.70912564250E+03  0.70912564250E+03  0.00000000000E+00 0.  1.
         21   -1    0    0  501  503 -0.00000000000E+00 -0.00000000000E+00 -0.28909607690E+03  0.28909607690E+03  0.00000000000E+00 0.  1.
          6    2    1    2  501    0 -0.21376236745E+03  0.20653515373E+03 -0.11751713995E+03  0.36326682560E+03  0.17263078793E+03 0.  0.
         24    2    3    3    0    0 -0.10860462830E+03  0.17141448328E+03 -0.12754023440E+03  0.25184795818E+03  0.77349804683E+02 0.  0.
         -6    2    1    2    0  502  0.21376236745E+03 -0.20653515373E+03  0.53754670555E+03  0.63495489379E+03  0.16081087352E+03 0.  0.
        -24    2    5    5    0    0  0.14670025186E+03 -0.11186914537E+03  0.22302542385E+03  0.29968678149E+03  0.77692713520E+02 0.  0.
          5    1    3    3  501    0 -0.10515773915E+03  0.35120670452E+02  0.10023094449E+02  0.11141886742E+03  0.47000000000E+01 0. -1.
        -13    1    4    4    0    0 -0.15663601188E+02  0.58414979793E+02 -0.75096914017E+02  0.96422013883E+02  0.00000000000E+00 0.  1.
         14    1    4    4    0    0 -0.92941027114E+02  0.11299950349E+03 -0.52443320380E+02  0.15542594430E+03  0.00000000000E+00 0. -1.
         -5    1    5    5    0  502  0.67062115587E+02 -0.94666008365E+02  0.31452128170E+03  0.33526811231E+03  0.47000000000E+01 0.  1.
         13    1    6    6    0    0  0.12468933750E+03 -0.12277705856E+03  0.18725018328E+03  0.25628942260E+03  0.00000000000E+00 0. -1.
        -14    1    6    6    0    0  0.22010914358E+02  0.10907913193E+02  0.35775240568E+02  0.43397358892E+02  0.00000000000E+00 0.  1.
</event>
<event>
12    1  0.1032880E+000  0.1968367E+03  0.7818608E-02  0.1153172E+00
         21   -1    0    0  501  502  0.00000000000E+00  0.00000000000E+00  0.11942412689E+03  0.11942412689E+03  0.00000000000E+00 0.  1.
         21   -1    0    0  502  503 -0.00000000000E+00 -0.00000000000E+00 -0.36525834449E+03  0.36525834449E+03  0.00000000000E+00 0.  1.
         -6    2    1    2    0  503  0.86973884219E+02 -0.31485085480E+02 -0.37487357384E+02  0.20037466313E+03  0.17374963746E+03 0.  0.
        -24    2    3    3    0    0  0.58579087023E+02 -0.83378224741E+02  0.20005685091E+01  0.12909669528E+03  0.79237091441E+02 0.  0.
          6    2    1    2  501    0 -0.86973884219E+02  0.31485085480E+02 -0.20834686022E+03  0.28430780825E+03  0.16990217339E+03 0.  0.
         24    2    5    5    0    0  0.80646042579E+00  0.53080010427E+02 -0.14229455368E+03  0.17225100618E+03  0.81268267111E+02 0.  0.
          5    1    5    5  501    0 -0.87780344645E+02 -0.21594924947E+02 -0.66052306541E+02  0.11205680206E+03  0.47000000000E+01 0. -1.
        -11    1    6    6    0    0 -0.11837412790E+02  0.70018663753E+02 -0.12907662632E+03  0.14732112231E+03  0.00000000000E+00 0.  1.
         12    1    6    6    0    0  0.12643873216E+02 -0.16938653326E+02 -0.13217927355E+02  0.24929883874E+02  0.00000000000E+00 0. -1.
         -5    1    3    3    0  503  0.28394797196E+02  0.51893139261E+02 -0.39487925893E+02  0.71277967854E+02  0.47000000000E+01 0.  1.
         11    1    4    4    0    0  0.75277037860E+02 -0.52296508408E+02  0.11954842848E+02  0.92436332079E+02  0.00000000000E+00 0. -1.
        -12    1    4    4    0    0 -0.16697950836E+02 -0.31081716332E+02 -0.99542743386E+01  0.36660363199E+02  0.00000000000E+00 0.  1.
</event>
<event>
12    1  0.1032880E+000  0.1841253E+03  0.7818608E-02  0.1166623E+00
         21   -1    0    0  501  502  0.00000000000E+00  0.00000000000E+00  0.12090724481E+03  0.12090724481E+03  0.00000000000E+00 0.  1.
         21   -1    0    0  502  503 -0.00000000000E+00 -0.00000000000E+00 -0.26816128043E+03  0.26816128043E+03  0.00000000000E+00 0.  1.
         -6    2    1    2    0  503 -0.31741323053E+02  0.54785462657E+02 -0.97225142987E+02  0.19826755129E+03  0.16077417379E+03 0.  0.
        -24    2    3    3    0    0  0.36079903525E+02  0.13430732953E+02 -0.32023449027E+02  0.95392465196E+02  0.81191607340E+02 0.  0.
          6    2    1    2  501    0  0.31741323053E+02 -0.54785462657E+02 -0.50028892627E+02  0.19080097395E+03  0.17289639399E+03 0.  0.
         24    2    5    5    0    0 -0.45729675117E+02 -0.53533535545E+02 -0.21282526107E+02  0.10802557624E+03  0.79117233200E+02 0.  0.
          5    1    5    5  501    0  0.77470998170E+02 -0.12519271116E+01 -0.28746366520E+02  0.82775397716E+02  0.47000000000E+01 0. -1.
        -11    1    6    6    0    0 -0.58983617197E+02 -0.13362991699E+02  0.42581385240E+00  0.60479897174E+02  0.00000000000E+00 0.  1.
         12    1    6    6    0    0  0.13253942080E+02 -0.40170543847E+02 -0.21708339960E+02  0.47545679062E+02  0.00000000000E+00 0. -1.
         -5    1    3    3    0  503 -0.67821226578E+02  0.41354729704E+02 -0.65201693959E+02  0.10287508609E+03  0.47000000000E+01 0.  1.
         13    1    4    4    0    0  0.94928202650E+01  0.42800713839E+02 -0.34368719744E+02  0.55706585235E+02  0.00000000000E+00 0. -1.
        -14    1    4    4    0    0  0.26587083260E+02 -0.29369980886E+02  0.23452707163E+01  0.39685879961E+02  0.00000000000E+00 0.  1.
</event>
<event>
12    1  0.1032880E+000  0.1726607E+03  0.7818608E-02  0.1175211E+00
         21   -1    0    0  503  502  0.00000000000E+00  0.00000000000E+00  0.34268025441E+02  0.34268025441E+02  0.00000000000E+00 0. -1.
         21   -1    0    0  501  503 -0.00000000000E+00 -0.00000000000E+00 -0.87085453474E+03  0.87085453474E+03  0.00000000000E+00 0. -1.
          6    2    1    2  501    0  0.50211900951E+00  0.15892673954E+02 -0.39099281803E+03  0.42724658623E+03  0.17149761657E+03 0.  0.
         24    2    3    3    0    0  0.62151500212E+02  0.16912807393E+02 -0.17874987180E+03  0.20617907370E+03  0.80058989063E+02 0.  0.
         -6    2    1    2    0  502 -0.50211900951E+00 -0.15892673954E+02 -0.44559369127E+03  0.47787597395E+03  0.17192695998E+03 0.  0.
        -24    2    5    5    0    0 -0.43142701025E+02 -0.22959563713E+02 -0.13095401406E+03  0.16024666698E+03  0.78368400929E+02 0.  0.
          5    1    3    3  501    0 -0.61649381202E+02 -0.10201334387E+01 -0.21224294622E+03  0.22106751253E+03  0.47000000000E+01 0. -1.
        -13    1    4    4    0    0  0.79053705299E+02  0.32656553078E+01 -0.15477523006E+03  0.17382613344E+03  0.00000000000E+00 0.  1.
         14    1    4    4    0    0 -0.16902205087E+02  0.13647152085E+02 -0.23974641741E+02  0.32352940260E+02  0.00000000000E+00 0. -1.
         -5    1    5    5    0  502  0.42640582015E+02  0.70668897584E+01 -0.31463967721E+03  0.31762930696E+03  0.47000000000E+01 0.  1.
         11    1    6    6    0    0  0.15157008129E+02  0.61035803429E+01 -0.29271874167E+01  0.16599910078E+02  0.00000000000E+00 0. -1.
        -12    1    6    6    0    0 -0.58299709154E+02 -0.29063144056E+02 -0.12802682664E+03  0.14364675691E+03  0.00000000000E+00 0.  1.
</event>
<event>
12    1  0.1032880E+000  0.3419890E+03  0.7818608E-02  0.1066070E+00
         21   -1    0    0  503  502  0.00000000000E+00  0.00000000000E+00  0.16362340092E+04  0.16362340092E+04  0.00000000000E+00 0. -1.
         21   -1    0    0  501  503 -0.00000000000E+00 -0.00000000000E+00 -0.74076409909E+02  0.74076409909E+02  0.00000000000E+00 0. -1.
          6    2    1    2  501    0  0.62181051305E+02 -0.28736604030E+03  0.61515737027E+03  0.70382886074E+03  0.17467326857E+03 0.  0.
         24    2    3    3    0    0  0.19217262763E+02 -0.28789602809E+03  0.52340201650E+03  0.60240251821E+03  0.75403560225E+02 0.  0.
         -6    2    1    2    0  502 -0.62181051305E+02  0.28736604030E+03  0.94700022899E+03  0.10064815583E+04  0.17248179416E+03 0.  0.
        -24    2    5    5    0    0 -0.28252339059E+02  0.25811737083E+03  0.90501595639E+03  0.94490712107E+03  0.79829908745E+02 0.  0.
          5    1    3    3  501    0  0.42963788541E+02  0.52998778827E+00  0.91755353772E+02  0.10142634253E+03  0.47000000000E+01 0. -1.
        -11    1    4    4    0    0  0.45541377214E+02 -0.12363541916E+03  0.23961116282E+03  0.27344696607E+03  0.00000000000E+00 0.  1.
         12    1    4    4    0    0 -0.26324114451E+02 -0.16426060893E+03  0.28379085368E+03  0.32895555214E+03  0.00000000000E+00 0. -1.
         -5    1    5    5    0  502 -0.33928712245E+02  0.29248669466E+02  0.41984272596E+02  0.61574437273E+02  0.47000000000E+01 0.  1.
         11    1    6    6    0    0 -0.21562522947E+02  0.78490726575E+02  0.41629065422E+03  0.42417407434E+03  0.00000000000E+00 0. -1.
        -12    1    6    6    0    0 -0.66898161127E+01  0.17962664426E+03  0.48872530218E+03  0.52073304673E+03  0.00000000000E+00 0.  1.
</event>
<event>
12    1  0.1032880E+000  0.2076293E+03  0.7818608E-02  0.1143578E+00
         21   -1    0    0  501  502  0.00000000000E+00  0.00000000000E+00  0.45244666642E+03  0.45244666642E+03  0.00000000000E+00 0. -1.
         21   -1    0    0  502  503 -0.00000000000E+00 -0.00000000000E+00 -0.11335650635E+03  0.11335650635E+03  0.00000000000E+00 0. -1.
         -6    2    1    2    0  503  0.11239567576E+03 -0.32501927601E+02  0.28316357255E+03  0.35077360533E+03  0.17079622404E+03 0.  0.
        -24    2    3    3    0    0  0.87745694723E+02  0.40009698171E+02  0.13698371288E+03  0.18567909054E+03  0.80075615388E+02 0.  0.
          6    2    1    2  501    0 -0.11239567576E+03  0.32501927601E+02  0.55926587511E+02  0.21502956744E+03  0.17152483336E+03 0.  0.
         24    2    5    5    0    0 -0.13666386256E+03 -0.10082657144E+02  0.44092344299E+02  0.16438836820E+03  0.79377134420E+02 0.  0.
          5    1    5    5  501    0  0.24268186802E+02  0.42584584745E+02  0.11834243212E+02  0.50641199245E+02  0.47000000000E+01 0. -1.
        -13    1    6    6    0    0 -0.61209466091E+02  0.15265446787E+02 -0.15492417229E+02  0.64958814616E+02  0.00000000000E+00 0.  1.
         14    1    6    6    0    0 -0.75454396467E+02 -0.25348103931E+02  0.59584761528E+02  0.99429553582E+02  0.00000000000E+00 0. -1.
         -5    1    3    3    0  503  0.24649981032E+02 -0.72511625772E+02  0.14617985968E+03  0.16509451479E+03  0.47000000000E+01 0.  1.
         11    1    4    4    0    0  0.82483208232E+02 -0.24824424295E+01  0.91347868385E+02  0.12310188958E+03  0.00000000000E+00 0. -1.
        -12    1    4    4    0    0  0.52624864910E+01  0.42492140601E+02  0.45635844490E+02  0.62577200954E+02  0.00000000000E+00 0.  1.
</event>
<event>
12    1  0.1032880E+000  0.2004605E+03  0.7818608E-02  0.1152997E+00
         21   -1    0    0  501  502  0.00000000000E+00  0.00000000000E+00  0.15491870831E+03  0.15491870831E+03  0.00000000000E+00 0. -1.
         21   -1    0    0  502  503 -0.00000000000E+00 -0.00000000000E+00 -0.23880799108E+03  0.23880799108E+03  0.00000000000E+00 0. -1.
         -6    2    1    2    0  503 -0.59734873211E+02 -0.26871168427E+02 -0.35722164946E+02  0.20361844883E+03  0.18945734313E+03 0.  0.
        -24    2    3    3    0    0 -0.10022759718E+03  0.28045396323E+02 -0.32746658791E+02  0.13516091882E+03  0.79774775600E+02 0.  0.
          6    2    1    2  501    0  0.59734873211E+02  0.26871168427E+02 -0.48167117828E+02  0.19010825056E+03  0.17184516555E+03 0.  0.
         24    2    5    5    0    0  0.89924139691E+02 -0.21366026736E+02 -0.51048681318E+02  0.13293647242E+03  0.80766823865E+02 0.  0.
          5    1    5    5  501    0 -0.30189266480E+02  0.48237195163E+02  0.28815634901E+01  0.57171778142E+02  0.47000000000E+01 0. -1.
        -13    1    6    6    0    0  0.87313734923E+02 -0.31118118059E+02 -0.66780611480E+02  0.11424393046E+03  0.00000000000E+00 0.  1.
         14    1    6    6    0    0  0.26104047689E+01  0.97520913234E+01  0.15731930162E+02  0.18692541958E+02  0.00000000000E+00 0. -1.
         -5    1    3    3    0  503  0.40492723971E+02 -0.54916564750E+02 -0.29755061546E+01  0.68457530013E+02  0.47000000000E+01 0.  1.
         11    1    4    4    0    0 -0.93476866585E+02 -0.73557158294E+01 -0.32125671560E+02  0.99116547130E+02  0.00000000000E+00 0. -1.
        -12    1    4    4    0    0 -0.67507305975E+01  0.35401112153E+02 -0.62098723145E+00  0.36044371688E+02  0.00000000000E+00 0.  1.
</event>
<event>
12    1  0.1032880E+000  0.2940275E+03  0.7818608E-02  0.1088313E+00
         21   -1    0    0  501  502  0.00000000000E+00  0.00000000000E+00  0.49555380393E+03  0.49555380393E+03  0.00000000000E+00 0. -1.
         21   -1    0    0  502  503 -0.00000000000E+00 -0.00000000000E+00 -0.17453053368E+03  0.17453053368E+03  0.00000000000E+00 0. -1.
         -6    2    1    2    0  503  0.21959943133E+03 -0.92118510713E+02  0.14680855970E+03  0.32864099319E+03  0.17245990533E+03 0.  0.
        -24    2    3    3    0    0  0.44235871122E+02 -0.40245421764E+02  0.10005814277E+02  0.10021096722E+03  0.79784806610E+02 0.  0.
          6    2    1    2  501    0 -0.21959943133E+03  0.92118510713E+02  0.17421471054E+03  0.34144334442E+03  0.17182276282E+03 0.  0.
         24    2    5    5    0    0 -0.11211045187E+03  0.90197270207E+00  0.14016695228E+03  0.19633759900E+03  0.79574564368E+02 0.  0.
          5    1    5    5  501    0 -0.10748897946E+03  0.91216538011E+02  0.34047758261E+02  0.14510574542E+03  0.47000000000E+01 0. -1.
        -11    1    6    6    0    0 -0.16262704728E+02  0.31852811808E+02  0.26805073847E+02  0.44694397514E+02  0.00000000000E+00 0.  1.
         12    1    6    6    0    0 -0.95847747140E+02 -0.30950839106E+02  0.11336187844E+03  0.15164320148E+03  0.00000000000E+00 0. -1.
         -5    1    3    3    0  503  0.17536356021E+03 -0.51873088949E+02  0.13680274543E+03  0.22843002596E+03  0.47000000000E+01 0.  1.
         11    1    4    4    0    0  0.47045984077E+02 -0.38393865365E+02  0.38250122818E+02  0.71766882411E+02  0.00000000000E+00 0. -1.
        -12    1    4    4    0    0 -0.28101129551E+01 -0.18515563989E+01 -0.28244308541E+02  0.28444084813E+02  0.00000000000E+00 0.  1.
</event>
<event>
12    1  0.1032880E+000  0.2745402E+03  0.7818608E-02  0.1098791E+00
         21   -1    0    0  503  502  0.00000000000E+00  0.00000000000E+00  0.46926696412E+02  0.46926696412E+02  0.00000000000E+00 0. -1.
         21   -1    0    0  501  503 -0.00000000000E+00 -0.00000000000E+00 -0.17835176134E+04  0.17835176134E+04  0.00000000000E+00 0. -1.
          6    2    1    2  501    0 -0.51122132086E+02  0.20687518900E+03 -0.11605011988E+04  0.11925331763E+04  0.17309398630E+03 0.  0.
         24    2    3    3    0    0 -0.40347784455E+02  0.36466786716E+02 -0.27536308347E+03  0.29106399588E+03  0.77043180877E+02 0.  0.
         -6    2    1    2    0  502  0.51122132086E+02 -0.20687518900E+03 -0.57608971826E+03  0.63791113352E+03  0.17216397583E+03 0.  0.
        -24    2    5    5    0    0  0.10051025090E+01 -0.13353418940E+03 -0.21137797459E+03  0.26250819687E+03  0.79984469195E+02 0.  0.
          5    1    3    3  501    0 -0.10774347631E+02  0.17040840228E+03 -0.88513811529E+03  0.90146918043E+03  0.47000000000E+01 0. -1.
        -11    1    4    4    0    0 -0.47724510687E+01  0.49572311053E+02 -0.20685035473E+03  0.21276103865E+03  0.00000000000E+00 0.  1.
         12    1    4    4    0    0 -0.35575333386E+02 -0.13105524337E+02 -0.68512728733E+02  0.78302957238E+02  0.00000000000E+00 0. -1.
         -5    1    5    5    0  502  0.50117029577E+02 -0.73340999593E+02 -0.36471174367E+03  0.37540293665E+03  0.47000000000E+01 0.  1.
         13    1    6    6    0    0 -0.13594365167E+02 -0.10812584171E+03 -0.20551878756E+03  0.23262410978E+03  0.00000000000E+00 0. -1.
        -14    1    6    6    0    0  0.14599467676E+02 -0.25408347688E+02 -0.58591870306E+01  0.29884087092E+02  0.00000000000E+00 0.  1.
</event>
<event>
12    1  0.1032880E+000  0.2263426E+03  0.7818608E-02  0.1129683E+00
         21   -1    0    0  501  502  0.00000000000E+00  0.00000000000E+00  0.26788356546E+03  0.26788356546E+03  0.00000000000E+00 0.  1.
         21   -1    0    0  502  503 -0.00000000000E+00 -0.00000000000E+00 -0.19583829836E+03  0.19583829836E+03  0.00000000000E+00 0.  1.
         -6    2    1    2    0  503  0.68750986911E+02 -0.12884708052E+03 -0.65390323452E+01  0.22643708249E+03  0.17292404409E+03 0.  0.
        -24    2    3    3    0    0  0.18398858430E+02 -0.35717841427E+02  0.52486546514E+02  0.10513373968E+03  0.81755632635E+02 0.  0.
          6    2    1    2  501    0 -0.68750986911E+02  0.12884708052E+03  0.78584299451E+02  0.23728478133E+03  0.16970653190E+03 0.  0.
         24    2    5    5    0    0 -0.92447395079E+02  0.35081280911E+02  0.40332243587E+02  0.13317496088E+03  0.79571748788E+02 0.  0.
          5    1    5    5  501    0  0.23696408168E+02  0.93765799607E+02  0.38252055863E+02  0.10410982045E+03  0.47000000000E+01 0. -1.
        -11    1    6    6    0    0 -0.23460840122E+02 -0.67377271625E+01  0.46239760377E+02  0.52286933609E+02  0.00000000000E+00 0.  1.
         12    1    6    6    0    0 -0.68986554957E+02  0.41819008074E+02 -0.59075167893E+01  0.80888027271E+02  0.00000000000E+00 0. -1.
         -5    1    3    3    0  503  0.50352128481E+02 -0.93129239091E+02 -0.59025578859E+02  0.12130334281E+03  0.47000000000E+01 0.  1.
         13    1    4    4    0    0  0.31928994365E+02 -0.55982664390E+02  0.27004842544E+02  0.69876898287E+02  0.00000000000E+00 0. -1.
        -14    1    4    4    0    0 -0.13530135935E+02  0.20264822963E+02  0.25481703970E+02  0.35256841398E+02  0.00000000000E+00 0.  1.
</event>
<event>
12    1  0.1032880E+000  0.2803545E+03  0.7818608E-02  0.1095617E+00
         21   -1    0    0  501  502  0.00000000000E+00  0.00000000000E+00  0.14669171637E+04  0.14669171637E+04  0.00000000000E+00 0. -1.
         21   -1    0    0  502  503 -0.00000000000E+00 -0.00000000000E+00 -0.68193902023E+02  0.68193902023E+02  0.00000000000E+00 0. -1.
         -6    2    1    2    0  503  0.16335336660E+03  0.14845724668E+03  0.34285883051E+03  0.44288918021E+03  0.17284320010E+03 0.  0.
        -24    2    3    3    0    0  0.59688832059E+02  0.66406603781E+02  0.68092062448E+02  0.13793424821E+03  0.80104520237E+02 0.  0.
          6    2    1    2  501    0 -0.16335336660E+03 -0.14845724668E+03  0.10558644311E+04  0.10922218855E+04  0.17139158007E+03 0.  0.
         24    2    5    5    0    0 -0.15763700376E+03 -0.10980080260E+03  0.60677887837E+03  0.64141491883E+03  0.79541496480E+02 0.  0.
          5    1    5    5  501    0 -0.57163628331E+01 -0.38656444074E+02  0.44908555277E+03  0.45080696665E+03  0.47000000000E+01 0. -1.
        -11    1    6    6    0    0 -0.58793101379E+02 -0.24345019659E+02  0.32009173829E+03  0.32635567970E+03  0.00000000000E+00 0.  1.
         12    1    6    6    0    0 -0.98843902385E+02 -0.85455782944E+02  0.28668714008E+03  0.31505923914E+03  0.00000000000E+00 0. -1.
         -5    1    3    3    0  503  0.10366453454E+03  0.82050642896E+02  0.27476676806E+03  0.30495493200E+03  0.47000000000E+01 0.  1.
         11    1    4    4    0    0  0.61363096968E+02  0.12650794802E+02  0.19950671701E+02  0.65753338926E+02  0.00000000000E+00 0. -1.
        -12    1    4    4    0    0 -0.16742649087E+01  0.53755808979E+02  0.48141390747E+02  0.72180909284E+02  0.00000000000E+00 0.  1.
</event>
<event>
12    1  0.1032880E+000  0.4402866E+03  0.7818608E-02  0.1030712E+00
         21   -1    0    0  501  502  0.00000000000E+00  0.00000000000E+00  0.12490852047E+04  0.12490852047E+04  0.00000000000E+00 0. -1.
         21   -1    0    0  502  503 -0.00000000000E+00 -0.00000000000E+00 -0.18276213918E+03  0.18276213918E+03  0.00000000000E+00 0.  1.
         -6    2    1    2    0  503  0.30989612203E+03 -0.26005734443E+03  0.25354058382E+03  0.50747313768E+03  0.17199049096E+03 0.  0.
        -24    2    3    3    0    0  0.90713194633E+02 -0.39681287637E+02  0.86023415815E+02  0.15435721670E+03  0.81379567529E+02 0.  0.
          6    2    1    2  501    0 -0.30989612203E+03  0.26005734443E+03  0.81278248169E+03  0.92437420620E+03  0.17374372421E+03 0.  0.
         24    2    5    5    0    0 -0.62238489957E+02  0.63824810294E+02  0.16270208296E+03  0.20155464020E+03  0.78772261271E+02 0.  0.
          5    1    5    5  501    0 -0.24765763207E+03  0.19623253414E+03  0.65008039873E+03  0.72281956600E+03  0.47000000000E+01 0. -1.
        -13    1    6    6    0    0 -0.43809080880E+02  0.81461919891E+02  0.13734567129E+03  0.16558717759E+03  0.00000000000E+00 0.  1.
         14    1    6    6    0    0 -0.18429409077E+02 -0.17637109598E+02  0.25356411670E+02  0.35967462611E+02  0.00000000000E+00 0. -1.
         -5    1    3    3    0  503  0.21918292739E+03 -0.22037605679E+03  0.16751716801E+03  0.35311592098E+03  0.47000000000E+01 0.  1.
         13    1    4    4    0    0  0.21914757942E+02 -0.49585087029E+02  0.18051348022E+02  0.57138328963E+02  0.00000000000E+00 0. -1.
        -14    1    4    4    0    0  0.68798436692E+02  0.99037993915E+01  0.67972067793E+02  0.97218887742E+02  0.00000000000E+00 0.  1.
</event>
<event>
12    1  0.1032880E+000  0.2222818E+03  0.7818608E-02  0.1132405E+00
         21   -1    0    0  503  502  0.00000000000E+00  0.00000000000E+00  0.13888904266E+04  0.13888904266E+04  0.00000000000E+00 0. -1.
         21   -1    0    0  501  503 -0.00000000000E+00 -0.00000000000E+00 -0.71504122182E+02  0.71504122182E+02  0.00000000000E+00 0. -1.
          6    2    1    2  501    0  0.82812322934E+02  0.11301607117E+03  0.14061030831E+03  0.26302179817E+03  0.17256504379E+03 0.  0.
         24    2    3    3    0    0  0.68427898596E+02 -0.13772549914E+01  0.91433393378E+02  0.13758973011E+03  0.76724143988E+02 0.  0.
         -6    2    1    2    0  502 -0.82812322934E+02 -0.11301607117E+03  0.11767759962E+04  0.11973727507E+04  0.17108256989E+03 0.  0.
        -24    2    5    5    0    0  0.15373918545E+02 -0.24930906553E+02  0.34864129491E+03  0.35878542208E+03  0.79487855105E+02 0.  0.
          5    1    3    3  501    0  0.14384424338E+02  0.11439332617E+03  0.49176914930E+02  0.12543206806E+03  0.47000000000E+01 0. -1.
        -11    1    4    4    0    0  0.24225450128E+02 -0.37920481394E+02  0.46732658630E+02  0.64875085554E+02  0.00000000000E+00 0.  1.
         12    1    4    4    0    0  0.44202448468E+02  0.36543226402E+02  0.44700734749E+02  0.72714644560E+02  0.00000000000E+00 0. -1.
         -5    1    5    5    0  502 -0.98186241479E+02 -0.88085164620E+02  0.82813470125E+03  0.83858732858E+03  0.47000000000E+01 0.  1.
         13    1    6    6    0    0  0.63897342359E+01  0.54311198463E+00 -0.22950202057E+01  0.68110786208E+01  0.00000000000E+00 0. -1.
        -14    1    6    6    0    0  0.89841843095E+01 -0.25474018538E+02  0.35093631512E+03  0.35197434346E+03  0.00000000000E+00 0.  1.
</event>
<event>
12    1  0.1032880E+000  0.2062087E+03  0.7818608E-02  0.1144650E+00
         21   -1    0    0  503  502  0.00000000000E+00  0.00000000000E+00  0.31412197090E+03  0.31412197090E+03  0.00000000000E+00 0.  1.
         21   -1    0    0  501  503 -0.00000000000E+00 -0.00000000000E+00 -0.13528457509E+03  0.13528457509E+03  0.00000000000E+00 0.  1.
          6    2    1    2  501    0 -0.10504266339E+03  0.45272191354E+02  0.84460497188E+02  0.22262689426E+03  0.17130565087E+03 0.  0.
         24    2    3    3    0    0 -0.13641546332E+03  0.59974201583E+02  0.57060059906E+02  0.17820532694E+03  0.79342325552E+02 0.  0.
         -6    2    1    2    0  502  0.10504266339E+03 -0.45272191354E+02  0.94376898619E+02  0.22677965173E+03  0.17157645236E+03 0.  0.
        -24    2    5    5    0    0  0.12199148463E+03 -0.20872569841E+01  0.32684161148E+02  0.14944734959E+03  0.79874757877E+02 0.  0.
          5    1    3    3  501    0  0.31372799930E+02 -0.14702010229E+02  0.27400437282E+02  0.44421567323E+02  0.47000000000E+01 0. -1.
        -11    1    4    4    0    0 -0.18802423413E+02  0.13890861206E+02  0.45755511988E+02  0.51381456076E+02  0.00000000000E+00 0.  1.
         12    1    4    4    0    0 -0.11761303991E+03  0.46083340377E+02  0.11304547919E+02  0.12682387086E+03  0.00000000000E+00 0. -1.
         -5    1    5    5    0  502 -0.16948821236E+02 -0.43184934370E+02  0.61692737471E+02  0.77332302141E+02  0.47000000000E+01 0.  1.
         13    1    6    6    0    0  0.11094532594E+03 -0.29236713499E+02  0.35246804528E+02  0.12002494738E+03  0.00000000000E+00 0. -1.
        -14    1    6    6    0    0  0.11046158692E+02  0.27149456515E+02 -0.25626433803E+01  0.29422402213E+02  0.00000000000E+00 0.  1.
</event>
<event>
12    1  0.1032880E+000  0.1783715E+03  0.7818608E-02  0.1169737E+00
         21   -1    0    0  503  502  0.00000000000E+00  0.00000000000E+00  0.35611087983E+03  0.35611087983E+03  0.00000000000E+00 0.  1.
         21   -1    0    0  501  503 -0.00000000000E+00 -0.00000000000E+00 -0.10687487499E+03  0.10687487499E+03  0.00000000000E+00 0.  1.
          6    2    1    2  501    0  0.11960588264E+02  0.44462420943E+02  0.28574605274E+02  0.17924671706E+03  0.17085934262E+03 0.  0.
         24    2    3    3    0    0  0.23399341517E+02  0.14529320226E+02  0.81159763096E+02  0.11748811913E+03  0.80361188780E+02 0.  0.
         -6    2    1    2    0  502 -0.11960588264E+02 -0.44462420943E+02  0.22066139957E+03  0.28373903776E+03  0.17232650910E+03 0.  0.
        -24    2    5    5    0    0  0.54041329393E+02 -0.42137975558E+01  0.90444965902E+02  0.13223123461E+03  0.79790890307E+02 0.  0.
          5    1    3    3  501    0 -0.11438753252E+02  0.29933100718E+02 -0.52585157822E+02  0.61758597925E+02  0.47000000000E+01 0. -1.
        -13    1    4    4    0    0  0.49604934560E+02  0.10941316371E+02  0.27738360548E+02  0.57877271726E+02  0.00000000000E+00 0.  1.
         14    1    4    4    0    0 -0.26205593043E+02  0.35880038546E+01  0.53421402548E+02  0.59610847407E+02  0.00000000000E+00 0. -1.
         -5    1    5    5    0  502 -0.66001917657E+02 -0.40248623387E+02  0.13021643366E+03  0.15150780315E+03  0.47000000000E+01 0.  1.
         11    1    6    6    0    0  0.17748351921E+02  0.35396105665E+02  0.55372844415E+02  0.68073784901E+02  0.00000000000E+00 0. -1.
        -12    1    6    6    0    0  0.36292977472E+02 -0.39609903221E+02  0.35072121486E+02  0.64157449704E+02  0.00000000000E+00 0.  1.
</event>
<event>
12    1  0.1032880E+000  0.2155134E+03  0.7818608E-02  0.1137985E+00
         21   -1    0    0  501  502  0.00000000000E+00  0.00000000000E+00  0.21787418264E+03  0.21787418264E+03  0.00000000000E+00 0.  1.
         21   -1    0    0  502  503 -0.00000000000E+00 -0.00000000000E+00 -0.25450519897E+03  0.25450519897E+03  0.00000000000E+00 0.  1.
         -6    2    1    2    0  503 -0.34606382118E+02 -0.12010984464E+03  0.80821959254E+02  0.23016996684E+03  0.17556209179E+03 0.  0.
        -24    2    3    3    0    0 -0.29013366948E+02 -0.14160984254E+03  0.11290466447E+02  0.15702456220E+03  0.60283625750E+02 0.  0.
          6    2    1    2  501    0  0.34606382118E+02  0.12010984464E+03 -0.11745297558E+03  0.24220941476E+03  0.17101527026E+03 0.  0.
         24    2    5    5    0    0  0.40200391411E+02  0.15364737761E+03 -0.95178327656E+02  0.20129109371E+03  0.78965829535E+02 0.  0.
          5    1    5    5  501    0 -0.55940092936E+01 -0.33537532969E+02 -0.22274647928E+02  0.40918321055E+02  0.47000000000E+01 0. -1.
        -11    1    6    6    0    0  0.22070839063E+02  0.22562158918E+02 -0.54267752602E+02  0.62778674122E+02  0.00000000000E+00 0.  1.
         12    1    6    6    0    0  0.18129552349E+02  0.13108521869E+03 -0.40910575054E+02  0.13851241959E+03  0.00000000000E+00 0. -1.
         -5    1    3    3    0  503 -0.55930151699E+01  0.21499997899E+02  0.69531492807E+02  0.73145404643E+02  0.47000000000E+01 0.  1.
         11    1    4    4    0    0 -0.76384805219E+01 -0.21581377041E+02 -0.20825689083E+02  0.30948530586E+02  0.00000000000E+00 0. -1.
        -12    1    4    4    0    0 -0.21374886426E+02 -0.12002846550E+03  0.32116155529E+02  0.12607603161E+03  0.00000000000E+00 0.  1.
</event>
<event>
12    1  0.1032880E+000  0.1909413E+03  0.7818608E-02  0.1157952E+00
         21   -1    0    0  501  502  0.00000000000E+00  0.00000000000E+00  0.13599585552E+03  0.13599585552E+03  0.00000000000E+00 0. -1.
         21   -1    0    0  502  503 -0.00000000000E+00 -0.00000000000E+00 -0.41635352434E+03  0.41635352434E+03  0.00000000000E+00 0. -1.
         -6    2    1    2    0  503 -0.58359106935E+02 -0.53860605795E+02  0.25435869895E+02  0.19262800358E+03  0.17364277718E+03 0.  0.
        -24    2    3    3    0    0  0.14040777095E+02 -0.33161107894E+02 -0.35966366971E+02  0.95352430528E+02  0.80633144279E+02 0.  0.
          6    2    1    2  501    0  0.58359106935E+02  0.53860605795E+02 -0.30579353872E+03  0.35972137627E+03  0.17199718023E+03 0.  0.
         24    2    5    5    0    0 -0.17251941128E+02  0.26900900106E+02 -0.82300806749E+02  0.12220306632E+03  0.84491885572E+02 0.  0.
          5    1    5    5  501    0  0.75611048063E+02  0.26959705689E+02 -0.22349273197E+03  0.23751830995E+03  0.47000000000E+01 0. -1.
        -11    1    6    6    0    0  0.28276102565E+02 -0.97914053753E+01 -0.40363789925E+02  0.50245846919E+02  0.00000000000E+00 0.  1.
         12    1    6    6    0    0 -0.45528043693E+02  0.36692305482E+02 -0.41937016824E+02  0.71957219403E+02  0.00000000000E+00 0. -1.
         -5    1    3    3    0  503 -0.72399884030E+02 -0.20699497901E+02  0.61402236865E+02  0.97275573054E+02  0.47000000000E+01 0.  1.
         11    1    4    4    0    0 -0.47743358709E+01 -0.17773027901E+02 -0.59037954658E+02  0.61839751730E+02  0.00000000000E+00 0. -1.
        -12    1    4    4    0    0  0.18815112966E+02 -0.15388079994E+02  0.23071587687E+02  0.33512678798E+02  0.00000000000E+00 0.  1.
</event>
<event>
12    1  0.1032880E+000  0.2148788E+03  0.7818608E-02  0.1137938E+00
         21   -1    0    0  501  502  0.00000000000E+00  0.00000000000E+00  0.13008784054E+03  0.13008784054E+03  0.00000000000E+00 0. -1.
         21   -1    0    0  502  503 -0.00000000000E+00 -0.00000000000E+00 -0.35582055852E+03  0.35582055852E+03  0.00000000000E+00 0. -1.
         -6    2    1    2    0  503  0.12741684589E+03 -0.15323720245E+02 -0.13263945336E+03  0.25173057512E+03  0.17118758379E+03 0.  0.
        -24    2    3    3    0    0  0.95455775840E+02  0.35422742429E+02 -0.31377925193E+02  0.13394814622E+03  0.81184702147E+02 0.  0.
          6    2    1    2  501    0 -0.12741684589E+03  0.15323720245E+02 -0.93093264626E+02  0.23417782394E+03  0.17234566512E+03 0.  0.
         24    2    5    5    0    0 -0.11283717746E+03  0.39750597007E+02 -0.68842079585E+01  0.14327496099E+03  0.78536510925E+02 0.  0.
          5    1    5    5  501    0 -0.14579668429E+02 -0.24426876762E+02 -0.86209056668E+02  0.90902862944E+02  0.47000000000E+01 0. -1.
        -13    1    6    6    0    0  0.24601892920E-01  0.75869938683E+01  0.21275980383E+02  0.22588280645E+02  0.00000000000E+00 0.  1.
         14    1    6    6    0    0 -0.11286177935E+03  0.32163603139E+02 -0.28160188342E+02  0.12068668035E+03  0.00000000000E+00 0. -1.
         -5    1    3    3    0  503  0.31961070050E+02 -0.50746462674E+02 -0.10126152816E+03  0.11778242890E+03  0.47000000000E+01 0.  1.
         11    1    4    4    0    0  0.95969627888E+02  0.16447534121E+02 -0.10943265859E+00  0.97368900739E+02  0.00000000000E+00 0. -1.
        -12    1    4    4    0    0 -0.51385204748E+00  0.18975208308E+02 -0.31268492534E+02  0.36579245476E+02  0.00000000000E+00 0.  1.
</event>
<event>
12    1  0.1032880E+000  0.1800469E+03  0.7818608E-02  0.1168125E+00
         21   -1    0    0  501  502  0.00000000000E+00  0.00000000000E+00  0.15729588312E+03  0.15729588312E+03  0.00000000000E+00 0. -1.
         21   -1    0    0  502  503 -0.00000000000E+00 -0.00000000000E+00 -0.20443505695E+03  0.20443505695E+03  0.00000000000E+00 0. -1.
         -6    2    1    2    0  503  0.32684609957E+02  0.43015271587E+02 -0.26876539314E+02  0.18054746163E+03  0.17016591967E+03 0.  0.
        -24    2    3    3    0    0 -0.30781941192E+02  0.57852895922E+02  0.18022765436E+02  0.10126192841E+03  0.75064456312E+02 0.  0.
          6    2    1    2  501    0 -0.32684609957E+02 -0.43015271587E+02 -0.20262634521E+02  0.18118347844E+03  0.17175063663E+03 0.  0.
         24    2    5    5    0    0  0.22969683075E+02  0.78927722042E+01  0.32221028856E+02  0.89174488786E+02  0.79523534605E+02 0.  0.
          5    1    5    5  501    0 -0.55654293032E+02 -0.50908043791E+02 -0.52483663377E+02  0.92008989653E+02  0.47000000000E+01 0. -1.
        -13    1    6    6    0    0  0.10898809394E+02  0.46881799839E+01  0.58705848687E+02  0.59892735351E+02  0.00000000000E+00 0.  1.
         14    1    6    6    0    0  0.12070873681E+02  0.32045922203E+01 -0.26484819831E+02  0.29281753435E+02  0.00000000000E+00 0. -1.
         -5    1    3    3    0  503  0.63466551148E+02 -0.14837624335E+02 -0.44899304750E+02  0.79285533218E+02  0.47000000000E+01 0.  1.
         11    1    4    4    0    0 -0.64778091068E+00 -0.15712329073E+02 -0.79602894220E+01  0.17625637937E+02  0.00000000000E+00 0. -1.
        -12    1    4    4    0    0 -0.30134160281E+02  0.73565224995E+02  0.25983054858E+02  0.83636290473E+02  0.00000000000E+00 0.  1.
</event>
<event>
12    1  0.1032880E+000  0.3360412E+03  0.7818608E-02  0.1068528E+00
         21   -1    0    0  503  502  0.00000000000E+00  0.00000000000E+00  0.78733246610E+02  0.78733246610E+02  0.00000000000E+00 0.  1.
         21   -1    0    0  501  503 -0.00000000000E+00 -0.00000000000E+00 -0.16059458862E+04  0.16059458862E+04  0.00000000000E+00 0.  1.
          6    2    1    2  501    0  0.11837975176E+03 -0.26330489166E+03 -0.48683990787E+03  0.59138177619E+03  0.17139450901E+03 0.  0.
         24    2    3    3    0    0  0.11837474369E+03 -0.25933218577E+03 -0.49779739054E+03  0.57881440401E+03  0.77188792842E+02 0.  0.
         -6    2    1    2    0  502 -0.11837975176E+03  0.26330489166E+03 -0.10403727317E+04  0.10932973566E+04  0.17198970166E+03 0.  0.
        -24    2    5    5    0    0 -0.23188047900E+02  0.20764485844E+03 -0.75366873143E+03  0.78608281665E+03  0.79092130455E+02 0.  0.
          5    1    3    3  501    0  0.50080713910E-02 -0.39727058891E+01  0.10957482669E+02  0.12567372184E+02  0.47000000000E+01 0. -1.
        -13    1    4    4    0    0  0.84562002556E+01 -0.92312909271E+01 -0.70832084558E+02  0.71929884316E+02  0.00000000000E+00 0.  1.
         14    1    4    4    0    0  0.10991854344E+03 -0.25010089484E+03 -0.42696530598E+03  0.50688451969E+03  0.00000000000E+00 0. -1.
         -5    1    5    5    0  502 -0.95191703864E+02  0.55660033216E+02 -0.28670400030E+03  0.30721453998E+03  0.47000000000E+01 0.  1.
         11    1    6    6    0    0 -0.41442420068E+02  0.70246812958E+02 -0.21753239875E+03  0.23231967936E+03  0.00000000000E+00 0. -1.
        -12    1    6    6    0    0  0.18254372168E+02  0.13739804549E+03 -0.53613633268E+03  0.55376313729E+03  0.00000000000E+00 0.  1.
</event>
<event>
12    1  0.1032880E+000  0.2471471E+03  0.7818608E-02  0.1115280E+00
         21   -1    0    0  503  502  0.00000000000E+00  0.00000000000E+00  0.34277239719E+02  0.34277239719E+02  0.00000000000E+00 0.  1.
         21   -1    0    0  501  503 -0.00000000000E+00 -0.00000000000E+00 -0.20150645175E+04  0.20150645175E+04  0.00000000000E+00 0.  1.
          6    2    1    2  501    0  0.15502417622E+03  0.83780286347E+02 -0.63837165456E+03  0.68454368008E+03  0.17329180304E+03 0.  0.
         24    2    3    3    0    0  0.11620239936E+03  0.51477810024E+02 -0.23910086865E+03  0.28206407709E+03  0.78980729665E+02 0.  0.
         -6    2    1    2    0  502 -0.15502417622E+03 -0.83780286347E+02 -0.13424156232E+04  0.13647980771E+04  0.17187918518E+03 0.  0.
        -24    2    5    5    0    0 -0.24241792823E+02 -0.78342330583E+02 -0.72115740967E+03  0.72988275910E+03  0.77043151761E+02 0.  0.
          5    1    3    3  501    0  0.38821776862E+02  0.32302476323E+02 -0.39927078591E+03  0.40247960298E+03  0.47000000000E+01 0. -1.
        -13    1    4    4    0    0  0.13592117707E+02  0.44599135363E+02 -0.68440972219E+02  0.82813013574E+02  0.00000000000E+00 0.  1.
         14    1    4    4    0    0  0.10261028165E+03  0.68786746609E+01 -0.17065989643E+03  0.19925106352E+03  0.00000000000E+00 0. -1.
         -5    1    5    5    0  502 -0.13078238340E+03 -0.54379557638E+01 -0.62125821355E+03  0.63491531804E+03  0.47000000000E+01 0.  1.
         13    1    6    6    0    0 -0.36620322946E+02 -0.58605317368E+02 -0.29092613440E+03  0.29902114800E+03  0.00000000000E+00 0. -1.
        -14    1    6    6    0    0  0.12378530124E+02 -0.19737013215E+02 -0.43023127527E+03  0.43086161110E+03  0.00000000000E+00 0.  1.
</event>
<event>
12    1  0.1032880E+000  0.2224069E+03  0.7818608E-02  0.1133264E+00
         21   -1    0    0  501  502  0.00000000000E+00  0.00000000000E+00  0.57040568020E+03  0.57040568020E+03  0.00000000000E+00 0. -1.
         21   -1    0    0  502  503 -0.00000000000E+00 -0.00000000000E+00 -0.91433996467E+02  0.91433996467E+02  0.00000000000E+00 0. -1.
         -6    2    1    2    0  503 -0.12718426177E+03 -0.34062611693E+02  0.32873837140E+03  0.39344655582E+03  0.17145021872E+03 0.  0.
        -24    2    3    3    0    0 -0.33765421817E+02 -0.15131558683E+01  0.25671992819E+03  0.27099128687E+03  0.79929735865E+02 0.  0.
          6    2    1    2  501    0  0.12718426177E+03  0.34062611693E+02  0.15023331233E+03  0.26839312085E+03  0.17924486388E+03 0.  0.
         24    2    5    5    0    0  0.12910371577E+03  0.21969880566E+02  0.17983985902E+03  0.23601170555E+03  0.78795337323E+02 0.  0.
          5    1    5    5  501    0 -0.19194540039E+01  0.12092731127E+02 -0.29606546692E+02  0.32381415299E+02  0.47000000000E+01 0. -1.
        -11    1    6    6    0    0  0.94389523769E+02 -0.13671429964E+02  0.80088343218E+02  0.12454088852E+03  0.00000000000E+00 0.  1.
         12    1    6    6    0    0  0.34714192002E+02  0.35641310530E+02  0.99751515807E+02  0.11147081703E+03  0.00000000000E+00 0. -1.
         -5    1    3    3    0  503 -0.93418839951E+02 -0.32549455825E+02  0.72018443205E+02  0.12245526895E+03  0.47000000000E+01 0.  1.
         13    1    4    4    0    0  0.74028881807E+01  0.13837365286E+02  0.65715033317E+01  0.17013526604E+02  0.00000000000E+00 0. -1.
        -14    1    4    4    0    0 -0.41168309997E+02 -0.15350521154E+02  0.25014842486E+03  0.25397776027E+03  0.00000000000E+00 0.  1.
</event>
<event>
12    1  0.1032880E+000  0.1799841E+03  0.7818608E-02  0.1167990E+00
         21   -1    0    0  501  502  0.00000000000E+00  0.00000000000E+00  0.64553867650E+02  0.64553867650E+02  0.00000000000E+00 0. -1.
         21   -1    0    0  502  503 -0.00000000000E+00 -0.00000000000E+00 -0.72966199836E+03  0.72966199836E+03  0.00000000000E+00 0. -1.
         -6    2    1    2    0  503  0.23487264881E+02  0.47383970282E+02 -0.10924264376E+03  0.20993791249E+03  0.17129821842E+03 0.  0.
        -24    2    3    3    0    0  0.50588790956E+02  0.49917760445E+02 -0.13566470233E+03  0.17171320861E+03  0.77649893595E+02 0.  0.
          6    2    1    2  501    0 -0.23487264881E+02 -0.47383970282E+02 -0.55586548694E+03  0.58427795351E+03  0.17203893494E+03 0.  0.
         24    2    5    5    0    0 -0.51813588584E+02 -0.48838890429E+02 -0.54165097872E+03  0.55220554089E+03  0.80469195777E+02 0.  0.
          5    1    5    5  501    0  0.28326323702E+02  0.14549201465E+01 -0.14214508228E+02  0.32072412620E+02  0.47000000000E+01 0. -1.
        -11    1    6    6    0    0 -0.67032950765E+02 -0.13789803071E+02 -0.37873384077E+03  0.38486737625E+03  0.00000000000E+00 0.  1.
         12    1    6    6    0    0  0.15219362181E+02 -0.35049087357E+02 -0.16291713795E+03  0.16733816465E+03  0.00000000000E+00 0. -1.
         -5    1    3    3    0  503 -0.27101526074E+02 -0.25337901633E+01  0.26422058564E+02  0.38224703883E+02  0.47000000000E+01 0.  1.
         11    1    4    4    0    0 -0.29741352496E+01 -0.69207092486E+01 -0.67888777287E+02  0.68305400800E+02  0.00000000000E+00 0. -1.
        -12    1    4    4    0    0  0.53562926205E+02  0.56838469694E+02 -0.67775925039E+02  0.10340780781E+03  0.00000000000E+00 0.  1.
</event>
<event>
12    1  0.1032880E+000  0.1984761E+03  0.7818608E-02  0.1151135E+00
         21   -1    0    0  503  502  0.00000000000E+00  0.00000000000E+00  0.46746955900E+02  0.46746955900E+02  0.00000000000E+00 0.  1.
         21   -1    0    0  501  503 -0.00000000000E+00 -0.00000000000E+00 -0.84196494975E+03  0.84196494975E+03  0.00000000000E+00 0.  1.
          6    2    1    2  501    0 -0.62987046050E+02  0.74373810694E+02 -0.37927888660E+03  0.42784520476E+03  0.17233749948E+03 0.  0.
         24    2    3    3    0    0 -0.72033398753E+02  0.93971629922E+02 -0.38041760882E+03  0.40572513008E+03  0.76654069098E+02 0.  0.
         -6    2    1    2    0  502  0.62987046050E+02 -0.74373810694E+02 -0.41593910725E+03  0.46086670089E+03  0.17289865056E+03 0.  0.
        -24    2    5    5    0    0  0.27497882232E+02  0.90734830625E+00 -0.33172145965E+03  0.34237013632E+03  0.80132556681E+02 0.  0.
          5    1    3    3  501    0  0.90463527030E+01 -0.19597819228E+02  0.11387222178E+01  0.22120074684E+02  0.47000000000E+01 0. -1.
        -11    1    4    4    0    0 -0.28409703035E+02  0.82567426632E+02 -0.17695295190E+03  0.19732419607E+03  0.00000000000E+00 0.  1.
         12    1    4    4    0    0 -0.43623695718E+02  0.11404203290E+02 -0.20346465692E+03  0.20840093401E+03  0.00000000000E+00 0. -1.
         -5    1    5    5    0  502  0.35489163818E+02 -0.75281159000E+02 -0.84217647598E+02  0.11849656457E+03  0.47000000000E+01 0.  1.
         13    1    6    6    0    0  0.30097994389E+02 -0.23418573852E+02 -0.29947658335E+03  0.30189492020E+03  0.00000000000E+00 0. -1.
        -14    1    6    6    0    0 -0.26001121566E+01  0.24325922158E+02 -0.32244876304E+02  0.40475216120E+02  0.00000000000E+00 0.  1.
</event>
<event>
12    1  0.1032880E+000  0.2007223E+03  0.7818608E-02  0.1149150E+00
         21   -1    0    0  503  502  0.00000000000E+00  0.00000000000E+00  0.17801522533E+02  0.17801522533E+02  0.00000000000E+00 0.  1.
         21   -1    0    0  501  503 -0.00000000000E+00 -0.00000000000E+00 -0.22622350870E+04  0.22622350870E+04  0.00000000000E+00 0.  1.
          6    2    1    2  501    0 -0.56856024464E+02  0.85334085171E+02 -0.11213430729E+04  0.11391662434E+04  0.17255413438E+03 0.  0.
         24    2    3    3    0    0 -0.10394059441E+03  0.68724549043E+02 -0.92266136842E+03  0.93425322985E+03  0.77449247258E+02 0.  0.
         -6    2    1    2    0  502  0.56856024464E+02 -0.85334085171E+02 -0.11230904916E+04  0.11408703662E+04  0.17244833001E+03 0.  0.
        -24    2    5    5    0    0  0.93402296025E+02 -0.22592640159E+02 -0.80128488819E+03  0.81094150224E+03  0.79587886706E+02 0.  0.
          5    1    3    3  501    0  0.47084569941E+02  0.16609536127E+02 -0.19868170449E+03  0.20491301354E+03  0.47000000000E+01 0. -1.
        -13    1    4    4    0    0 -0.18106767202E+02 -0.15198179504E+02 -0.93254186109E+02  0.96203861178E+02  0.00000000000E+00 0.  1.
         14    1    4    4    0    0 -0.85833827203E+02  0.83922728547E+02 -0.82940718231E+03  0.83804936867E+03  0.00000000000E+00 0. -1.
         -5    1    5    5    0  502 -0.36546271561E+02 -0.62741445012E+02 -0.32180560341E+03  0.32992886396E+03  0.47000000000E+01 0.  1.
         11    1    6    6    0    0  0.56951333415E+02 -0.49004645059E+02 -0.38759625562E+03  0.39481105226E+03  0.00000000000E+00 0. -1.
        -12    1    6    6    0    0  0.36450962610E+02  0.26412004901E+02 -0.41368863257E+03  0.41613044998E+03  0.00000000000E+00 0.  1.
</event>
<event>
12    1  0.1032880E+000  0.3179429E+03  0.7818608E-02  0.1076703E+00
         21   -1    0    0  503  502  0.00000000000E+00  0.00000000000E+00  0.38783313791E+03  0.38783313791E+03  0.00000000000E+00 0. -1.
         21   -1    0    0  501  503 -0.00000000000E+00 -0.00000000000E+00 -0.44843935681E+03  0.44843935681E+03  0.00000000000E+00 0.  1.
          6    2    1    2  501    0 -0.11013877867E+02 -0.26703716988E+03  0.24082763555E+03  0.39815140889E+03  0.17057678259E+03 0.  0.
         24    2    3    3    0    0  0.51056051248E+02 -0.21048427955E+03  0.15685527282E+03  0.27930548677E+03  0.80607853338E+02 0.  0.
         -6    2    1    2    0  502  0.11013877867E+02  0.26703716988E+03 -0.30143385445E+03  0.43812108582E+03  0.17221370918E+03 0.  0.
        -24    2    5    5    0    0  0.62620563128E+02  0.24025683529E+03 -0.25252170097E+03  0.36199668078E+03  0.75031364153E+02 0.  0.
          5    1    3    3  501    0 -0.62069929115E+02 -0.56552890331E+02  0.83972362722E+02  0.11884592213E+03  0.47000000000E+01 0. -1.
        -11    1    4    4    0    0  0.55352792232E+02 -0.15136033669E+03  0.14903587412E+03  0.21951212929E+03  0.00000000000E+00 0.  1.
         12    1    4    4    0    0 -0.42967409847E+01 -0.59123942860E+02  0.78193987038E+01  0.59793357478E+02  0.00000000000E+00 0. -1.
         -5    1    5    5    0  502 -0.51606685261E+02  0.26780334586E+02 -0.48912153484E+02  0.76124405039E+02  0.47000000000E+01 0.  1.
         13    1    6    6    0    0  0.47538945969E+02  0.14164776507E+03 -0.10014086057E+03  0.17986726408E+03  0.00000000000E+00 0. -1.
        -14    1    6    6    0    0  0.15081617159E+02  0.98609070218E+02 -0.15238084040E+03  0.18212941670E+03  0.00000000000E+00 0.  1.
</event>
<event>
12    1  0.1032880E+000  0.2087643E+03  0.7818608E-02  0.1142617E+00
         21   -1    0    0  503  502  0.00000000000E+00  0.00000000000E+00  0.21881092822E+03  0.21881092822E+03  0.00000000000E+00 0. -1.
         21   -1    0    0  501  503 -0.00000000000E+00 -0.00000000000E+00 -0.20998260051E+03  0.20998260051E+03  0.00000000000E+00 0. -1.
          6    2    1    2  501    0 -0.35406114662E+02  0.11368845397E+03  0.53770036280E+02  0.21524658920E+03  0.17105911212E+03 0.  0.
         24    2    3    3    0    0  0.39498694147E+02  0.59184157110E+02 -0.13124753469E+01  0.10736877940E+03  0.80395403517E+02 0.  0.
         -6    2    1    2    0  502  0.35406114662E+02 -0.11368845397E+03 -0.44941708575E+02  0.21354693954E+03  0.17147559796E+03 0.  0.
        -24    2    5    5    0    0  0.18626482955E+02  0.99473915239E+01 -0.34345592488E+02  0.88240331545E+02  0.78491018100E+02 0.  0.
          5    1    3    3  501    0 -0.74904808809E+02  0.54504296857E+02  0.55082511627E+02  0.10787780979E+03  0.47000000000E+01 0. -1.
        -13    1    4    4    0    0 -0.22750729460E+02  0.18314316651E+02  0.12259687563E+02  0.31675066290E+02  0.00000000000E+00 0.  1.
         14    1    4    4    0    0  0.62249423607E+02  0.40869840460E+02 -0.13572162910E+02  0.75693713112E+02  0.00000000000E+00 0. -1.
         -5    1    5    5    0  502  0.16779631706E+02 -0.12363584549E+03 -0.10596116086E+02  0.12530660799E+03  0.47000000000E+01 0.  1.
         11    1    6    6    0    0  0.39553889235E+02 -0.69478600297E+01  0.51164568436E+01  0.40484083826E+02  0.00000000000E+00 0. -1.
        -12    1    6    6    0    0 -0.20927406280E+02  0.16895251554E+02 -0.39462049332E+02  0.47756247719E+02  0.00000000000E+00 0.  1.
</event>
<event>
12    1  0.1032880E+000  0.1889901E+03  0.7818608E-02  0.1160807E+00
         21   -1    0    0  503  502  0.00000000000E+00  0.00000000000E+00  0.17508828711E+02  0.17508828711E+02  0.00000000000E+00 0.  1.
         21   -1    0    0  501  503 -0.00000000000E+00 -0.00000000000E+00 -0.23038275284E+04  0.23038275284E+04  0.00000000000E+00 0.  1.
          6    2    1    2  501    0  0.20239090004E+02  0.74564420805E+02 -0.72013892398E+03  0.74452489024E+03  0.17247541489E+03 0.  0.
         24    2    3    3    0    0  0.47814744323E+02  0.80409366699E+02 -0.69620944477E+03  0.70725170847E+03  0.82130823248E+02 0.  0.
         -6    2    1    2    0  502 -0.20239090004E+02 -0.74564420805E+02 -0.15661797757E+04  0.15768114668E+04  0.16566785628E+03 0.  0.
        -24    2    5    5    0    0 -0.60805946121E+02 -0.42721133509E+02 -0.13558564502E+04  0.13602066285E+04  0.79327802698E+02 0.  0.
          5    1    3    3  501    0 -0.27575654319E+02 -0.58449458940E+01 -0.23929479214E+02  0.37273181767E+02  0.47000000000E+01 0. -1.
        -13    1    4    4    0    0 -0.52783763015E+01  0.53103732071E+02 -0.47977103377E+03  0.48272985453E+03  0.00000000000E+00 0.  1.
         14    1    4    4    0    0  0.53093120625E+02  0.27305634629E+02 -0.21643841100E+03  0.22452185394E+03  0.00000000000E+00 0. -1.
         -5    1    5    5    0  502  0.40566856117E+02 -0.31843287296E+02 -0.21032332547E+03  0.21660483835E+03  0.47000000000E+01 0.  1.
         13    1    6    6    0    0 -0.14292506968E+02 -0.39807832246E+02 -0.26491721652E+03  0.26827238187E+03  0.00000000000E+00 0. -1.
        -14    1    6    6    0    0 -0.46513439153E+02 -0.29133012633E+01 -0.10909392337E+04  0.10919342466E+04  0.00000000000E+00 0.  1.
</event>
<event>
12    1  0.1032880E+000  0.3259870E+03  0.7818608E-02  0.1073118E+00
         21   -1    0    0  501  502  0.00000000000E+00  0.00000000000E+00  0.39504136254E+03  0.39504136254E+03  0.00000000000E+00 0. -1.
         21   -1    0    0  502  503 -0.00000000000E+00 -0.00000000000E+00 -0.46423172150E+03  0.46423172150E+03  0.00000000000E+00 0. -1.
         -6    2    1    2    0  503 -0.15938576151E+03 -0.22360709286E+03 -0.31415449720E+03  0.45150484091E+03  0.17250976871E+03 0.  0.
        -24    2    3    3    0    0 -0.13721055506E+03 -0.17596715672E+03 -0.15344723973E+03  0.28235929441E+03  0.79934592604E+02 0.  0.
          6    2    1    2  501    0  0.15938576151E+03  0.22360709286E+03  0.24496413824E+03  0.40776824314E+03  0.17568027247E+03 0.  0.
         24    2    5    5    0    0  0.72379362495E+02  0.21202798716E+03  0.17116146685E+03  0.29299405848E+03  0.79715940174E+02 0.  0.
          5    1    5    5  501    0  0.87006399014E+02  0.11579105705E+02  0.73802671396E+02  0.11477418466E+03  0.47000000000E+01 0. -1.
        -11    1    6    6    0    0  0.61925784298E+02  0.10913710032E+03  0.53694179828E+02  0.13648726817E+03  0.00000000000E+00 0.  1.
         12    1    6    6    0    0  0.10453578197E+02  0.10289088684E+03  0.11746728702E+03  0.15650679031E+03  0.00000000000E+00 0. -1.
         -5    1    3    3    0  503 -0.22175206454E+02 -0.47639936143E+02 -0.16070725747E+03  0.16914554650E+03  0.47000000000E+01 0.  1.
         13    1    4    4    0    0 -0.11854664064E+03 -0.91108138192E+02 -0.87060572487E+02  0.17301312706E+03  0.00000000000E+00 0. -1.
        -14    1    4    4    0    0 -0.18663914416E+02 -0.84859018530E+02 -0.66386667243E+02  0.10934616735E+03  0.00000000000E+00 0.  1.
</event>
<event>
12    1  0.1032880E+000  0.2713960E+03  0.7818608E-02  0.1100565E+00
         21   -1    0    0  501  502  0.00000000000E+00  0.00000000000E+00  0.47496440197E+03  0.47496440197E+03  0.00000000000E+00 0.  1.
         21   -1    0    0  502  503 -0.00000000000E+00 -0.00000000000E+00 -0.15940230565E+03  0.15940230565E+03  0.00000000000E+00 0.  1.
         -6    2    1    2    0  503  0.20735507868E+03  0.26486539682E+02  0.10343553457E+03  0.28990562071E+03  0.17218796029E+03 0.  0.
        -24    2    3    3    0    0  0.21667780546E+03 -0.26452080864E+01  0.73340921088E+02  0.24673910912E+03  0.92439324753E+02 0.  0.
          6    2    1    2  501    0 -0.20735507868E+03 -0.26486539682E+02  0.21212656175E+03  0.34446108691E+03  0.17308407423E+03 0.  0.
         24    2    5    5    0    0 -0.18306334415E+03 -0.70367206193E+02  0.13245213887E+03  0.25019706980E+03  0.81186655089E+02 0.  0.
          5    1    5    5  501    0 -0.24291734530E+02  0.43880666510E+02  0.79674422882E+02  0.94264017109E+02  0.47000000000E+01 0. -1.
        -13    1    6    6    0    0 -0.44600956707E+02 -0.56524613870E+01 -0.42296545492E+01  0.45156235854E+02  0.00000000000E+00 0.  1.
         14    1    6    6    0    0 -0.13846238745E+03 -0.64714744806E+02  0.13668179342E+03  0.20504083394E+03  0.00000000000E+00 0. -1.
         -5    1    3    3    0  503 -0.93227267728E+01  0.29131747769E+02  0.30094613477E+02  0.43166511590E+02  0.47000000000E+01 0.  1.
         11    1    4    4    0    0  0.59926581161E+02 -0.16376767579E+01 -0.21311419728E+02  0.63624317094E+02  0.00000000000E+00 0. -1.
        -12    1    4    4    0    0  0.15675122430E+03 -0.10075313285E+01  0.94652340816E+02  0.18311479203E+03  0.00000000000E+00 0.  1.
</event>
<event>
12    1  0.1032880E+000  0.3314060E+03  0.7818608E-02  0.1070671E+00
         21   -1    0    0  501  502  0.00000000000E+00  0.00000000000E+00  0.19639169153E+03  0.19639169153E+03  0.00000000000E+00 0. -1.
         21   -1    0    0  502  503 -0.00000000000E+00 -0.00000000000E+00 -0.55725654043E+03  0.55725654043E+03  0.00000000000E+00 0. -1.
         -6    2    1    2    0  503 -0.32573755371E+02  0.28040214079E+03 -0.18990405901E+03  0.38074408780E+03  0.17092717358E+03 0.  0.
        -24    2    3    3    0    0  0.14107161685E+02  0.58476695955E+02 -0.79375047390E+02  0.12841738788E+03  0.81068436411E+02 0.  0.
          6    2    1    2  501    0  0.32573755371E+02 -0.28040214079E+03 -0.17096078989E+03  0.37290414417E+03  0.17361883239E+03 0.  0.
         24    2    5    5    0    0 -0.22260366667E+02 -0.11750524037E+03 -0.31787480063E+02  0.15169500947E+03  0.87737828619E+02 0.  0.
          5    1    5    5  501    0  0.54834122037E+02 -0.16289690042E+03 -0.13917330983E+03  0.22120913470E+03  0.47000000000E+01 0. -1.
        -13    1    6    6    0    0  0.27287431589E+02 -0.22652724681E+02 -0.27001887087E+02  0.44574115409E+02  0.00000000000E+00 0.  1.
         14    1    6    6    0    0 -0.49547798256E+02 -0.94852515686E+02 -0.47855929765E+01  0.10712089406E+03  0.00000000000E+00 0. -1.
         -5    1    3    3    0  503 -0.46680917056E+02  0.22192544483E+03 -0.11052901162E+03  0.25232669991E+03  0.47000000000E+01 0.  1.
         11    1    4    4    0    0  0.41806194092E+02  0.11878457334E+02 -0.19460528300E+02  0.47618985446E+02  0.00000000000E+00 0. -1.
        -12    1    4    4    0    0 -0.27699032407E+02  0.46598238621E+02 -0.59914519089E+02  0.80798402438E+02  0.00000000000E+00 0.  1.
</event>
<event>
12    1  0.1032880E+000  0.1860382E+03  0.7818608E-02  0.1162766E+00
         21   -1    0    0  501  502  0.00000000000E+00  0.00000000000E+00  0.15254838110E+03  0.15254838110E+03  0.00000000000E+00 0.  1.
         21   -1    0    0  502  503 -0.00000000000E+00 -0.00000000000E+00 -0.23247782912E+03  0.23247782912E+03  0.00000000000E+00 0.  1.
         -6    2    1    2    0  503 -0.46921769363E+02 -0.44342352838E+02 -0.20954831063E+01  0.18604997265E+03  0.17447723227E+03 0.  0.
        -24    2    3    3    0    0 -0.43445067954E+02 -0.78102853697E+02  0.53326296399E+02  0.12089229840E+03  0.61511984514E+02 0.  0.
          6    2    1    2  501    0  0.46921769363E+02  0.44342352838E+02 -0.77833964904E+02  0.19897623757E+03  0.17136370773E+03 0.  0.
         24    2    5    5    0    0  0.94693847597E+01  0.16178990892E+01 -0.10738746871E+03  0.13476128878E+03  0.80847075839E+02 0.  0.
          5    1    5    5  501    0  0.37452384603E+02  0.42724453749E+02  0.29553503808E+02  0.64214948789E+02  0.47000000000E+01 0. -1.
        -13    1    6    6    0    0 -0.22641342169E+02  0.11009543629E+02 -0.96268388940E+02  0.99505995474E+02  0.00000000000E+00 0.  1.
         14    1    6    6    0    0  0.32110726929E+02 -0.93916445395E+01 -0.11119079772E+02  0.35255293305E+02  0.00000000000E+00 0. -1.
         -5    1    3    3    0  503 -0.34767014088E+01  0.33760500859E+02 -0.55421779505E+02  0.65157674256E+02  0.47000000000E+01 0.  1.
         13    1    4    4    0    0  0.75681918382E-01  0.94533453461E+01 -0.13594483152E+00  0.94546256923E+01  0.00000000000E+00 0. -1.
        -14    1    4    4    0    0 -0.43520749873E+02 -0.87556199043E+02  0.53462241230E+02  0.11143767270E+03  0.00000000000E+00 0.  1.
</event>
<event>
12    1  0.1032880E+000  0.3343762E+03  0.7818608E-02  0.1069324E+00
         21   -1    0    0  501  502  0.00000000000E+00  0.00000000000E+00  0.56240801193E+02  0.56240801193E+02  0.00000000000E+00 0.  1.
         21   -1    0    0  502  503 -0.00000000000E+00 -0.00000000000E+00 -0.28529681289E+04  0.28529681289E+04  0.00000000000E+00 0.  1.
         -6    2    1    2    0  503 -0.14079313007E+03  0.24790842855E+03 -0.59616726505E+03  0.68353701864E+03  0.17471735321E+03 0.  0.
        -24    2    3    3    0    0 -0.20945617512E+02  0.74905780523E+02 -0.30848211817E+03  0.32705675800E+03  0.75863765227E+02 0.  0.
          6    2    1    2  501    0  0.14079313007E+03 -0.24790842855E+03 -0.22005600626E+04  0.22256719114E+04  0.17282816218E+03 0.  0.
         24    2    5    5    0    0  0.12999288858E+03 -0.17477013885E+03 -0.11199731221E+04  0.11425486125E+04  0.60289179593E+02 0.  0.
          5    1    5    5  501    0  0.10800241484E+02 -0.73138289703E+02 -0.10805869406E+04  0.10831232990E+04  0.47000000000E+01 0. -1.
        -11    1    6    6    0    0  0.12364447212E+03 -0.16413789398E+03 -0.11001318844E+04  0.11191601166E+04  0.00000000000E+00 0.  1.
         12    1    6    6    0    0  0.63484164653E+01 -0.10632244863E+02 -0.19841237707E+02  0.23388495809E+02  0.00000000000E+00 0. -1.
         -5    1    3    3    0  503 -0.11984751256E+03  0.17300264803E+03 -0.28768514688E+03  0.35648026064E+03  0.47000000000E+01 0.  1.
         13    1    4    4    0    0 -0.37216091095E+02  0.69816008438E+02 -0.16975510548E+03  0.18728616689E+03  0.00000000000E+00 0. -1.
        -14    1    4    4    0    0  0.16270473583E+02  0.50897720841E+01 -0.13872701268E+03  0.13977059111E+03  0.00000000000E+00 0.  1.
</event>
<event>
12    1  0.1032880E+000  0.2027467E+03  0.7818608E-02  0.1147641E+00
         21   -1    0    0  501  502  0.00000000000E+00  0.00000000000E+00  0.95501728414E+03  0.95501728414E+03  0.00000000000E+00 0.  1.
         21   -1    0    0  502  503 -0.00000000000E+00 -0.00000000000E+00 -0.42847603548E+02  0.42847603548E+02  0.00000000000E+00 0.  1.
         -6    2    1    2    0  503 -0.52548101144E+02  0.92038531493E+02  0.46414515194E+03  0.50649476945E+03  0.17284049061E+03 0.  0.
        -24    2    3    3    0    0 -0.54379178381E+01  0.15155170539E+02  0.35819241728E+03  0.36728811535E+03  0.79620988043E+02 0.  0.
          6    2    1    2  501    0  0.52548101144E+02 -0.92038531493E+02  0.44802452866E+03  0.49137011824E+03  0.17171552234E+03 0.  0.
         24    2    5    5    0    0  0.48977332679E+02  0.10126258653E+01  0.31538717826E+03  0.32924046336E+03  0.80810927323E+02 0.  0.
          5    1    5    5  501    0  0.35707684649E+01 -0.93051157358E+02  0.13263735040E+03  0.16212965489E+03  0.47000000000E+01 0. -1.
        -13    1    6    6    0    0  0.47012071856E+02 -0.16344570719E+02  0.30475165105E+03  0.30878932739E+03  0.00000000000E+00 0.  1.
         14    1    6    6    0    0  0.19652608234E+01  0.17357196585E+02  0.10635527209E+02  0.20451135968E+02  0.00000000000E+00 0. -1.
         -5    1    3    3    0  503 -0.47110183306E+02  0.76883360954E+02  0.10595273466E+03  0.13920665409E+03  0.47000000000E+01 0.  1.
         11    1    4    4    0    0  0.15770728972E+02  0.69326464115E+01  0.33260839061E+03  0.33305422829E+03  0.00000000000E+00 0. -1.
        -12    1    4    4    0    0 -0.21208646811E+02  0.82225241274E+01  0.25584026669E+02  0.34233887059E+02  0.00000000000E+00 0.  1.
</event>
<event>
12    1  0.1032880E+000  0.1835916E+03  0.7818608E-02  0.1164560E+00
         21   -1    0    0  503  502  0.00000000000E+00  0.00000000000E+00  0.62988706289E+03  0.62988706289E+03  0.00000000000E+00 0.  1.
         21   -1    0    0  501  503 -0.00000000000E+00 -0.00000000000E+00 -0.77579662100E+02  0.77579662100E+02  0.00000000000E+00 0.  1.
          6    2    1    2  501    0 -0.49198348279E+02  0.42538462637E+02  0.47453802638E+03  0.50881452489E+03  0.17168542156E+03 0.  0.
         24    2    3    3    0    0 -0.11936546045E+02  0.55723139051E+02  0.13286994233E+03  0.16483567778E+03  0.79175941653E+02 0.  0.
         -6    2    1    2    0  502  0.49198348279E+02 -0.42538462637E+02  0.77769374411E+02  0.19865220011E+03  0.17083507466E+03 0.  0.
        -24    2    5    5    0    0  0.90454200481E+02 -0.35126924923E+02  0.90189187495E+02  0.15468268806E+03  0.79854750680E+02 0.  0.
          5    1    3    3  501    0 -0.37261802233E+02 -0.13184676413E+02  0.34166808405E+03  0.34397884711E+03  0.47000000000E+01 0. -1.
        -13    1    4    4    0    0  0.28826166009E+02  0.11040439924E+02  0.19997177905E+02  0.36779427465E+02  0.00000000000E+00 0.  1.
         14    1    4    4    0    0 -0.40762712054E+02  0.44682699127E+02  0.11287276443E+03  0.12805625031E+03  0.00000000000E+00 0. -1.
         -5    1    5    5    0  502 -0.41255852202E+02 -0.74115377141E+01 -0.12419813084E+02  0.43969512043E+02  0.47000000000E+01 0.  1.
         13    1    6    6    0    0  0.17020941189E+02 -0.78236470282E+01 -0.14666273210E+02  0.23791205553E+02  0.00000000000E+00 0. -1.
        -14    1    6    6    0    0  0.73433259292E+02 -0.27303277895E+02  0.10485546071E+03  0.13089148251E+03  0.00000000000E+00 0.  1.
</event>
<event>
12    1  0.1241964E+000  0.2125539E+03  0.7818608E-02  0.1139847E+00
         21   -1    0    0  503  502  0.00000000000E+00  0.00000000000E+00  0.74979327840E+03  0.74979327840E+03  0.00000000000E+00 0. -1.
         21   -1    0    0  501  503 -0.00000000000E+00 -0.00000000000E+00 -0.19840298505E+03  0.19840298505E+03  0.00000000000E+00 0. -1.
          6    2    1    2  501    0  0.11737211029E+03  0.35072164216E+02  0.67161012892E+03  0.70399966686E+03  0.17189850693E+03 0.  0.
         24    2    3    3    0    0  0.91325028511E+02 -0.37920391657E+02  0.49689456100E+03  0.51280870641E+03  0.79311712136E+02 0.  0.
         -6    2    1    2    0  502 -0.11737211029E+03 -0.35072164216E+02 -0.12021983558E+03  0.24419659659E+03  0.17370348282E+03 0.  0.
        -24    2    5    5    0    0 -0.17739677286E+02 -0.57758666469E+02 -0.24225213713E+02  0.10391703101E+03  0.81000794150E+02 0.  0.
          5    1    3    3  501    0  0.26047081784E+02  0.72992555873E+02  0.17471556792E+03  0.19119096045E+03  0.47000000000E+01 0. -1.
        -11    1    4    4    0    0  0.71279121935E+02 -0.17124458573E+02  0.17654884012E+03  0.19116342028E+03  0.00000000000E+00 0.  1.
         12    1    4    4    0    0  0.20045906576E+02 -0.20795933084E+02  0.32034572088E+03  0.32164528613E+03  0.00000000000E+00 0. -1.
         -5    1    5    5    0  502 -0.99632433008E+02  0.22686502253E+02 -0.95994621868E+02  0.14027956558E+03  0.47000000000E+01 0.  1.
         13    1    6    6    0    0  0.27424752079E+02 -0.17250466971E+02 -0.28427704252E+02  0.43102552202E+02  0.00000000000E+00 0. -1.
        -14    1    6    6    0    0 -0.45164429365E+02 -0.40508199498E+02  0.42024905388E+01  0.60814478812E+02  0.00000000000E+00 0.  1.
</event>
<event>
12    1  0.1032880E+000  0.2107490E+03  0.7818608E-02  0.1141109E+00
         21   -1    0    0  501  502  0.00000000000E+00  0.00000000000E+00  0.76738267695E+02  0.76738267695E+02  0.00000000000E+00 0.  1.
         21   -1    0    0  502  503 -0.00000000000E+00 -0.00000000000E+00 -0.85555125234E+03  0.85555125234E+03  0.00000000000E+00 0.  1.
         -6    2    1    2    0  503 -0.29833347496E+02 -0.11662733046E+03 -0.12381117515E+03  0.24442655726E+03  0.17298315516E+03 0.  0.
        -24    2    3    3    0    0 -0.16651183811E+02 -0.11806838794E+03 -0.15426066408E+03  0.21088393568E+03  0.80363397740E+02 0.  0.
          6    2    1    2  501    0  0.29833347496E+02  0.11662733046E+03 -0.65500180950E+03  0.68786296278E+03  0.17215145159E+03 0.  0.
         24    2    5    5    0    0 -0.37260995124E+02  0.64530009396E+02 -0.23686436134E+03  0.26115838438E+03  0.80910272455E+02 0.  0.
          5    1    5    5  501    0  0.67094342620E+02  0.52097321064E+02 -0.41813744816E+03  0.42670457840E+03  0.47000000000E+01 0. -1.
        -13    1    6    6    0    0 -0.46484383210E+02  0.51627753691E+02 -0.23516015869E+03  0.24520710240E+03  0.00000000000E+00 0.  1.
         14    1    6    6    0    0  0.92233880860E+01  0.12902255704E+02 -0.17042026496E+01  0.15951281977E+02  0.00000000000E+00 0. -1.
         -5    1    3    3    0  503 -0.13182163685E+02  0.14410574776E+01  0.30449488928E+02  0.33542621574E+02  0.47000000000E+01 0.  1.
         13    1    4    4    0    0  0.32257607893E+02 -0.56584610568E+02 -0.66160089788E+02  0.92841418025E+02  0.00000000000E+00 0. -1.
        -14    1    4    4    0    0 -0.48908791705E+02 -0.61483777370E+02 -0.88100574287E+02  0.11804251766E+03  0.00000000000E+00 0.  1.
</event>
<event>
12    1  0.1032880E+000  0.2200684E+03  0.7818608E-02  0.1133952E+00
         21   -1    0    0  503  502  0.00000000000E+00  0.00000000000E+00  0.14923059736E+04  0.14923059736E+04  0.00000000000E+00 0. -1.
         21   -1    0    0  501  503 -0.00000000000E+00 -0.00000000000E+00 -0.41544990888E+02  0.41544990888E+02  0.00000000000E+00 0. -1.
          6    2    1    2  501    0 -0.63154235773E+02 -0.12090291057E+03  0.36391004555E+03  0.42494381793E+03  0.17187424432E+03 0.  0.
         24    2    3    3    0    0 -0.45979216402E+02 -0.46951383745E+02  0.32231201290E+03  0.33824724400E+03  0.78788600936E+02 0.  0.
         -6    2    1    2    0  502  0.63154235773E+02  0.12090291057E+03  0.10868509372E+04  0.11089071466E+04  0.17269663808E+03 0.  0.
        -24    2    5    5    0    0  0.55530343096E+02 -0.28641772472E+01  0.45812288576E+03  0.46805032294E+03  0.78119804327E+02 0.  0.
          5    1    3    3  501    0 -0.17175019371E+02 -0.73951526825E+02  0.41598032649E+02  0.86696573926E+02  0.47000000000E+01 0. -1.
        -13    1    4    4    0    0 -0.45103037421E+02 -0.99458756778E+01  0.74280447542E+02  0.87468790517E+02  0.00000000000E+00 0.  1.
         14    1    4    4    0    0 -0.87617898120E+00 -0.37005508067E+02  0.24803156536E+03  0.25077845349E+03  0.00000000000E+00 0. -1.
         -5    1    5    5    0  502  0.76238926767E+01  0.12376708782E+03  0.62872805140E+03  0.64085682363E+03  0.47000000000E+01 0.  1.
         11    1    6    6    0    0  0.46343818589E+02  0.18609936337E+02  0.42257517112E+03  0.42551598619E+03  0.00000000000E+00 0. -1.
        -12    1    6    6    0    0  0.91865245072E+01 -0.21474113584E+02  0.35547714640E+02  0.42534336751E+02  0.00000000000E+00 0.  1.
</event>
<event>
12    1  0.1032880E+000  0.2167305E+03  0.7818608E-02  0.1136589E+00
         21   -1    0    0  503  502  0.00000000000E+00  0.00000000000E+00  0.74061715104E+02  0.74061715104E+02  0.00000000000E+00 0. -1.
         21   -1    0    0  501  503 -0.00000000000E+00 -0.00000000000E+00 -0.70207283137E+03  0.70207283137E+03  0.00000000000E+00 0. -1.
          6    2    1    2  501    0 -0.10981662924E+03 -0.69269459586E+02 -0.43876164913E+03  0.48937090365E+03  0.17353428047E+03 0.  0.
         24    2    3    3    0    0 -0.16811481930E+02 -0.90001067280E+02 -0.25490364611E+03  0.28223420420E+03  0.79356532073E+02 0.  0.
         -6    2    1    2    0  502  0.10981662924E+03  0.69269459586E+02 -0.18924946714E+03  0.28676364283E+03  0.17193043927E+03 0.  0.
        -24    2    5    5    0    0  0.31132905985E+02 -0.76826416107E+01 -0.14407835678E+03  0.16770368568E+03  0.79609499943E+02 0.  0.
          5    1    3    3  501    0 -0.93005147314E+02  0.20731607694E+02 -0.18385800302E+03  0.20713669945E+03  0.47000000000E+01 0. -1.
        -11    1    4    4    0    0 -0.39136094883E+02 -0.75979398919E+02 -0.23224609524E+03  0.24747272928E+03  0.00000000000E+00 0.  1.
         12    1    4    4    0    0  0.22324612953E+02 -0.14021668361E+02 -0.22657550875E+02  0.34761474922E+02  0.00000000000E+00 0. -1.
         -5    1    5    5    0  502  0.78683723259E+02  0.76952101197E+02 -0.45171110353E+02  0.11905995714E+03  0.47000000000E+01 0.  1.
         11    1    6    6    0    0 -0.13250521036E+02  0.95889658800E+01 -0.42531151280E+00  0.16361707254E+02  0.00000000000E+00 0. -1.
        -12    1    6    6    0    0  0.44383427021E+02 -0.17271607491E+02 -0.14365304527E+03  0.15134197843E+03  0.00000000000E+00 0.  1.
</event>
<event>
12    1  0.1032880E+000  0.1780308E+03  0.7818608E-02  0.1169889E+00
         21   -1    0    0  501  502  0.00000000000E+00  0.00000000000E+00  0.91696946814E+03  0.91696946814E+03  0.00000000000E+00 0.  1.
         21   -1    0    0  502  503 -0.00000000000E+00 -0.00000000000E+00 -0.48696590078E+02  0.48696590078E+02  0.00000000000E+00 0.  1.
         -6    2    1    2    0  503 -0.27866216334E+02  0.31287710231E+02  0.17224933327E+03  0.24723460774E+03  0.17233592670E+03 0.  0.
        -24    2    3    3    0    0 -0.21418817872E+02 -0.35761541403E+02  0.14685910246E+03  0.17509637300E+03  0.85752494190E+02 0.  0.
          6    2    1    2  501    0  0.27866216334E+02 -0.31287710231E+02  0.69602354480E+03  0.71843145048E+03  0.17303042304E+03 0.  0.
         24    2    5    5    0    0  0.12564704006E+02  0.47624461051E+02  0.44271456614E+03  0.45263303866E+03  0.80340024504E+02 0.  0.
          5    1    5    5  501    0  0.15301512328E+02 -0.78912171282E+02  0.25330897866E+03  0.26579841182E+03  0.47000000000E+01 0. -1.
        -11    1    6    6    0    0 -0.32552438267E+02  0.10288769318E+02  0.12563802350E+03  0.13019382843E+03  0.00000000000E+00 0.  1.
         12    1    6    6    0    0  0.45117142274E+02  0.37335691733E+02  0.31707654264E+03  0.32243921024E+03  0.00000000000E+00 0. -1.
         -5    1    3    3    0  503 -0.64473984629E+01  0.67049251634E+02  0.25390230807E+02  0.72138234744E+02  0.47000000000E+01 0.  1.
         13    1    4    4    0    0 -0.43466915200E+02 -0.29840440715E+01  0.11908985164E+03  0.12680958166E+03  0.00000000000E+00 0. -1.
        -14    1    4    4    0    0  0.22048097329E+02 -0.32777497332E+02  0.27769250818E+02  0.48286791342E+02  0.00000000000E+00 0.  1.
</event>
<event>
12    1  0.1032880E+000  0.2226049E+03  0.7818608E-02  0.1132480E+00
         21   -1    0    0  503  502  0.00000000000E+00  0.00000000000E+00  0.14282880961E+03  0.14282880961E+03  0.00000000000E+00 0. -1.
         21   -1    0    0  501  503 -0.00000000000E+00 -0.00000000000E+00 -0.34433225092E+03  0.34433225092E+03  0.00000000000E+00 0. -1.
          6    2    1    2  501    0  0.12289571821E+03  0.66048090144E+02 -0.11899296970E+03  0.25241293376E+03  0.17345677998E+03 0.  0.
         24    2    3    3    0    0  0.13495518767E+03  0.56299135304E+02 -0.52318291213E+02  0.18379751512E+03  0.98294596257E+02 0.  0.
         -6    2    1    2    0  502 -0.12289571821E+03 -0.66048090144E+02 -0.82510471612E+02  0.23474812678E+03  0.16980281897E+03 0.  0.
        -24    2    5    5    0    0 -0.48031444620E+02  0.24131763416E+02 -0.88233760202E+01  0.96223964603E+02  0.79321105146E+02 0.  0.
          5    1    3    3  501    0 -0.12059469451E+02  0.97489548394E+01 -0.66674678488E+02  0.68615418641E+02  0.47000000000E+01 0. -1.
        -11    1    4    4    0    0  0.30322783034E+02  0.64054734294E+02 -0.27226137479E+02  0.75919317162E+02  0.00000000000E+00 0.  1.
         12    1    4    4    0    0  0.10463240463E+03 -0.77555989895E+01 -0.25092153734E+02  0.10787819795E+03  0.00000000000E+00 0. -1.
         -5    1    5    5    0  502 -0.74864273595E+02 -0.90179853560E+02 -0.73687095592E+02  0.13852416217E+03  0.47000000000E+01 0.  1.
         11    1    6    6    0    0 -0.21680405573E+02  0.49988015615E+02 -0.19372598786E+02  0.57828533395E+02  0.00000000000E+00 0. -1.
        -12    1    6    6    0    0 -0.26351039047E+02 -0.25856252199E+02  0.10549222765E+02  0.38395431207E+02  0.00000000000E+00 0.  1.
</event>
<event>
12    1  0.1032880E+000  0.2440694E+03  0.7818608E-02  0.1117308E+00
         21   -1    0    0  503  502  0.00000000000E+00  0.00000000000E+00  0.82873688484E+02  0.82873688484E+02  0.00000000000E+00 0.  1.
         21   -1    0    0  501  503 -0.00000000000E+00 -0.00000000000E+00 -0.82150140897E+03  0.82150140897E+03  0.00000000000E+00 0.  1.
          6    2    1    2  501    0 -0.17090708090E+03 -0.26272869108E+02 -0.20590112426E+03  0.31839941795E+03  0.17053862444E+03 0.  0.
         24    2    3    3    0    0 -0.16408590927E+03 -0.72868700450E+02 -0.15568019344E+03  0.24939266630E+03  0.75672625473E+02 0.  0.
         -6    2    1    2    0  502  0.17090708090E+03  0.26272869108E+02 -0.53272659622E+03  0.58597567950E+03  0.17225091203E+03 0.  0.
        -24    2    5    5    0    0  0.49084893966E+02 -0.25917436353E+02 -0.13443291275E+03  0.16618475356E+03  0.80399775881E+02 0.  0.
          5    1    3    3  501    0 -0.68211716240E+01  0.46595831342E+02 -0.50220930827E+02  0.69006751655E+02  0.47000000000E+01 0. -1.
        -13    1    4    4    0    0 -0.17775146812E+02 -0.40259276917E+02 -0.25548312851E+02  0.50886948343E+02  0.00000000000E+00 0.  1.
         14    1    4    4    0    0 -0.14631076246E+03 -0.32609423533E+02 -0.13013188058E+03  0.19850571795E+03  0.00000000000E+00 0. -1.
         -5    1    5    5    0  502  0.12182218693E+03  0.52190305461E+02 -0.39829368347E+03  0.41979092594E+03  0.47000000000E+01 0.  1.
         13    1    6    6    0    0  0.44742682295E+02 -0.81390576308E+01 -0.18960696586E+02  0.49271288730E+02  0.00000000000E+00 0. -1.
        -14    1    6    6    0    0  0.43422116712E+01 -0.17778378722E+02 -0.11547221616E+03  0.11691346483E+03  0.00000000000E+00 0.  1.
</event>
<event>
12    1  0.1032880E+000  0.2343858E+03  0.7818608E-02  0.1123617E+00
         21   -1    0    0  503  502  0.00000000000E+00  0.00000000000E+00  0.85194389422E+03  0.85194389422E+03  0.00000000000E+00 0. -1.
         21   -1    0    0  501  503 -0.00000000000E+00 -0.00000000000E+00 -0.81685954919E+02  0.81685954919E+02  0.00000000000E+00 0. -1.
          6    2    1    2  501    0  0.51446099929E+02 -0.15142717252E+03  0.59951144392E+03  0.64364528330E+03  0.17113850986E+03 0.  0.
         24    2    3    3    0    0  0.56106768495E+00 -0.96661809327E+02  0.51700568803E+03  0.53221000493E+03  0.81294450693E+02 0.  0.
         -6    2    1    2    0  502 -0.51446099929E+02  0.15142717252E+03  0.17074649539E+03  0.28998456584E+03  0.17134699578E+03 0.  0.
        -24    2    5    5    0    0 -0.86963140009E+02  0.15277580370E+03  0.16369682407E+03  0.25344599981E+03  0.80840526280E+02 0.  0.
          5    1    3    3  501    0  0.50885032244E+02 -0.54765363189E+02  0.82505755891E+02  0.11143527838E+03  0.47000000000E+01 0. -1.
        -13    1    4    4    0    0  0.16534188546E+02 -0.10246070021E+03  0.37182164010E+03  0.38603485144E+03  0.00000000000E+00 0.  1.
         14    1    4    4    0    0 -0.15973120861E+02  0.57988908785E+01  0.14518404793E+03  0.14617515349E+03  0.00000000000E+00 0. -1.
         -5    1    5    5    0  502  0.35517040081E+02 -0.13486311846E+01  0.70496713147E+01  0.36538566034E+02  0.47000000000E+01 0.  1.
         13    1    6    6    0    0 -0.25026109846E+01  0.46730326641E+02  0.84080711049E+02  0.96226568370E+02  0.00000000000E+00 0. -1.
        -14    1    6    6    0    0 -0.84460529025E+02  0.10604547706E+03  0.79616113024E+02  0.15721943144E+03  0.00000000000E+00 0.  1.
</event>
<event>
12    1  0.1032880E+000  0.2089203E+03  0.7818608E-02  0.1142543E+00
         21   -1    0    0  503  502  0.00000000000E+00  0.00000000000E+00  0.27543293781E+03  0.27543293781E+03  0.00000000000E+00 0.  1.
         21   -1    0    0  501  503 -0.00000000000E+00 -0.00000000000E+00 -0.19895724447E+03  0.19895724447E+03  0.00000000000E+00 0.  1.
          6    2    1    2  501    0  0.69440661338E+02  0.96947749867E+02 -0.69315421747E+02  0.22011886706E+03  0.17154246207E+03 0.  0.
         24    2    3    3    0    0  0.31685942440E+02  0.62074301069E+01 -0.82461295716E+02  0.12085090429E+03  0.82234692437E+02 0.  0.
         -6    2    1    2    0  502 -0.69440661338E+02 -0.96947749867E+02  0.14579111509E+03  0.25427131522E+03  0.17081563410E+03 0.  0.
        -24    2    5    5    0    0  0.71336528425E+01 -0.39742297713E+02  0.35257823625E+02  0.10806670561E+03  0.93834745719E+02 0.  0.
          5    1    3    3  501    0  0.37754718898E+02  0.90740319760E+02  0.13145873969E+02  0.99267962765E+02  0.47000000000E+01 0. -1.
        -11    1    4    4    0    0 -0.17289629198E+02 -0.11015053155E+02  0.31375833300E+01  0.20739023674E+02  0.00000000000E+00 0.  1.
         12    1    4    4    0    0  0.48975571638E+02  0.17222483262E+02 -0.85598879046E+02  0.10011188062E+03  0.00000000000E+00 0. -1.
         -5    1    5    5    0  502 -0.76574314180E+02 -0.57205452154E+02  0.11053329146E+03  0.14620460961E+03  0.47000000000E+01 0.  1.
         13    1    6    6    0    0 -0.52239831828E+01 -0.40621015405E+02 -0.24039164228E+02  0.47489349433E+02  0.00000000000E+00 0. -1.
        -14    1    6    6    0    0  0.12357636025E+02  0.87871769228E+00  0.59296987852E+02  0.60577356176E+02  0.00000000000E+00 0.  1.
</event>
<event>
12    1  0.1032880E+000  0.1856877E+03  0.7818608E-02  0.1163201E+00
         21   -1    0    0  501  502  0.00000000000E+00  0.00000000000E+00  0.82115760453E+02  0.82115760453E+02  0.00000000000E+00 0. -1.
         21   -1    0    0  502  503 -0.00000000000E+00 -0.00000000000E+00 -0.94442036626E+03  0.94442036626E+03  0.00000000000E+00 0. -1.
         -6    2    1    2    0  503 -0.57523214748E+01  0.62500133824E+02 -0.81469114253E+03  0.83484111509E+03  0.17116855375E+03 0.  0.
        -24    2    3    3    0    0 -0.37513967712E+02  0.60203979736E+02 -0.78106055313E+03  0.78828812336E+03  0.79440297253E+02 0.  0.
          6    2    1    2  501    0  0.57523214748E+01 -0.62500133824E+02 -0.47613463268E+02  0.19169501162E+03  0.17475863259E+03 0.  0.
         24    2    5    5    0    0 -0.57810732195E+02 -0.18208722843E+02  0.16112936195E+02  0.91270239440E+02  0.66309814885E+02 0.  0.
          5    1    5    5  501    0  0.63563053670E+02 -0.44291410980E+02 -0.63726399463E+02  0.10042477218E+03  0.47000000000E+01 0. -1.
        -11    1    6    6    0    0 -0.35317467954E+02  0.52630367140E+01 -0.21401194311E+02  0.41629727552E+02  0.00000000000E+00 0.  1.
         12    1    6    6    0    0 -0.22493264242E+02 -0.23471759557E+02  0.37514130505E+02  0.49640511888E+02  0.00000000000E+00 0. -1.
         -5    1    3    3    0  503  0.31761646237E+02  0.22961540881E+01 -0.33630589405E+02  0.46552991730E+02  0.47000000000E+01 0.  1.
         13    1    4    4    0    0  0.16674935422E+02  0.41378942257E+02 -0.23292072315E+03  0.23715466179E+03  0.00000000000E+00 0. -1.
        -14    1    4    4    0    0 -0.54188903134E+02  0.18825037478E+02 -0.54813982997E+03  0.55113346157E+03  0.00000000000E+00 0.  1.
</event>
<event>
12    1  0.1032880E+000  0.2332075E+03  0.7818608E-02  0.1124641E+00
         21   -1    0    0  503  502  0.00000000000E+00  0.00000000000E+00  0.26828672353E+03  0.26828672353E+03  0.00000000000E+00 0. -1.
         21   -1    0    0  501  503 -0.00000000000E+00 -0.00000000000E+00 -0.21904276155E+03  0.21904276155E+03  0.00000000000E+00 0. -1.
          6    2    1    2  501    0  0.20882495532E+02  0.15510558249E+03  0.93470039385E+02  0.24996544476E+03  0.17103290610E+03 0.  0.
         24    2    3    3    0    0 -0.32570887561E+02  0.51825022137E+02  0.53791783547E+01  0.10399891398E+03  0.83905559485E+02 0.  0.
         -6    2    1    2    0  502 -0.20882495532E+02 -0.15510558249E+03 -0.44226077403E+02  0.23736404032E+03  0.17289280313E+03 0.  0.
        -24    2    5    5    0    0  0.29542278123E+02 -0.15617889321E+03 -0.15840026331E+02  0.17929797717E+03  0.81438721148E+02 0.  0.
          5    1    3    3  501    0  0.53453383092E+02  0.10328056036E+03  0.88090861031E+02  0.14596653078E+03  0.47000000000E+01 0. -1.
        -11    1    4    4    0    0  0.38034722582E+01  0.64286416429E+02 -0.36537681169E+01  0.64502401195E+02  0.00000000000E+00 0.  1.
         12    1    4    4    0    0 -0.36374359819E+02 -0.12461394292E+02  0.90329464715E+01  0.39496512781E+02  0.00000000000E+00 0. -1.
         -5    1    5    5    0  502 -0.50424773655E+02  0.10733107177E+01 -0.28386051072E+02  0.58066063148E+02  0.47000000000E+01 0.  1.
         11    1    6    6    0    0  0.11848238753E+02 -0.26381142131E+02 -0.36619525633E+02  0.46661923227E+02  0.00000000000E+00 0. -1.
        -12    1    6    6    0    0  0.17694039370E+02 -0.12979775108E+03  0.20779499302E+02  0.13263605394E+03  0.00000000000E+00 0.  1.
</event>
<event>
12    1  0.1032880E+000  0.2073456E+03  0.7818608E-02  0.1145797E+00
         21   -1    0    0  501  502  0.00000000000E+00  0.00000000000E+00  0.18939369627E+03  0.18939369627E+03  0.00000000000E+00 0. -1.
         21   -1    0    0  502  503 -0.00000000000E+00 -0.00000000000E+00 -0.33621560455E+03  0.33621560455E+03  0.00000000000E+00 0. -1.
         -6    2    1    2    0  503 -0.48037340295E+02  0.82521920218E+02 -0.22936201546E+03  0.30243880925E+03  0.17246694126E+03 0.  0.
        -24    2    3    3    0    0  0.20779274214E+02  0.21757867048E+02 -0.43937206960E+02  0.95478798147E+02  0.79249856308E+02 0.  0.
          6    2    1    2  501    0  0.48037340295E+02 -0.82521920218E+02  0.82540107172E+02  0.22317049157E+03  0.18405093218E+03 0.  0.
         24    2    5    5    0    0  0.45026028891E+02 -0.18821354928E+02 -0.25415039460E+02  0.97698448074E+02  0.80730885331E+02 0.  0.
          5    1    5    5  501    0  0.30113114039E+01 -0.63700565291E+02  0.10795514663E+03  0.12547204350E+03  0.47000000000E+01 0. -1.
        -13    1    6    6    0    0  0.36113446228E+02 -0.33317678193E+02 -0.48486384046E+02  0.69030269567E+02  0.00000000000E+00 0.  1.
         14    1    6    6    0    0  0.89125826635E+01  0.14496323265E+02  0.23071344586E+02  0.28668178507E+02  0.00000000000E+00 0. -1.
         -5    1    3    3    0  503 -0.68816614509E+02  0.60764053170E+02 -0.18542480850E+03  0.20696001110E+03  0.47000000000E+01 0.  1.
         13    1    4    4    0    0 -0.74664352694E+01 -0.27095022433E+02 -0.11314134445E+02  0.30296823835E+02  0.00000000000E+00 0. -1.
        -14    1    4    4    0    0  0.28245709483E+02  0.48852889481E+02 -0.32623072515E+02  0.65181974312E+02  0.00000000000E+00 0.  1.
</event>
<event>
12    1  0.1032880E+000  0.1955446E+03  0.7818608E-02  0.1154342E+00
         21   -1    0    0  501  502  0.00000000000E+00  0.00000000000E+00  0.62177134865E+02  0.62177134865E+02  0.00000000000E+00 0. -1.
         21   -1    0    0  502  503 -0.00000000000E+00 -0.00000000000E+00 -0.60447854572E+03  0.60447854572E+03  0.00000000000E+00 0. -1.
         -6    2    1    2    0  503 -0.60496342859E+02  0.72328264537E+02 -0.26195610292E+03  0.32689246790E+03  0.17130820285E+03 0.  0.
        -24    2    3    3    0    0  0.77146939176E+00  0.87156136755E+02 -0.22029359500E+03  0.25118602710E+03  0.83476732530E+02 0.  0.
          6    2    1    2  501    0  0.60496342859E+02 -0.72328264537E+02 -0.28034530793E+03  0.33976321268E+03  0.16719558505E+03 0.  0.
         24    2    5    5    0    0 -0.19819356167E+02 -0.71649028622E+02 -0.13122337487E+03  0.17032144159E+03  0.79141829458E+02 0.  0.
          5    1    5    5  501    0  0.80315699026E+02 -0.67923591507E+00 -0.14912193306E+03  0.16944177109E+03  0.47000000000E+01 0. -1.
        -13    1    6    6    0    0 -0.33381278777E+02 -0.83832398479E+02 -0.11202181858E+03  0.14384390375E+03  0.00000000000E+00 0.  1.
         14    1    6    6    0    0  0.13561922610E+02  0.12183369857E+02 -0.19201556291E+02  0.26477537837E+02  0.00000000000E+00 0. -1.
         -5    1    3    3    0  503 -0.61267812251E+02 -0.14827872218E+02 -0.41662507917E+02  0.75706440799E+02  0.47000000000E+01 0.  1.
         13    1    4    4    0    0 -0.34913784044E+02  0.20294005664E+02 -0.11157107942E+03  0.11865464485E+03  0.00000000000E+00 0. -1.
        -14    1    4    4    0    0  0.35685253436E+02  0.66862131091E+02 -0.10872251558E+03  0.13253138225E+03  0.00000000000E+00 0.  1.
</event>
<event>
12    1  0.1032880E+000  0.2271589E+03  0.7818608E-02  0.1128765E+00
         21   -1    0    0  503  502  0.00000000000E+00  0.00000000000E+00  0.96331754885E+03  0.96331754885E+03  0.00000000000E+00 0. -1.
         21   -1    0    0  501  503 -0.00000000000E+00 -0.00000000000E+00 -0.70777558819E+02  0.70777558819E+02  0.00000000000E+00 0. -1.
          6    2    1    2  501    0 -0.12771690726E+03 -0.74648963713E+02  0.18978234272E+03  0.29553603921E+03  0.17158128302E+03 0.  0.
         24    2    3    3    0    0 -0.13086870676E+03 -0.94623765175E+02  0.20263664555E+03  0.27111781580E+03  0.79768318130E+02 0.  0.
         -6    2    1    2    0  502  0.12771690726E+03  0.74648963713E+02  0.70275764731E+03  0.73855906846E+03  0.17238651504E+03 0.  0.
        -24    2    5    5    0    0  0.13680593143E+03  0.75887923468E+02  0.40645019967E+03  0.44207240956E+03  0.75838055576E+02 0.  0.
          5    1    3    3  501    0  0.31517995051E+01  0.19974801462E+02 -0.12854302828E+02  0.24418223415E+02  0.47000000000E+01 0. -1.
        -13    1    4    4    0    0 -0.46999346963E+02 -0.38571531695E+02  0.22826762035E+02  0.64944304887E+02  0.00000000000E+00 0.  1.
         14    1    4    4    0    0 -0.83869359799E+02 -0.56052233480E+02  0.17980988352E+03  0.20617351091E+03  0.00000000000E+00 0. -1.
         -5    1    5    5    0  502 -0.90890241740E+01 -0.12389597550E+01  0.29630744764E+03  0.29648665890E+03  0.47000000000E+01 0.  1.
         13    1    6    6    0    0  0.73763995329E+02  0.81945613096E+02  0.24614400152E+03  0.26970925085E+03  0.00000000000E+00 0. -1.
        -14    1    6    6    0    0  0.63041936102E+02 -0.60576896275E+01  0.16030619816E+03  0.17236315871E+03  0.00000000000E+00 0.  1.
</event>
<event>
12    1  0.1032880E+000  0.2256557E+03  0.7818608E-02  0.1129796E+00
         21   -1    0    0  503  502  0.00000000000E+00  0.00000000000E+00  0.11181919931E+03  0.11181919931E+03  0.00000000000E+00 0. -1.
         21   -1    0    0  501  503 -0.00000000000E+00 -0.00000000000E+00 -0.47569078349E+03  0.47569078349E+03  0.00000000000E+00 0. -1.
          6    2    1    2  501    0  0.69947312530E+02 -0.12725789577E+03 -0.12037088011E+03  0.25575305563E+03  0.17272312561E+03 0.  0.
         24    2    3    3    0    0  0.11481703344E+03 -0.87255296953E+02 -0.97193855428E+02  0.19115611887E+03  0.79357282170E+02 0.  0.
         -6    2    1    2    0  502 -0.69947312530E+02  0.12725789577E+03 -0.24350070407E+03  0.33175692718E+03  0.17228716517E+03 0.  0.
        -24    2    5    5    0    0 -0.42486098843E+02  0.15850712991E+03 -0.18523722722E+03  0.26001185330E+03  0.79773145091E+02 0.  0.
          5    1    3    3  501    0 -0.44869720906E+02 -0.40002598817E+02 -0.23177024679E+02  0.64596936764E+02  0.47000000000E+01 0. -1.
        -13    1    4    4    0    0  0.75705918061E+01 -0.25537446696E+02  0.89818501681E+01  0.28109583357E+02  0.00000000000E+00 0.  1.
         14    1    4    4    0    0  0.10724644163E+03 -0.61717850257E+02 -0.10617570560E+03  0.16304653551E+03  0.00000000000E+00 0. -1.
         -5    1    5    5    0  502 -0.27461213687E+02 -0.31249234142E+02 -0.58263476851E+02  0.71745073882E+02  0.47000000000E+01 0.  1.
         11    1    6    6    0    0 -0.65248249588E+02  0.99015068860E+02 -0.11484717013E+03  0.16507934584E+03  0.00000000000E+00 0. -1.
        -12    1    6    6    0    0  0.22762150744E+02  0.59492061052E+02 -0.70390057094E+02  0.94932507459E+02  0.00000000000E+00 0.  1.
</event>
<event>
12    1  0.1032880E+000  0.3040182E+03  0.7818608E-02  0.1083334E+00
         21   -1    0    0  501  502  0.00000000000E+00  0.00000000000E+00  0.14839292318E+04  0.14839292318E+04  0.00000000000E+00 0. -1.
         21   -1    0    0  502  503 -0.00000000000E+00 -0.00000000000E+00 -0.18280130908E+03  0.18280130908E+03  0.00000000000E+00 0. -1.
         -6    2    1    2    0  503 -0.78432255129E+02 -0.23732158633E+03 -0.26741254807E+02  0.30450308811E+03  0.17185424631E+03 0.  0.
        -24    2    3    3    0    0 -0.38419638953E+02 -0.11144916597E+03  0.51154899229E+02  0.15109260452E+03  0.79468019809E+02 0.  0.
          6    2    1    2  501    0  0.78432255129E+02  0.23732158633E+03  0.13278691775E+04  0.13622274527E+04  0.17307202689E+03 0.  0.
         24    2    5    5    0    0 -0.27309575614E+01  0.11613970158E+03  0.41098606477E+03  0.43380446258E+03  0.76032084670E+02 0.  0.
          5    1    5    5  501    0  0.81163212691E+02  0.12118188475E+03  0.91688311270E+03  0.92842299015E+03  0.47000000000E+01 0. -1.
        -11    1    6    6    0    0  0.34954383459E+02  0.45382568892E+02  0.14176256698E+03  0.15289869810E+03  0.00000000000E+00 0.  1.
         12    1    6    6    0    0 -0.37685341020E+02  0.70757132690E+02  0.26922349779E+03  0.28090576448E+03  0.00000000000E+00 0. -1.
         -5    1    3    3    0  503 -0.40012616176E+02 -0.12587242036E+03 -0.77896154036E+02  0.15341048359E+03  0.47000000000E+01 0.  1.
         13    1    4    4    0    0 -0.25145727897E+02 -0.16351394576E+02 -0.15927262684E+02  0.33961057591E+02  0.00000000000E+00 0. -1.
        -14    1    4    4    0    0 -0.13273911056E+02 -0.95097771394E+02  0.67082161913E+02  0.11713154693E+03  0.00000000000E+00 0.  1.
</event>
<event>
12    1  0.1032880E+000  0.2287732E+03  0.7818608E-02  0.1127524E+00
         21   -1    0    0  501  502  0.00000000000E+00  0.00000000000E+00  0.18868341784E+03  0.18868341784E+03  0.00000000000E+00 0.  1.
         21   -1    0    0  502  503 -0.00000000000E+00 -0.00000000000E+00 -0.29059971890E+03  0.29059971890E+03  0.00000000000E+00 0.  1.
         -6    2    1    2    0  503 -0.14474842171E+03 -0.43317316924E+02  0.37123751373E+00  0.22877348750E+03  0.17178089310E+03 0.  0.
        -24    2    3    3    0    0 -0.12871236092E+02 -0.11061587002E+00  0.41499723660E+02  0.83956176818E+02  0.71838232214E+02 0.  0.
          6    2    1    2  501    0  0.14474842171E+03  0.43317316924E+02 -0.10228753858E+03  0.25050964924E+03  0.17165036638E+03 0.  0.
         24    2    5    5    0    0  0.13885753983E+03  0.23319141959E+02 -0.17588626565E+02  0.16315619946E+03  0.80531899814E+02 0.  0.
          5    1    5    5  501    0  0.58908818740E+01  0.19998174965E+02 -0.84698912016E+02  0.87353449777E+02  0.47000000000E+01 0. -1.
        -13    1    6    6    0    0  0.67715757487E+01  0.15451335850E+02  0.19453066955E+02  0.25749171474E+02  0.00000000000E+00 0.  1.
         14    1    6    6    0    0  0.13208596408E+03  0.78678061092E+01 -0.37041693519E+02  0.13740702799E+03  0.00000000000E+00 0. -1.
         -5    1    3    3    0  503 -0.13187718561E+03 -0.43206701054E+02 -0.41128486146E+02  0.14481731069E+03  0.47000000000E+01 0.  1.
         11    1    4    4    0    0 -0.29047615239E+02 -0.27917256608E+02  0.28033865812E+02  0.49081919277E+02  0.00000000000E+00 0. -1.
        -12    1    4    4    0    0  0.16176379148E+02  0.27806640737E+02  0.13465857848E+02  0.34874257541E+02  0.00000000000E+00 0.  1.
</event>
<event>
12    1  0.1032880E+000  0.2423016E+03  0.7818608E-02  0.1118391E+00
         21   -1    0    0  501  502  0.00000000000E+00  0.00000000000E+00  0.29727470891E+03  0.29727470891E+03  0.00000000000E+00 0. -1.
         21   -1    0    0  502  503 -0.00000000000E+00 -0.00000000000E+00 -0.22940274596E+03  0.22940274596E+03  0.00000000000E+00 0.  1.
         -6    2    1    2    0  503  0.96007266154E+02  0.14034622520E+03  0.13303114878E+03  0.27576751471E+03  0.17156916256E+03 0.  0.
        -24    2    3    3    0    0 -0.44937727464E+01  0.70678635022E+02  0.10666019394E+03  0.15058145638E+03  0.79263576700E+02 0.  0.
          6    2    1    2  501    0 -0.96007266154E+02 -0.14034622520E+03 -0.65159185829E+02  0.25090994016E+03  0.17261407964E+03 0.  0.
         24    2    5    5    0    0 -0.64018402881E+02 -0.11442176172E+03 -0.11068728284E+03  0.18934482993E+03  0.80056820925E+02 0.  0.
          5    1    5    5  501    0 -0.31988863273E+02 -0.25924463478E+02  0.45528097007E+02  0.61565110227E+02  0.47000000000E+01 0. -1.
        -11    1    6    6    0    0 -0.65989790047E+02 -0.90745178574E+02 -0.47507220075E+02  0.12184529447E+03  0.00000000000E+00 0.  1.
         12    1    6    6    0    0  0.19713871664E+01 -0.23676583146E+02 -0.63180062761E+02  0.67499535460E+02  0.00000000000E+00 0. -1.
         -5    1    3    3    0  503  0.10050103890E+03  0.69667590177E+02  0.26370954840E+02  0.12518605833E+03  0.47000000000E+01 0.  1.
         13    1    4    4    0    0 -0.57535193639E+01 -0.13332745514E+02  0.42359533407E+02  0.44779405517E+02  0.00000000000E+00 0. -1.
        -14    1    4    4    0    0  0.12597466175E+01  0.84011380537E+02  0.64300660536E+02  0.10580205086E+03  0.00000000000E+00 0.  1.
</event>
<event>
12    1  0.1032880E+000  0.3202204E+03  0.7818608E-02  0.1075653E+00
         21   -1    0    0  503  502  0.00000000000E+00  0.00000000000E+00  0.16953985766E+03  0.16953985766E+03  0.00000000000E+00 0. -1.
         21   -1    0    0  501  503 -0.00000000000E+00 -0.00000000000E+00 -0.11884160436E+04  0.11884160436E+04  0.00000000000E+00 0. -1.
          6    2    1    2  501    0  0.71309340065E+02 -0.26028903650E+03 -0.33303416909E+02  0.32194755854E+03  0.17235344026E+03 0.  0.
         24    2    3    3    0    0  0.23269220915E+02 -0.38956259014E+02 -0.24506140800E+02  0.95241728214E+02  0.80071150222E+02 0.  0.
         -6    2    1    2    0  502 -0.71309340065E+02  0.26028903650E+03 -0.98557276906E+03  0.10360083427E+04  0.17065813381E+03 0.  0.
        -24    2    5    5    0    0 -0.22291044200E+02  0.50447655696E+02 -0.48127460569E+03  0.48757883406E+03  0.55371623809E+02 0.  0.
          5    1    3    3  501    0  0.48040119150E+02 -0.22133277748E+03 -0.87972761092E+01  0.22670583032E+03  0.47000000000E+01 0. -1.
        -13    1    4    4    0    0 -0.79737292877E+01 -0.55801147636E+02 -0.12190012348E+02  0.57671005170E+02  0.00000000000E+00 0.  1.
         14    1    4    4    0    0  0.31242950202E+02  0.16844888622E+02 -0.12316128451E+02  0.37570723044E+02  0.00000000000E+00 0. -1.
         -5    1    5    5    0  502 -0.49018295865E+02  0.20984138080E+03 -0.50429816336E+03  0.54842950869E+03  0.47000000000E+01 0.  1.
         13    1    6    6    0    0 -0.23870799525E+02  0.67759760901E+01 -0.30346701744E+03  0.30447981804E+03  0.00000000000E+00 0. -1.
        -14    1    6    6    0    0  0.15797553242E+01  0.43671679606E+02 -0.17780758825E+03  0.18309901602E+03  0.00000000000E+00 0.  1.
</event>
<event>
12    1  0.1032880E+000  0.1941312E+03  0.7818608E-02  0.1155322E+00
         21   -1    0    0  503  502  0.00000000000E+00  0.00000000000E+00  0.44930983319E+03  0.44930983319E+03  0.00000000000E+00 0. -1.
         21   -1    0    0  501  503 -0.00000000000E+00 -0.00000000000E+00 -0.82955060446E+02  0.82955060446E+02  0.00000000000E+00 0. -1.
          6    2    1    2  501    0 -0.73247572591E+02  0.50610201030E+02  0.19454149255E+03  0.27483325433E+03  0.17251181415E+03 0.  0.
         24    2    3    3    0    0 -0.59162005175E+02  0.85564299936E+02  0.19662446107E+03  0.23679878315E+03  0.81185545081E+02 0.  0.
         -6    2    1    2    0  502  0.73247572591E+02 -0.50610201030E+02  0.17181328019E+03  0.25743163931E+03  0.16977822689E+03 0.  0.
        -24    2    5    5    0    0  0.87292714730E+02 -0.88332482605E+02  0.15059542410E+03  0.21168752535E+03  0.81914474296E+02 0.  0.
          5    1    3    3  501    0 -0.14085567416E+02 -0.34954098906E+02 -0.20829685236E+01  0.38034471176E+02  0.47000000000E+01 0. -1.
        -11    1    4    4    0    0 -0.59471647840E+02  0.14928422371E+02  0.90553520295E+02  0.10936029777E+03  0.00000000000E+00 0.  1.
         12    1    4    4    0    0  0.30964266539E+00  0.70635877565E+02  0.10607094078E+03  0.12743848538E+03  0.00000000000E+00 0. -1.
         -5    1    5    5    0  502 -0.14045142139E+02  0.37722281574E+02  0.21217856094E+02  0.45744113961E+02  0.47000000000E+01 0.  1.
         13    1    6    6    0    0  0.29119840174E+02 -0.28216774433E+02  0.11284745720E+03  0.11991121736E+03  0.00000000000E+00 0. -1.
        -14    1    6    6    0    0  0.58172874556E+02 -0.60115708172E+02  0.37747966898E+02  0.91776307989E+02  0.00000000000E+00 0.  1.
</event>
<event>
12    1  0.1032880E+000  0.2169268E+03  0.7818608E-02  0.1136360E+00
         21   -1    0    0  503  502  0.00000000000E+00  0.00000000000E+00  0.75328822414E+03  0.75328822414E+03  0.00000000000E+00 0. -1.
         21   -1    0    0  501  503 -0.00000000000E+00 -0.00000000000E+00 -0.11523218362E+03  0.11523218362E+03  0.00000000000E+00 0. -1.
          6    2    1    2  501    0  0.52865250813E+02 -0.12076003210E+03  0.61322716472E+03  0.65017732664E+03  0.17118785131E+03 0.  0.
         24    2    3    3    0    0 -0.64003258059E+01 -0.11392178397E+03  0.52952514603E+03  0.54728277799E+03  0.78117999053E+02 0.  0.
         -6    2    1    2    0  502 -0.52865250813E+02  0.12076003210E+03  0.24828875799E+02  0.21834308112E+03  0.17227741554E+03 0.  0.
        -24    2    5    5    0    0 -0.82308534893E+02  0.37061694243E+02 -0.17778995966E+02  0.11980456341E+03  0.76738364714E+02 0.  0.
          5    1    3    3  501    0  0.59265576619E+02 -0.68382481281E+01  0.83702018690E+02  0.10289454865E+03  0.47000000000E+01 0. -1.
        -13    1    4    4    0    0 -0.14348521588E+02 -0.54853023609E+02  0.11208903139E+03  0.12561323668E+03  0.00000000000E+00 0.  1.
         14    1    4    4    0    0  0.79481957821E+01 -0.59068760361E+02  0.41743611464E+03  0.42166954131E+03  0.00000000000E+00 0. -1.
         -5    1    5    5    0  502  0.29443284080E+02  0.83698337856E+02  0.42607871765E+02  0.98538517715E+02  0.47000000000E+01 0.  1.
         13    1    6    6    0    0 -0.51108047075E+01 -0.10029310960E+02  0.19080814342E+02  0.22153665138E+02  0.00000000000E+00 0. -1.
        -14    1    6    6    0    0 -0.77197730185E+02  0.47091005202E+02 -0.36859810308E+02  0.97650898268E+02  0.00000000000E+00 0.  1.
</event>
<event>
12    1  0.1032880E+000  0.1832487E+03  0.7818608E-02  0.1164730E+00
         21   -1    0    0  501  502  0.00000000000E+00  0.00000000000E+00  0.16462954686E+04  0.16462954686E+04  0.00000000000E+00 0.  1.
         21   -1    0    0  502  503 -0.00000000000E+00 -0.00000000000E+00 -0.25365162665E+02  0.25365162665E+02  0.00000000000E+00 0.  1.
         -6    2    1    2    0  503  0.62680038782E+02  0.13264965946E+02  0.11807084597E+04  0.11948216879E+04  0.17152741004E+03 0.  0.
        -24    2    3    3    0    0  0.91406053715E+02  0.43306777875E+02  0.10390567781E+04  0.10471227262E+04  0.81218666494E+02 0.  0.
          6    2    1    2  501    0 -0.62680038782E+02 -0.13264965946E+02  0.44022184617E+03  0.47683894334E+03  0.17168388817E+03 0.  0.
         24    2    5    5    0    0 -0.40019791065E+02 -0.72960187430E+02  0.25788394918E+03  0.28358728106E+03  0.83623215125E+02 0.  0.
          5    1    5    5  501    0 -0.22660247717E+02  0.59695221484E+02  0.18233789699E+03  0.19325166228E+03  0.47000000000E+01 0. -1.
        -13    1    6    6    0    0 -0.23720125244E+02 -0.35803726416E+02  0.30660057961E+02  0.52769217552E+02  0.00000000000E+00 0.  1.
         14    1    6    6    0    0 -0.16299665821E+02 -0.37156461014E+02  0.22722389122E+03  0.23081806351E+03  0.00000000000E+00 0. -1.
         -5    1    3    3    0  503 -0.28726014933E+02 -0.30041811929E+02  0.14165168159E+03  0.14769896173E+03  0.47000000000E+01 0.  1.
         11    1    4    4    0    0  0.16122743184E+02  0.42005838272E+02  0.21643641157E+03  0.22106368664E+03  0.00000000000E+00 0. -1.
        -12    1    4    4    0    0  0.75283310531E+02  0.13009396022E+01  0.82262036657E+03  0.82605903953E+03  0.00000000000E+00 0.  1.
</event>
<event>
12    1  0.1032880E+000  0.2503331E+03  0.7818608E-02  0.1113165E+00
         21   -1    0    0  501  502  0.00000000000E+00  0.00000000000E+00  0.40975415632E+03  0.40975415632E+03  0.00000000000E+00 0.  1.
         21   -1    0    0  502  503 -0.00000000000E+00 -0.00000000000E+00 -0.18305580548E+03  0.18305580548E+03  0.00000000000E+00 0. -1.
         -6    2    1    2    0  503 -0.10903407306E+03  0.14490556356E+03  0.23403531064E+03  0.34236933446E+03  0.17192493453E+03 0.  0.
        -24    2    3    3    0    0 -0.90286307930E+02  0.24156626151E+02  0.14097250855E+03  0.18869903897E+03  0.83659543119E+02 0.  0.
          6    2    1    2  501    0  0.10903407306E+03 -0.14490556356E+03 -0.73369598008E+01  0.25044062734E+03  0.17257063889E+03 0.  0.
         24    2    5    5    0    0  0.77270490381E+02 -0.12446489768E+02  0.16399480724E+02  0.11209381667E+03  0.78552129035E+02 0.  0.
          5    1    5    5  501    0  0.31763582676E+02 -0.13245907379E+03 -0.23736440524E+02  0.13834681067E+03  0.47000000000E+01 0. -1.
        -13    1    6    6    0    0  0.27902381514E+02 -0.75303904431E+01  0.45997582574E+02  0.54323358484E+02  0.00000000000E+00 0.  1.
         14    1    6    6    0    0  0.49368108867E+02 -0.49160993252E+01 -0.29598101850E+02  0.57770458184E+02  0.00000000000E+00 0. -1.
         -5    1    3    3    0  503 -0.18747765127E+02  0.12074893741E+03  0.93062802083E+02  0.15367029549E+03  0.47000000000E+01 0.  1.
         13    1    4    4    0    0 -0.29987054100E+02  0.51199639556E+02  0.65238475577E+02  0.88185515817E+02  0.00000000000E+00 0. -1.
        -14    1    4    4    0    0 -0.60299253829E+02 -0.27043013405E+02  0.75734032975E+02  0.10051352316E+03  0.00000000000E+00 0.  1.
</event>
<event>
12    1  0.1032880E+000  0.1981684E+03  0.7818608E-02  0.1151771E+00
         21   -1    0    0  501  502  0.00000000000E+00  0.00000000000E+00  0.44985106190E+02  0.44985106190E+02  0.00000000000E+00 0. -1.
         21   -1    0    0  502  503 -0.00000000000E+00 -0.00000000000E+00 -0.87581560346E+03  0.87581560346E+03  0.00000000000E+00 0. -1.
         -6    2    1    2    0  503  0.42632534338E+02 -0.81486015524E+02 -0.46835143180E+03  0.50768838826E+03  0.17302292389E+03 0.  0.
        -24    2    3    3    0    0  0.90434900398E+02 -0.30660754373E+02 -0.30742215104E+03  0.33222159146E+03  0.82123406004E+02 0.  0.
          6    2    1    2  501    0 -0.42632534338E+02  0.81486015524E+02 -0.36247906546E+03  0.41311232139E+03  0.17553692908E+03 0.  0.
         24    2    5    5    0    0 -0.79526910742E+02  0.10450566667E+03 -0.29301282475E+03  0.33102244413E+03  0.80457312613E+02 0.  0.
          5    1    5    5  501    0  0.36894376404E+02 -0.23019651143E+02 -0.69466240710E+02  0.82089877253E+02  0.47000000000E+01 0. -1.
        -13    1    6    6    0    0 -0.85259101657E+02  0.74446535812E+02 -0.16980533001E+03  0.20407168154E+03  0.00000000000E+00 0.  1.
         14    1    6    6    0    0  0.57321909143E+01  0.30059130856E+02 -0.12320749474E+03  0.12695076259E+03  0.00000000000E+00 0. -1.
         -5    1    3    3    0  503 -0.47802366059E+02 -0.50825261151E+02 -0.16092928076E+03  0.17546679680E+03  0.47000000000E+01 0.  1.
         13    1    4    4    0    0  0.71355546638E+02 -0.14534639727E+02 -0.29586760219E+03  0.30469740369E+03  0.00000000000E+00 0. -1.
        -14    1    4    4    0    0  0.19079353760E+02 -0.16126114646E+02 -0.11554548851E+02  0.27524187774E+02  0.00000000000E+00 0.  1.
</event>
<event>
12    1  0.1032880E+000  0.1828512E+03  0.7818608E-02  0.1165600E+00
         21   -1    0    0  503  502  0.00000000000E+00  0.00000000000E+00  0.40776319242E+03  0.40776319242E+03  0.00000000000E+00 0.  1.
         21   -1    0    0  501  503 -0.00000000000E+00 -0.00000000000E+00 -0.85256230409E+02  0.85256230409E+02  0.00000000000E+00 0.  1.
          6    2    1    2  501    0  0.53851128751E+02  0.96683596443E+01  0.10714592504E+03  0.21193116561E+03  0.17447391913E+03 0.  0.
         24    2    3    3    0    0 -0.15806218327E+02 -0.47372008176E+02  0.35609710125E+02  0.96843070623E+02  0.74943880177E+02 0.  0.
         -6    2    1    2    0  502 -0.53851128751E+02 -0.96683596443E+01  0.21536103698E+03  0.28108825722E+03  0.17215345148E+03 0.  0.
        -24    2    5    5    0    0 -0.52086167241E+01  0.50629596690E+02  0.15899422417E+03  0.18516513645E+03  0.80102925572E+02 0.  0.
          5    1    3    3  501    0  0.69657347078E+02  0.57040367820E+02  0.71536214913E+02  0.11508809498E+03  0.47000000000E+01 0. -1.
        -11    1    4    4    0    0  0.15338399313E+02 -0.27685447945E+02  0.48409673513E+02  0.57838110369E+02  0.00000000000E+00 0.  1.
         12    1    4    4    0    0 -0.31144617640E+02 -0.19686560231E+02 -0.12799963388E+02  0.39004960254E+02  0.00000000000E+00 0. -1.
         -5    1    5    5    0  502 -0.48642512027E+02 -0.60297956335E+02  0.56366812803E+02  0.95923120779E+02  0.47000000000E+01 0.  1.
         13    1    6    6    0    0  0.37478540088E+02  0.24651712587E+02  0.71534728692E+02  0.84436753310E+02  0.00000000000E+00 0. -1.
        -14    1    6    6    0    0 -0.42687156812E+02  0.25977884103E+02  0.87459495482E+02  0.10072838314E+03  0.00000000000E+00 0.  1.
</event>
<event>
12    1  0.1032880E+000  0.2197803E+03  0.7818608E-02  0.1135601E+00
         21   -1    0    0  501  502  0.00000000000E+00  0.00000000000E+00  0.49689087872E+02  0.49689087872E+02  0.00000000000E+00 0.  1.
         21   -1    0    0  502  503 -0.00000000000E+00 -0.00000000000E+00 -0.17488921999E+04  0.17488921999E+04  0.00000000000E+00 0.  1.
         -6    2    1    2    0  503 -0.13390910484E+03 -0.25687108832E+02 -0.24529148546E+03  0.32934978297E+03  0.17237137461E+03 0.  0.
        -24    2    3    3    0    0 -0.11467840270E+03 -0.80856215742E+02 -0.16734468649E+03  0.23182417745E+03  0.77777512717E+02 0.  0.
          6    2    1    2  501    0  0.13390910484E+03  0.25687108832E+02 -0.14539116265E+04  0.14692315048E+04  0.16183547484E+03 0.  0.
         24    2    5    5    0    0  0.67782966286E+01  0.40902650546E+01 -0.47150461579E+03  0.47838626417E+03  0.80462037403E+02 0.  0.
          5    1    5    5  501    0  0.12713080821E+03  0.21596843777E+02 -0.98240701073E+03  0.99084524058E+03  0.47000000000E+01 0. -1.
        -11    1    6    6    0    0 -0.23533135260E+02 -0.10908929256E+00 -0.39893628366E+03  0.39962980216E+03  0.00000000000E+00 0.  1.
         12    1    6    6    0    0  0.30311431889E+02  0.41993543472E+01 -0.72568332130E+02  0.78756462009E+02  0.00000000000E+00 0. -1.
         -5    1    3    3    0  503 -0.19230702138E+02  0.55169106910E+02 -0.77946798967E+02  0.97525605516E+02  0.47000000000E+01 0.  1.
         11    1    4    4    0    0 -0.12234613986E+03 -0.63618431265E+02 -0.16085463886E+03  0.21187283351E+03  0.00000000000E+00 0. -1.
        -12    1    4    4    0    0  0.76677371656E+01 -0.17237784476E+02 -0.64900476348E+01  0.19951343945E+02  0.00000000000E+00 0.  1.
</event>
<event>
12    1  0.1032880E+000  0.4453031E+03  0.7818608E-02  0.1029349E+00
         21   -1    0    0  503  502  0.00000000000E+00  0.00000000000E+00  0.17646667816E+04  0.17646667816E+04  0.00000000000E+00 0.  1.
         21   -1    0    0  501  503 -0.00000000000E+00 -0.00000000000E+00 -0.13225719438E+03  0.13225719438E+03  0.00000000000E+00 0.  1.
          6    2    1    2  501    0  0.20101345296E+03  0.35187450665E+03  0.11883777957E+04  0.12680686247E+04  0.17757864436E+03 0.  0.
         24    2    3    3    0    0  0.67887429333E+02  0.72816936155E+02  0.32120219500E+03  0.34741055665E+03  0.87248126319E+02 0.  0.
         -6    2    1    2    0  502 -0.20101345296E+03 -0.35187450665E+03  0.44403179151E+03  0.62885535127E+03  0.18458803929E+03 0.  0.
        -24    2    5    5    0    0 -0.46126598946E+02 -0.12157165243E+03  0.82273941609E+02  0.17287270448E+03  0.78794928016E+02 0.  0.
          5    1    3    3  501    0  0.13312602363E+03  0.27905757049E+03  0.86717560066E+03  0.92065806801E+03  0.47000000000E+01 0. -1.
        -11    1    4    4    0    0 -0.17809567579E+02 -0.20264422424E+01  0.56961161111E+02  0.59714830994E+02  0.00000000000E+00 0.  1.
         12    1    4    4    0    0  0.85696996912E+02  0.74843378398E+02  0.26424103389E+03  0.28769572566E+03  0.00000000000E+00 0. -1.
         -5    1    5    5    0  502 -0.15488685401E+03 -0.23030285422E+03  0.36175784990E+03  0.45598264679E+03  0.47000000000E+01 0.  1.
         13    1    6    6    0    0 -0.61756491213E+02 -0.94393430109E+02  0.85233194588E+02  0.14138133298E+03  0.00000000000E+00 0. -1.
        -14    1    6    6    0    0  0.15629892267E+02 -0.27178222323E+02 -0.29592529796E+01  0.31491371503E+02  0.00000000000E+00 0.  1.
</event>
<event>
12    1  0.1032880E+000  0.2879033E+03  0.7818608E-02  0.1091770E+00
         21   -1    0    0  503  502  0.00000000000E+00  0.00000000000E+00  0.12699926649E+04  0.12699926649E+04  0.00000000000E+00 0. -1.
         21   -1    0    0  501  503 -0.00000000000E+00 -0.00000000000E+00 -0.64726490923E+02  0.64726490923E+02  0.00000000000E+00 0.  1.
          6    2    1    2  501    0  0.21116402707E+03 -0.89105920568E+02  0.59277138806E+03  0.65793399605E+03  0.17020315286E+03 0.  0.
         24    2    3    3    0    0  0.89035053060E+02 -0.10862082882E+03  0.31469235753E+03  0.35355535824E+03  0.79021429490E+02 0.  0.
         -6    2    1    2    0  502 -0.21116402707E+03  0.89105920568E+02  0.61249478589E+03  0.67678515975E+03  0.17423598452E+03 0.  0.
        -24    2    5    5    0    0 -0.11066361319E+03  0.11941822119E+03  0.41502544793E+03  0.45309922324E+03  0.80905110026E+02 0.  0.
          5    1    3    3  501    0  0.12212897401E+03  0.19514908256E+02  0.27807903053E+03  0.30437863782E+03  0.47000000000E+01 0. -1.
        -11    1    4    4    0    0  0.23429430951E+02 -0.50644500838E+02  0.20894467626E+03  0.21626761533E+03  0.00000000000E+00 0.  1.
         12    1    4    4    0    0  0.65605622108E+02 -0.57976327987E+02  0.10574768127E+03  0.13728774291E+03  0.00000000000E+00 0. -1.
         -5    1    5    5    0  502 -0.10050041388E+03 -0.30312300626E+02  0.19746933796E+03  0.22368593651E+03  0.47000000000E+01 0.  1.
         11    1    6    6    0    0 -0.92379687346E+02  0.12099179794E+03  0.40391038534E+03  0.43164409088E+03  0.00000000000E+00 0. -1.
        -12    1    6    6    0    0 -0.18283925848E+02 -0.15735767412E+01  0.11115062588E+02  0.21455132358E+02  0.00000000000E+00 0.  1.
</event>
<event>
12    1  0.1032880E+000  0.3492177E+03  0.7818608E-02  0.1062961E+00
         21   -1    0    0  501  502  0.00000000000E+00  0.00000000000E+00  0.21451531343E+03  0.21451531343E+03  0.00000000000E+00 0.  1.
         21   -1    0    0  502  503 -0.00000000000E+00 -0.00000000000E+00 -0.11359058056E+04  0.11359058056E+04  0.00000000000E+00 0.  1.
         -6    2    1    2    0  503 -0.26055147460E+03  0.15756948044E+03 -0.93799299300E+03  0.10008089951E+04  0.17050682584E+03 0.  0.
        -24    2    3    3    0    0 -0.79633732680E+02  0.56604776501E+02 -0.22423625751E+03  0.25757560763E+03  0.80732040480E+02 0.  0.
          6    2    1    2  501    0  0.26055147460E+03 -0.15756948044E+03  0.16602500866E+02  0.34961212390E+03  0.17099059054E+03 0.  0.
         24    2    5    5    0    0  0.14411395555E+03 -0.80660212668E+02  0.73871491964E+02  0.19869970342E+03  0.82156391848E+02 0.  0.
          5    1    5    5  501    0  0.11643751905E+03 -0.76909267776E+02 -0.57268991098E+02  0.15091242048E+03  0.47000000000E+01 0. -1.
        -11    1    6    6    0    0  0.67674105010E+02  0.62529371188E+01  0.18762328673E+02  0.70504671397E+02  0.00000000000E+00 0.  1.
         12    1    6    6    0    0  0.76439850544E+02 -0.86913149787E+02  0.55109163291E+02  0.12819503202E+03  0.00000000000E+00 0. -1.
         -5    1    3    3    0  503 -0.18091774192E+03  0.10096470394E+03 -0.71375673549E+03  0.74323338747E+03  0.47000000000E+01 0.  1.
         11    1    4    4    0    0 -0.73718735476E+02  0.58403691954E+01 -0.11147750735E+03  0.13377517153E+03  0.00000000000E+00 0. -1.
        -12    1    4    4    0    0 -0.59149972041E+01  0.50764407305E+02 -0.11275875016E+03  0.12380043610E+03  0.00000000000E+00 0.  1.
</event>
<event>
12    1  0.1032880E+000  0.2949151E+03  0.7818608E-02  0.1087815E+00
         21   -1    0    0  501  502  0.00000000000E+00  0.00000000000E+00  0.62576941125E+03  0.62576941125E+03  0.00000000000E+00 0.  1.
         21   -1    0    0  502  503 -0.00000000000E+00 -0.00000000000E+00 -0.17391274701E+03  0.17391274701E+03  0.00000000000E+00 0.  1.
         -6    2    1    2    0  503 -0.23700463877E+03 -0.33046191149E+02  0.46721400291E+02  0.29859299414E+03  0.17237063949E+03 0.  0.
        -24    2    3    3    0    0 -0.46784531076E+02 -0.40032793102E+02  0.26690985335E+02  0.10713592454E+03  0.83512159339E+02 0.  0.
          6    2    1    2  501    0  0.23700463877E+03  0.33046191149E+02  0.40513526395E+03  0.50108916412E+03  0.17231517274E+03 0.  0.
         24    2    5    5    0    0  0.89185995199E+02 -0.20689550355E+02  0.93762179510E+02  0.15221501917E+03  0.77432980836E+02 0.  0.
          5    1    5    5  501    0  0.14781864357E+03  0.53735741505E+02  0.31137308444E+03  0.34887414495E+03  0.47000000000E+01 0. -1.
        -11    1    6    6    0    0  0.66132210901E+02  0.23236713895E+02  0.59254276062E+02  0.91784984736E+02  0.00000000000E+00 0.  1.
         12    1    6    6    0    0  0.23053784297E+02 -0.43926264250E+02  0.34507903447E+02  0.60430034434E+02  0.00000000000E+00 0. -1.
         -5    1    3    3    0  503 -0.19022010769E+03  0.69866019523E+01  0.20030414956E+02  0.19145706960E+03  0.47000000000E+01 0.  1.
         11    1    4    4    0    0 -0.36882575611E+02 -0.31200045336E+01  0.50121471878E+02  0.62307469497E+02  0.00000000000E+00 0. -1.
        -12    1    4    4    0    0 -0.99019554653E+01 -0.36912788568E+02 -0.23430486543E+02  0.44828455043E+02  0.00000000000E+00 0.  1.
</event>
<event>
12    1  0.1032880E+000  0.1729562E+03  0.7818608E-02  0.1176365E+00
         21   -1    0    0  501  502  0.00000000000E+00  0.00000000000E+00  0.34701879144E+02  0.34701879144E+02  0.00000000000E+00 0.  1.
         21   -1    0    0  502  503 -0.00000000000E+00 -0.00000000000E+00 -0.10012669513E+04  0.10012669513E+04  0.00000000000E+00 0.  1.
         -6    2    1    2    0  503  0.19105906489E+01  0.27095450342E+02 -0.68894495488E+03  0.70888048556E+03  0.16470755348E+03 0.  0.
        -24    2    3    3    0    0 -0.34554888449E+02  0.62636358350E+02 -0.55195517965E+03  0.56265745104E+03  0.82532012978E+02 0.  0.
          6    2    1    2  501    0 -0.19105906489E+01 -0.27095450342E+02 -0.27762011727E+03  0.32708834487E+03  0.17080995888E+03 0.  0.
         24    2    5    5    0    0  0.54679141706E+02  0.14098470627E+02 -0.12191617240E+03  0.15631028603E+03  0.79879765994E+02 0.  0.
          5    1    5    5  501    0 -0.56589732355E+02 -0.41193920969E+02 -0.15570394488E+03  0.17077805884E+03  0.47000000000E+01 0. -1.
        -13    1    6    6    0    0  0.33547119302E+02  0.34838869388E+02 -0.11659260780E+03  0.12622595702E+03  0.00000000000E+00 0.  1.
         14    1    6    6    0    0  0.21132022403E+02 -0.20740398761E+02 -0.53235645979E+01  0.30084329005E+02  0.00000000000E+00 0. -1.
         -5    1    3    3    0  503  0.36465479098E+02 -0.35540908008E+02 -0.13698977522E+03  0.14622303452E+03  0.47000000000E+01 0.  1.
         11    1    4    4    0    0 -0.57870963210E+00  0.70789378426E+02 -0.29706207201E+03  0.30538065694E+03  0.00000000000E+00 0. -1.
        -12    1    4    4    0    0 -0.33976178817E+02 -0.81530200761E+01 -0.25489310764E+03  0.25727679411E+03  0.00000000000E+00 0.  1.
</event>
<event>
12    1  0.1032880E+000  0.2194761E+03  0.7818608E-02  0.1134805E+00
         21   -1    0    0  501  502  0.00000000000E+00  0.00000000000E+00  0.54728185845E+03  0.54728185845E+03  0.00000000000E+00 0.  1.
         21   -1    0    0  502  503 -0.00000000000E+00 -0.00000000000E+00 -0.10874576740E+03  0.10874576740E+03  0.00000000000E+00 0. -1.
         -6    2    1    2    0  503  0.13261454061E+03 -0.32365170889E+02  0.36518515625E+03  0.42461868673E+03  0.16824598095E+03 0.  0.
        -24    2    3    3    0    0  0.75625529574E+02 -0.61595482240E+02  0.32503994315E+03  0.34888305036E+03  0.80964152765E+02 0.  0.
          6    2    1    2  501    0 -0.13261454061E+03  0.32365170889E+02  0.73350934801E+02  0.23140893912E+03  0.17185929360E+03 0.  0.
         24    2    5    5    0    0 -0.16275221352E+02 -0.20934987851E+02  0.64233203783E+02  0.10303071999E+03  0.76067524257E+02 0.  0.
          5    1    5    5  501    0 -0.11633931926E+03  0.53300158740E+02  0.91177310179E+01  0.12837821913E+03  0.47000000000E+01 0. -1.
        -11    1    6    6    0    0 -0.20992020297E+02  0.25803837833E+02  0.31167499589E+02  0.45584163847E+02  0.00000000000E+00 0.  1.
         12    1    6    6    0    0  0.47167989443E+01 -0.46738825683E+02  0.33065704194E+02  0.57446556140E+02  0.00000000000E+00 0. -1.
         -5    1    3    3    0  503  0.56989011041E+02  0.29230311351E+02  0.40145213098E+02  0.75735636366E+02  0.47000000000E+01 0.  1.
         11    1    4    4    0    0  0.58797323571E+02 -0.45067759888E+02  0.11040977569E+03  0.13296069648E+03  0.00000000000E+00 0. -1.
        -12    1    4    4    0    0  0.16828206003E+02 -0.16527722351E+02  0.21463016746E+03  0.21592235388E+03  0.00000000000E+00 0.  1.
</event>
<event>
12    1  0.1032880E+000  0.2518959E+03  0.7818608E-02  0.1112226E+00
         21   -1    0    0  501  502  0.00000000000E+00  0.00000000000E+00  0.16426050932E+03  0.16426050932E+03  0.00000000000E+00 0.  1.
         21   -1    0    0  502  503 -0.00000000000E+00 -0.00000000000E+00 -0.42194439465E+03  0.42194439465E+03  0.00000000000E+00 0. -1.
         -6    2    1    2    0  503  0.16563146123E+03  0.78376462473E+02 -0.21553235522E+03  0.33152037972E+03  0.17284361487E+03 0.  0.
        -24    2    3    3    0    0  0.12432607308E+02  0.15223560788E+02 -0.50756085373E+02  0.97786584688E+02  0.81238595599E+02 0.  0.
          6    2    1    2  501    0 -0.16563146123E+03 -0.78376462473E+02 -0.42151530112E+02  0.25468452425E+03  0.17178709085E+03 0.  0.
         24    2    5    5    0    0 -0.10787428500E+03  0.16713703167E+02  0.43606124091E+01  0.13400519541E+03  0.77602630230E+02 0.  0.
          5    1    5    5  501    0 -0.57757176230E+02 -0.95090165640E+02 -0.46512142521E+02  0.12067932884E+03  0.47000000000E+01 0. -1.
        -13    1    6    6    0    0 -0.69421432968E+02 -0.12520005288E+02  0.32968910173E+02  0.77865492522E+02  0.00000000000E+00 0.  1.
         14    1    6    6    0    0 -0.38452852032E+02  0.29233708455E+02 -0.28608297764E+02  0.56139702888E+02  0.00000000000E+00 0. -1.
         -5    1    3    3    0  503  0.15319885392E+03  0.63152901685E+02 -0.16477626985E+03  0.23373379503E+03  0.47000000000E+01 0.  1.
         11    1    4    4    0    0  0.14814331804E+02 -0.25884944669E+01 -0.69917625921E+02  0.71516705355E+02  0.00000000000E+00 0. -1.
        -12    1    4    4    0    0 -0.23817244960E+01  0.17812055255E+02  0.19161540548E+02  0.26269879333E+02  0.00000000000E+00 0.  1.
</event>
<event>
12    1  0.1032880E+000  0.1798316E+03  0.7818608E-02  0.1168107E+00
         21   -1    0    0  501  502  0.00000000000E+00  0.00000000000E+00  0.20757400959E+03  0.20757400959E+03  0.00000000000E+00 0.  1.
         21   -1    0    0  502  503 -0.00000000000E+00 -0.00000000000E+00 -0.15840020216E+03  0.15840020216E+03  0.00000000000E+00 0.  1.
         -6    2    1    2    0  503  0.14735214010E+02 -0.43747775842E+02  0.50245877371E+02  0.18671922509E+03  0.17380571452E+03 0.  0.
        -24    2    3    3    0    0  0.98666071951E+01 -0.82766768808E+01  0.97579691813E+02  0.12718367114E+03  0.80548349664E+02 0.  0.
          6    2    1    2  501    0 -0.14735214010E+02  0.43747775842E+02 -0.10720699395E+01  0.17925498666E+03  0.17320567683E+03 0.  0.
         24    2    5    5    0    0 -0.15775986130E+02 -0.12649329896E+02  0.55538692195E+02  0.99201347568E+02  0.79671034531E+02 0.  0.
          5    1    5    5  501    0  0.10407721202E+01  0.56397105738E+02 -0.56610762134E+02  0.80053639091E+02  0.47000000000E+01 0. -1.
        -13    1    6    6    0    0  0.25734578464E+02 -0.27297595292E+02  0.19326702621E+02  0.42201287559E+02  0.00000000000E+00 0.  1.
         14    1    6    6    0    0 -0.41510564594E+02  0.14648265396E+02  0.36211989574E+02  0.57000060008E+02  0.00000000000E+00 0. -1.
         -5    1    3    3    0  503  0.48686068151E+01 -0.35471098961E+02 -0.47333814441E+02  0.59535553944E+02  0.47000000000E+01 0.  1.
         13    1    4    4    0    0  0.34621472910E+02  0.20523857485E+02  0.32071517522E+02  0.51463164970E+02  0.00000000000E+00 0. -1.
        -14    1    4    4    0    0 -0.24754865715E+02 -0.28800534366E+02  0.65508174291E+02  0.75720506174E+02  0.00000000000E+00 0.  1.
</event>
<event>
12    1  0.1032880E+000  0.2378611E+03  0.7818608E-02  0.1122652E+00
         21   -1    0    0  503  502  0.00000000000E+00  0.00000000000E+00  0.43136565750E+03  0.43136565750E+03  0.00000000000E+00 0.  1.
         21   -1    0    0  501  503 -0.00000000000E+00 -0.00000000000E+00 -0.13118539717E+03  0.13118539717E+03  0.00000000000E+00 0.  1.
          6    2    1    2  501    0 -0.15719230198E+03 -0.28775869272E+02  0.95057883056E+02  0.24846013641E+03  0.16479978093E+03 0.  0.
         24    2    3    3    0    0 -0.32208190417E+02 -0.54036276236E+02  0.47435713352E+02  0.11226513888E+03  0.79975170063E+02 0.  0.
         -6    2    1    2    0  502  0.15719230198E+03  0.28775869272E+02  0.20512237728E+03  0.31409091827E+03  0.17618298677E+03 0.  0.
        -24    2    5    5    0    0  0.11581801316E+03  0.85819804117E+02  0.16510345792E+03  0.23291551446E+03  0.78813920758E+02 0.  0.
          5    1    3    3  501    0 -0.12498411157E+03  0.25260406965E+02  0.47622169704E+02  0.13619499753E+03  0.47000000000E+01 0. -1.
        -11    1    4    4    0    0 -0.12088210946E+02  0.16402572933E+02 -0.63970856377E+01  0.21356309311E+02  0.00000000000E+00 0.  1.
         12    1    4    4    0    0 -0.20119979471E+02 -0.70438849170E+02  0.53832798989E+02  0.90908829567E+02  0.00000000000E+00 0. -1.
         -5    1    5    5    0  502  0.41374288828E+02 -0.57043934845E+02  0.40018919351E+02  0.81175403816E+02  0.47000000000E+01 0.  1.
         13    1    6    6    0    0  0.86954692132E+02  0.96978782199E+02  0.11360888035E+03  0.17283801773E+03  0.00000000000E+00 0. -1.
        -14    1    6    6    0    0  0.28863321025E+02 -0.11158978082E+02  0.51494577579E+02  0.60077496723E+02  0.00000000000E+00 0.  1.
</event>
<event>
12    1  0.1032880E+000  0.2089896E+03  0.7818608E-02  0.1142861E+00
         21   -1    0    0  501  502  0.00000000000E+00  0.00000000000E+00  0.23865773588E+03  0.23865773588E+03  0.00000000000E+00 0. -1.
         21   -1    0    0  502  503 -0.00000000000E+00 -0.00000000000E+00 -0.18218278106E+03  0.18218278106E+03  0.00000000000E+00 0. -1.
         -6    2    1    2    0  503 -0.11027531796E+03 -0.29957143309E+02  0.10178880479E+02  0.20678447990E+03  0.17204108617E+03 0.  0.
        -24    2    3    3    0    0 -0.19797383895E+02 -0.52197476816E+01 -0.52472756588E+02  0.93888452852E+02  0.75116371185E+02 0.  0.
          6    2    1    2  501    0  0.11027531796E+03  0.29957143309E+02  0.46296074342E+02  0.21405603704E+03  0.17498166849E+03 0.  0.
         24    2    5    5    0    0  0.13547690896E+03  0.55791198073E+02  0.55534831207E+02  0.17650656031E+03  0.81263753987E+02 0.  0.
          5    1    5    5  501    0 -0.25201590997E+02 -0.25834054764E+02 -0.92387568651E+01  0.37549476731E+02  0.47000000000E+01 0. -1.
        -13    1    6    6    0    0  0.10527792309E+03  0.12643664612E+02  0.62963312457E+02  0.12331943100E+03  0.00000000000E+00 0.  1.
         14    1    6    6    0    0  0.30198985868E+02  0.43147533461E+02 -0.74284812499E+01  0.53187129316E+02  0.00000000000E+00 0. -1.
         -5    1    3    3    0  503 -0.90477934070E+02 -0.24737395627E+02  0.62651637067E+02  0.11289602705E+03  0.47000000000E+01 0.  1.
         11    1    4    4    0    0 -0.74902248900E+01  0.30940022768E+02 -0.38635797528E+01  0.32067362322E+02  0.00000000000E+00 0. -1.
        -12    1    4    4    0    0 -0.12307159005E+02 -0.36159770450E+02 -0.48609176835E+02  0.61821090530E+02  0.00000000000E+00 0.  1.
</event>
<event>
12    1  0.1032880E+000  0.2954840E+03  0.7818608E-02  0.1087553E+00
         21   -1    0    0  501  502  0.00000000000E+00  0.00000000000E+00  0.38058105146E+02  0.38058105146E+02  0.00000000000E+00 0.  1.
         21   -1    0    0  502  503 -0.00000000000E+00 -0.00000000000E+00 -0.31090600948E+04  0.31090600948E+04  0.00000000000E+00 0.  1.
         -6    2    1    2    0  503 -0.14859440939E+03  0.18832550807E+03 -0.23425738466E+04  0.23611359623E+04  0.17252249203E+03 0.  0.
        -24    2    3    3    0    0 -0.12673840126E+03  0.63261585192E+02 -0.15310429681E+04  0.15397206431E+04  0.81132225835E+02 0.  0.
          6    2    1    2  501    0  0.14859440939E+03 -0.18832550807E+03 -0.72842814302E+03  0.78598223760E+03  0.17208638176E+03 0.  0.
         24    2    5    5    0    0  0.62376872053E+02 -0.42350331629E+02 -0.41759470016E+03  0.43188940361E+03  0.80366028858E+02 0.  0.
          5    1    5    5  501    0  0.86217537336E+02 -0.14597517644E+03 -0.31083344287E+03  0.35409283399E+03  0.47000000000E+01 0. -1.
        -13    1    6    6    0    0  0.47801885044E+02  0.11010743414E+02 -0.26673551974E+03  0.27120858057E+03  0.00000000000E+00 0.  1.
         14    1    6    6    0    0  0.14574987009E+02 -0.53361075043E+02 -0.15085918041E+03  0.16068082303E+03  0.00000000000E+00 0. -1.
         -5    1    3    3    0  503 -0.21856008132E+02  0.12506392288E+03 -0.81153087854E+03  0.82141531926E+03  0.47000000000E+01 0.  1.
         11    1    4    4    0    0 -0.45562859238E+02  0.60855859586E+02 -0.94888195182E+03  0.95192245918E+03  0.00000000000E+00 0. -1.
        -12    1    4    4    0    0 -0.81175542019E+02  0.24057256054E+01 -0.58216101626E+03  0.58779818389E+03  0.00000000000E+00 0.  1.
</event>
<event>
12    1  0.1032880E+000  0.2611891E+03  0.7818608E-02  0.1106589E+00
         21   -1    0    0  503  502  0.00000000000E+00  0.00000000000E+00  0.10476657710E+04  0.10476657710E+04  0.00000000000E+00 0. -1.
         21   -1    0    0  501  503 -0.00000000000E+00 -0.00000000000E+00 -0.76513935362E+02  0.76513935362E+02  0.00000000000E+00 0. -1.
          6    2    1    2  501    0  0.13277380584E+03 -0.14349495839E+03  0.26697251128E+03  0.37348906072E+03  0.17320528310E+03 0.  0.
         24    2    3    3    0    0  0.21563067220E+02 -0.93629782428E+02  0.52899770177E+02  0.12710806989E+03  0.64238413119E+02 0.  0.
         -6    2    1    2    0  502 -0.13277380584E+03  0.14349495839E+03  0.70417932435E+03  0.75069064564E+03  0.17160488923E+03 0.  0.
        -24    2    5    5    0    0 -0.37919396962E+02  0.89536078588E+02  0.53257312264E+03  0.54727064156E+03  0.80102647409E+02 0.  0.
          5    1    3    3  501    0  0.11121073862E+03 -0.49865175962E+02  0.21407274110E+03  0.24638099083E+03  0.47000000000E+01 0. -1.
        -11    1    4    4    0    0  0.43589223910E+02 -0.73884024092E+02  0.42651160621E+02  0.95801831712E+02  0.00000000000E+00 0.  1.
         12    1    4    4    0    0 -0.22026156690E+02 -0.19745758337E+02  0.10248609556E+02  0.31306238175E+02  0.00000000000E+00 0. -1.
         -5    1    5    5    0  502 -0.94854408881E+02  0.53958879802E+02  0.17160620171E+03  0.20342000408E+03  0.47000000000E+01 0.  1.
         11    1    6    6    0    0 -0.60680282033E+02  0.66964741997E+02  0.32883014512E+03  0.34102146214E+03  0.00000000000E+00 0. -1.
        -12    1    6    6    0    0  0.22760885071E+02  0.22571336592E+02  0.20374297752E+03  0.20624917942E+03  0.00000000000E+00 0.  1.
</event>
<event>
12    1  0.1032880E+000  0.2410376E+03  0.7818608E-02  0.1120958E+00
         21   -1    0    0  503  502  0.00000000000E+00  0.00000000000E+00  0.50745535636E+03  0.50745535636E+03  0.00000000000E+00 0.  1.
         21   -1    0    0  501  503 -0.00000000000E+00 -0.00000000000E+00 -0.11823505687E+03  0.11823505687E+03  0.00000000000E+00 0.  1.
          6    2    1    2  501    0 -0.84930614968E+02 -0.12674583072E+03  0.11310245086E+03  0.26625420917E+03  0.18660499604E+03 0.  0.
         24    2    3    3    0    0 -0.63832903102E+02 -0.14022679722E+03  0.14251236017E+03  0.22734556400E+03  0.87395872273E+02 0.  0.
         -6    2    1    2    0  502  0.84930614968E+02  0.12674583072E+03  0.27611784863E+03  0.35943620406E+03  0.17226608341E+03 0.  0.
        -24    2    5    5    0    0  0.21931229271E+02  0.28860854062E+00  0.14293635739E+03  0.16522047028E+03  0.79912073080E+02 0.  0.
          5    1    3    3  501    0 -0.21097711867E+02  0.13480966503E+02 -0.29409909306E+02  0.38908645174E+02  0.47000000000E+01 0. -1.
        -11    1    4    4    0    0  0.19963273340E+02 -0.50426459863E+02  0.46712861399E+02  0.71578289704E+02  0.00000000000E+00 0.  1.
         12    1    4    4    0    0 -0.83796176442E+02 -0.89800337357E+02  0.95799498771E+02  0.15576727429E+03  0.00000000000E+00 0. -1.
         -5    1    5    5    0  502  0.62999385697E+02  0.12645722218E+03  0.13318149125E+03  0.19421573378E+03  0.47000000000E+01 0.  1.
         11    1    6    6    0    0  0.30370048755E+02  0.35180654088E+02  0.89464000084E+02  0.10081580032E+03  0.00000000000E+00 0. -1.
        -12    1    6    6    0    0 -0.84388194842E+01 -0.34892045548E+02  0.53472357301E+02  0.64404669956E+02  0.00000000000E+00 0.  1.
</event>
<event>
12    1  0.1032880E+000  0.4167067E+03  0.7818608E-02  0.1038213E+00
         21   -1    0    0  501  502  0.00000000000E+00  0.00000000000E+00  0.67114535509E+03  0.67114535509E+03  0.00000000000E+00 0.  1.
         21   -1    0    0  502  503 -0.00000000000E+00 -0.00000000000E+00 -0.25867506719E+03  0.25867506719E+03  0.00000000000E+00 0.  1.
         -6    2    1    2    0  503  0.26890788212E+03 -0.26803904949E+03  0.22633884479E+03  0.47420855069E+03  0.17172098233E+03 0.  0.
        -24    2    3    3    0    0  0.24779799436E+03 -0.25235004209E+03  0.24982102500E+03  0.43863784502E+03  0.70058723945E+02 0.  0.
          6    2    1    2  501    0 -0.26890788212E+03  0.26803904949E+03  0.18613144311E+03  0.45561187159E+03  0.16964929208E+03 0.  0.
         24    2    5    5    0    0 -0.47182061097E+02  0.86616240770E+02  0.46128462795E+02  0.13670828157E+03  0.82660747121E+02 0.  0.
          5    1    5    5  501    0 -0.22172582103E+03  0.18142280872E+03  0.14000298032E+03  0.31890359002E+03  0.47000000000E+01 0. -1.
        -13    1    6    6    0    0  0.19494092670E+02  0.10606446297E+02 -0.59472828523E+01  0.22975781279E+02  0.00000000000E+00 0.  1.
         14    1    6    6    0    0 -0.66676153767E+02  0.76009794472E+02  0.52075745647E+02  0.11373250029E+03  0.00000000000E+00 0. -1.
         -5    1    3    3    0  503  0.21109887766E+02 -0.15689007394E+02 -0.23482180211E+02  0.35570705672E+02  0.47000000000E+01 0.  1.
         11    1    4    4    0    0  0.13798349530E+03 -0.18815835213E+03  0.16357651284E+03  0.28495663881E+03  0.00000000000E+00 0. -1.
        -12    1    4    4    0    0  0.10981449906E+03 -0.64191689962E+02  0.86244512161E+02  0.15368120621E+03  0.00000000000E+00 0.  1.
</event>
<event>
12    1  0.1032880E+000  0.1738648E+03  0.7818608E-02  0.1174151E+00
         21   -1    0    0  503  502  0.00000000000E+00  0.00000000000E+00  0.31220177845E+03  0.31220177845E+03  0.00000000000E+00 0.  1.
         21   -1    0    0  501  503 -0.00000000000E+00 -0.00000000000E+00 -0.10826280350E+03  0.10826280350E+03  0.00000000000E+00 0.  1.
          6    2    1    2  501    0  0.11486505759E+02  0.17738996589E+02  0.31581804975E+02  0.17564633530E+03  0.17148648018E+03 0.  0.
         24    2    3    3    0    0 -0.32606075774E+02  0.22355022188E+01  0.77515247920E+02  0.10994637134E+03  0.70791505580E+02 0.  0.
         -6    2    1    2    0  502 -0.11486505759E+02 -0.17738996589E+02  0.17235716997E+03  0.24481824665E+03  0.17257568786E+03 0.  0.
        -24    2    5    5    0    0 -0.10252426848E+01  0.24528982599E+02  0.18010597341E+03  0.20034180295E+03  0.84237487144E+02 0.  0.
          5    1    3    3  501    0  0.44092581533E+02  0.15503494371E+02 -0.45933442945E+02  0.65699963963E+02  0.47000000000E+01 0. -1.
        -11    1    4    4    0    0 -0.36871350031E+02 -0.16898102000E+02  0.13112218139E+02  0.42625961208E+02  0.00000000000E+00 0.  1.
         12    1    4    4    0    0  0.42652742572E+01  0.19133604219E+02  0.64403029780E+02  0.67320410128E+02  0.00000000000E+00 0. -1.
         -5    1    5    5    0  502 -0.10461263074E+02 -0.42267979189E+02 -0.77488034403E+01  0.44476443704E+02  0.47000000000E+01 0.  1.
         13    1    6    6    0    0  0.12566954885E+02 -0.29261564756E+02  0.75279517081E+02  0.81738443947E+02  0.00000000000E+00 0. -1.
        -14    1    6    6    0    0 -0.13592197570E+02  0.53790547355E+02  0.10482645633E+03  0.11860335900E+03  0.00000000000E+00 0.  1.
</event>
<event>
12    1  0.1032880E+000  0.1901749E+03  0.7818608E-02  0.1158747E+00
         21   -1    0    0  503  502  0.00000000000E+00  0.00000000000E+00  0.16029266523E+03  0.16029266523E+03  0.00000000000E+00 0.  1.
         21   -1    0    0  501  503 -0.00000000000E+00 -0.00000000000E+00 -0.22379349638E+03  0.22379349638E+03  0.00000000000E+00 0.  1.
          6    2    1    2  501    0 -0.75808846698E+02 -0.59502804325E+01 -0.22661425399E+02  0.18957560006E+03  0.17217137063E+03 0.  0.
         24    2    3    3    0    0 -0.15676809754E+02  0.38545736340E+02 -0.57362125463E+02  0.10698028566E+03  0.80142572515E+02 0.  0.
         -6    2    1    2    0  502  0.75808846698E+02  0.59502804325E+01 -0.40839405755E+02  0.19451056155E+03  0.17431039675E+03 0.  0.
        -24    2    5    5    0    0  0.11149319551E+03  0.18745800252E+02  0.13471507786E+00  0.13849211230E+03  0.79986932360E+02 0.  0.
          5    1    3    3  501    0 -0.60132036944E+02 -0.44496016773E+02  0.34700700064E+02  0.82595314398E+02  0.47000000000E+01 0. -1.
        -13    1    4    4    0    0 -0.23564350659E+02  0.20048106817E+02  0.13179127117E+02  0.33628776375E+02  0.00000000000E+00 0.  1.
         14    1    4    4    0    0  0.78875409050E+01  0.18497629523E+02 -0.70541252580E+02  0.73351509289E+02  0.00000000000E+00 0. -1.
         -5    1    5    5    0  502 -0.35684348815E+02 -0.12795519819E+02 -0.40974120833E+02  0.56018449245E+02  0.47000000000E+01 0.  1.
         13    1    6    6    0    0  0.42296519497E+02 -0.28602608555E+02  0.15264260832E+02  0.53292611462E+02  0.00000000000E+00 0. -1.
        -14    1    6    6    0    0  0.69196676017E+02  0.47348408807E+02 -0.15129545755E+02  0.85199500838E+02  0.00000000000E+00 0.  1.
</event>
<event>
12    1  0.1032880E+000  0.1922473E+03  0.7818608E-02  0.1157851E+00
         21   -1    0    0  503  502  0.00000000000E+00  0.00000000000E+00  0.10185716452E+03  0.10185716452E+03  0.00000000000E+00 0.  1.
         21   -1    0    0  501  503 -0.00000000000E+00 -0.00000000000E+00 -0.38213846075E+03  0.38213846075E+03  0.00000000000E+00 0.  1.
          6    2    1    2  501    0 -0.81775350767E+02  0.27700638660E+02 -0.73455593733E+02  0.20580268791E+03  0.17176870706E+03 0.  0.
         24    2    3    3    0    0  0.16849265558E+02 -0.13255657270E+02 -0.19491321555E+02  0.86059354930E+02  0.81035120507E+02 0.  0.
         -6    2    1    2    0  502  0.81775350767E+02 -0.27700638660E+02 -0.20682570250E+03  0.27819293736E+03  0.16480262682E+03 0.  0.
        -24    2    5    5    0    0  0.76107197078E+02 -0.15563838662E+02 -0.22711809336E+03  0.25342802251E+03  0.81293269974E+02 0.  0.
          5    1    3    3  501    0 -0.98624616325E+02  0.40956295929E+02 -0.53964272178E+02  0.11974333298E+03  0.47000000000E+01 0. -1.
        -13    1    4    4    0    0  0.27847173952E+01  0.12090772225E+02 -0.45471288696E+02  0.47133634696E+02  0.00000000000E+00 0.  1.
         14    1    4    4    0    0  0.14064548163E+02 -0.25346429495E+02  0.25979967140E+02  0.38925720234E+02  0.00000000000E+00 0. -1.
         -5    1    5    5    0  502  0.56681536888E+01 -0.12136799997E+02  0.20292390859E+02  0.24764914843E+02  0.47000000000E+01 0.  1.
         13    1    6    6    0    0  0.83649037237E+02 -0.22799668158E+01 -0.12660164812E+03  0.15175749400E+03  0.00000000000E+00 0. -1.
        -14    1    6    6    0    0 -0.75418401585E+01 -0.13283871846E+02 -0.10051644524E+03  0.10167052851E+03  0.00000000000E+00 0.  1.
</event>
<event>
12    1  0.1032880E+000  0.2508517E+03  0.7818608E-02  0.1112994E+00
         21   -1    0    0  501  502  0.00000000000E+00  0.00000000000E+00  0.55865825579E+03  0.55865825579E+03  0.00000000000E+00 0.  1.
         21   -1    0    0  502  503 -0.00000000000E+00 -0.00000000000E+00 -0.13256361196E+03  0.13256361196E+03  0.00000000000E+00 0.  1.
         -6    2    1    2    0  503 -0.13100820596E+03 -0.12559507216E+03  0.34866668577E+03  0.42869248205E+03  0.17108919960E+03 0.  0.
        -24    2    3    3    0    0 -0.35681824485E+01 -0.80887062303E+02  0.15346337154E+03  0.19127683466E+03  0.80500759618E+02 0.  0.
          6    2    1    2  501    0  0.13100820596E+03  0.12559507216E+03  0.77427958057E+02  0.26252938571E+03  0.17317424026E+03 0.  0.
         24    2    5    5    0    0 -0.16243145044E+01  0.61578647975E+02  0.65666478745E+01  0.99027387763E+02  0.77257584604E+02 0.  0.
          5    1    5    5  501    0  0.13263252047E+03  0.64016424188E+02  0.70861310182E+02  0.16350199794E+03  0.47000000000E+01 0. -1.
        -11    1    6    6    0    0 -0.11657437228E+02 -0.15392000436E+02 -0.63763507431E+01  0.20333897043E+02  0.00000000000E+00 0.  1.
         12    1    6    6    0    0  0.10033122724E+02  0.76970648411E+02  0.12942998618E+02  0.78693490720E+02  0.00000000000E+00 0. -1.
         -5    1    3    3    0  503 -0.12744002351E+03 -0.44708009860E+02  0.19520331424E+03  0.23741564740E+03  0.47000000000E+01 0.  1.
         13    1    4    4    0    0 -0.16493854127E+02 -0.63977569309E+02  0.15640821819E+03  0.16979018616E+03  0.00000000000E+00 0. -1.
        -14    1    4    4    0    0  0.12925671678E+02 -0.16909492994E+02 -0.29448466579E+01  0.21486648494E+02  0.00000000000E+00 0.  1.
</event>
<event>
12    1  0.1032880E+000  0.4018325E+03  0.7818608E-02  0.1043198E+00
         21   -1    0    0  503  502  0.00000000000E+00  0.00000000000E+00  0.14867735785E+04  0.14867735785E+04  0.00000000000E+00 0. -1.
         21   -1    0    0  501  503 -0.00000000000E+00 -0.00000000000E+00 -0.10960382586E+03  0.10960382586E+03  0.00000000000E+00 0. -1.
          6    2    1    2  501    0  0.34345448514E+03 -0.11572695780E+03  0.60701619709E+03  0.72796841548E+03  0.17353857869E+03 0.  0.
         24    2    3    3    0    0  0.14670026302E+03 -0.43513187330E+02  0.38873932063E+03  0.42532351240E+03  0.79796404402E+02 0.  0.
         -6    2    1    2    0  502 -0.34345448514E+03  0.11572695780E+03  0.77015355556E+03  0.86840898889E+03  0.17217421619E+03 0.  0.
        -24    2    5    5    0    0 -0.74746365869E+02  0.65613744145E+02  0.26740127408E+03  0.29613516101E+03  0.79375119372E+02 0.  0.
          5    1    3    3  501    0  0.19675422212E+03 -0.72213770467E+02  0.21827687646E+03  0.30264490308E+03  0.47000000000E+01 0. -1.
        -11    1    4    4    0    0  0.12478105873E+03 -0.49711620822E+02  0.24156487428E+03  0.27639671913E+03  0.00000000000E+00 0.  1.
         12    1    4    4    0    0  0.21919204294E+02  0.61984334918E+01  0.14717444635E+03  0.14892679327E+03  0.00000000000E+00 0. -1.
         -5    1    5    5    0  502 -0.26870811927E+03  0.50113213652E+02  0.50275228149E+03  0.57227382789E+03  0.47000000000E+01 0.  1.
         11    1    6    6    0    0 -0.80625866852E+02  0.67185188401E+02  0.17880205772E+03  0.20732717090E+03  0.00000000000E+00 0. -1.
        -12    1    6    6    0    0  0.58795009835E+01 -0.15714442561E+01  0.88599216352E+02  0.88807990108E+02  0.00000000000E+00 0.  1.
</event>
<event>
12    1  0.1032880E+000  0.2041943E+03  0.7818608E-02  0.1146352E+00
         21   -1    0    0  501  502  0.00000000000E+00  0.00000000000E+00  0.53417868893E+03  0.53417868893E+03  0.00000000000E+00 0. -1.
         21   -1    0    0  502  503 -0.00000000000E+00 -0.00000000000E+00 -0.78732507879E+02  0.78732507879E+02  0.00000000000E+00 0. -1.
         -6    2    1    2    0  503  0.22648467087E+00 -0.10987382498E+03  0.26022225945E+03  0.33077324178E+03  0.17211334770E+03 0.  0.
        -24    2    3    3    0    0 -0.66530491190E+02 -0.91483650265E+02  0.17272413758E+03  0.21909198247E+03  0.73294642055E+02 0.  0.
          6    2    1    2  501    0 -0.22648467087E+00  0.10987382498E+03  0.19522392161E+03  0.28213795503E+03  0.17151424836E+03 0.  0.
         24    2    5    5    0    0  0.26997084936E+02  0.12044360324E+03  0.78899939928E+02  0.16211211753E+03  0.69423583687E+02 0.  0.
          5    1    5    5  501    0 -0.27223569606E+02 -0.10569778266E+02  0.11632398168E+03  0.12002583750E+03  0.47000000000E+01 0. -1.
        -11    1    6    6    0    0  0.77770200103E+01  0.36715214082E+02  0.65045571680E+02  0.75096041044E+02  0.00000000000E+00 0.  1.
         12    1    6    6    0    0  0.19220064925E+02  0.83728389161E+02  0.13854368248E+02  0.87016076485E+02  0.00000000000E+00 0. -1.
         -5    1    3    3    0  503  0.66756975861E+02 -0.18390174712E+02  0.87498121868E+02  0.11168125932E+03  0.47000000000E+01 0.  1.
         11    1    4    4    0    0 -0.33191059208E+02 -0.42031695785E+02  0.14249621279E+03  0.15222838277E+03  0.00000000000E+00 0. -1.
        -12    1    4    4    0    0 -0.33339431982E+02 -0.49451954480E+02  0.30227924790E+02  0.66863599693E+02  0.00000000000E+00 0.  1.
</event>
<event>
12    1  0.1032880E+000  0.2364041E+03  0.7818608E-02  0.1122328E+00
         21   -1    0    0  501  502  0.00000000000E+00  0.00000000000E+00  0.17898556733E+04  0.17898556733E+04  0.00000000000E+00 0. -1.
         21   -1    0    0  502  503 -0.00000000000E+00 -0.00000000000E+00 -0.68831936103E+02  0.68831936103E+02  0.00000000000E+00 0. -1.
         -6    2    1    2    0  503  0.16146061528E+03  0.87089014387E+01  0.17331021073E+03  0.29312678448E+03  0.17245726250E+03 0.  0.
        -24    2    3    3    0    0  0.40741178469E+02  0.50365174681E+02  0.44863222142E+02  0.11193863255E+03  0.79505058411E+02 0.  0.
          6    2    1    2  501    0 -0.16146061528E+03 -0.87089014387E+01  0.15477135264E+04  0.15655608249E+04  0.17151723310E+03 0.  0.
         24    2    5    5    0    0 -0.80151985604E+02 -0.66450983110E+02  0.10196850259E+04  0.10281769504E+04  0.80933399710E+02 0.  0.
          5    1    5    5  501    0 -0.81308629675E+02  0.57742081671E+02  0.52802850048E+03  0.53738387450E+03  0.47000000000E+01 0. -1.
        -11    1    6    6    0    0 -0.68053222498E+02 -0.31873923212E+02  0.37519531392E+03  0.38264698047E+03  0.00000000000E+00 0.  1.
         12    1    6    6    0    0 -0.12098763106E+02 -0.34577059898E+02  0.64448971203E+03  0.64552996991E+03  0.00000000000E+00 0. -1.
         -5    1    3    3    0  503  0.12071943681E+03 -0.41656273242E+02  0.12844698859E+03  0.18118815193E+03  0.47000000000E+01 0.  1.
         11    1    4    4    0    0  0.49198255507E+02  0.41821422534E+02  0.62977703579E+02  0.90198064701E+02  0.00000000000E+00 0. -1.
        -12    1    4    4    0    0 -0.84570770377E+01  0.85437521474E+01 -0.18114481437E+02  0.21740567852E+02  0.00000000000E+00 0.  1.
</event>
<event>
12    1  0.1032880E+000  0.2272333E+03  0.7818608E-02  0.1128795E+00
         21   -1    0    0  503  502  0.00000000000E+00  0.00000000000E+00  0.72110175511E+03  0.72110175511E+03  0.00000000000E+00 0. -1.
         21   -1    0    0  501  503 -0.00000000000E+00 -0.00000000000E+00 -0.12876645045E+03  0.12876645045E+03  0.00000000000E+00 0. -1.
          6    2    1    2  501    0 -0.47421591269E+02 -0.13980998164E+03  0.58051268531E+03  0.62340192277E+03  0.17274067623E+03 0.  0.
         24    2    3    3    0    0  0.28928074832E+02 -0.60426610371E+02  0.38521528291E+03  0.39913833560E+03  0.80202169563E+02 0.  0.
         -6    2    1    2    0  502  0.47421591269E+02  0.13980998164E+03  0.11822619341E+02  0.22646628279E+03  0.17132298336E+03 0.  0.
        -24    2    5    5    0    0  0.37203906326E+02  0.78382595455E+02 -0.53755045710E+02  0.13591107856E+03  0.89745498051E+02 0.  0.
          5    1    3    3  501    0 -0.76349666101E+02 -0.79383371266E+02  0.19529740240E+03  0.22426358717E+03  0.47000000000E+01 0. -1.
        -11    1    4    4    0    0  0.38830762886E+02 -0.50903613005E+02  0.14470194542E+03  0.15823292632E+03  0.00000000000E+00 0.  1.
         12    1    4    4    0    0 -0.99026880543E+01 -0.95229973662E+01  0.24051333749E+03  0.24090540928E+03  0.00000000000E+00 0. -1.
         -5    1    5    5    0  502  0.10217684943E+02  0.61427386183E+02  0.65577665051E+02  0.90555204226E+02  0.47000000000E+01 0.  1.
         11    1    6    6    0    0  0.66656231726E+02  0.49466526208E+02 -0.29826965119E+02  0.88202257858E+02  0.00000000000E+00 0. -1.
        -12    1    6    6    0    0 -0.29452325400E+02  0.28916069247E+02 -0.23928080591E+02  0.47708820704E+02  0.00000000000E+00 0.  1.
</event>
<event>
12    1  0.1032880E+000  0.2532404E+03  0.7818608E-02  0.1112051E+00
         21   -1    0    0  501  502  0.00000000000E+00  0.00000000000E+00  0.95892182201E+03  0.95892182201E+03  0.00000000000E+00 0. -1.
         21   -1    0    0  502  503 -0.00000000000E+00 -0.00000000000E+00 -0.65828391554E+02  0.65828391554E+02  0.00000000000E+00 0. -1.
         -6    2    1    2    0  503  0.45289496092E+02 -0.18104636326E+03  0.47382147253E+03  0.53493427688E+03  0.16376497990E+03 0.  0.
        -24    2    3    3    0    0 -0.12884596007E+02 -0.33382209368E+02  0.14451242712E+03  0.16934507473E+03  0.80706431142E+02 0.  0.
          6    2    1    2  501    0 -0.45289496092E+02  0.18104636326E+03  0.41927195792E+03  0.48981593668E+03  0.17117754825E+03 0.  0.
         24    2    5    5    0    0 -0.68819102021E+02  0.17306957505E+03  0.26454384270E+03  0.33303535387E+03  0.78993389647E+02 0.  0.
          5    1    5    5  501    0  0.23529605929E+02  0.79767882010E+01  0.15472811522E+03  0.15678058281E+03  0.47000000000E+01 0. -1.
        -13    1    6    6    0    0 -0.67282659929E+02  0.90661569441E+02  0.10862222479E+03  0.15666928295E+03  0.00000000000E+00 0.  1.
         14    1    6    6    0    0 -0.15364420916E+01  0.82408005614E+02  0.15592161790E+03  0.17636607093E+03  0.00000000000E+00 0. -1.
         -5    1    3    3    0  503  0.58174092099E+02 -0.14766415389E+03  0.32930904541E+03  0.36558920215E+03  0.47000000000E+01 0.  1.
         11    1    4    4    0    0 -0.15593228112E+02  0.19651209236E+02  0.14663620353E+02  0.29057538595E+02  0.00000000000E+00 0. -1.
        -12    1    4    4    0    0  0.27086321048E+01 -0.53033418603E+02  0.12984880677E+03  0.14028753614E+03  0.00000000000E+00 0.  1.
</event>
<event>
12    1  0.1032880E+000  0.2691003E+03  0.7818608E-02  0.1102304E+00
         21   -1    0    0  501  502  0.00000000000E+00  0.00000000000E+00  0.25445695462E+03  0.25445695462E+03  0.00000000000E+00 0. -1.
         21   -1    0    0  502  503 -0.00000000000E+00 -0.00000000000E+00 -0.28095315341E+03  0.28095315341E+03  0.00000000000E+00 0. -1.
         -6    2    1    2    0  503  0.97710346286E+02  0.17758214610E+03 -0.17487387473E+02  0.26966795004E+03  0.17700922059E+03 0.  0.
        -24    2    3    3    0    0  0.33864102615E+02  0.31820195560E+02 -0.53724184704E+02  0.10639491329E+03  0.79210398688E+02 0.  0.
          6    2    1    2  501    0 -0.97710346286E+02 -0.17758214610E+03 -0.90088113133E+01  0.26574215798E+03  0.17162460623E+03 0.  0.
         24    2    5    5    0    0  0.46722609151E+01 -0.12281915239E+03  0.13025640918E+02  0.14746793923E+03  0.80440981855E+02 0.  0.
          5    1    5    5  501    0 -0.10238260720E+03 -0.54762993711E+02 -0.22034452231E+02  0.11827421876E+03  0.47000000000E+01 0. -1.
        -13    1    6    6    0    0  0.36797962229E+02 -0.74178559690E+02 -0.12662193470E+02  0.83766818523E+02  0.00000000000E+00 0.  1.
         14    1    6    6    0    0 -0.32125701314E+02 -0.48640592703E+02  0.25687834388E+02  0.63701120704E+02  0.00000000000E+00 0. -1.
         -5    1    3    3    0  503  0.63846243670E+02  0.14576195055E+03  0.36236797231E+02  0.16327303675E+03  0.47000000000E+01 0.  1.
         13    1    4    4    0    0 -0.64551830437E+01 -0.30004742524E+01  0.16663042367E+02  0.18119856920E+02  0.00000000000E+00 0. -1.
        -14    1    4    4    0    0  0.40319285659E+02  0.34820669812E+02 -0.70387227071E+02  0.88275056369E+02  0.00000000000E+00 0.  1.
</event>
<event>
12    1  0.1032880E+000  0.1906949E+03  0.7818608E-02  0.1158457E+00
         21   -1    0    0  503  502  0.00000000000E+00  0.00000000000E+00  0.26538609117E+03  0.26538609117E+03  0.00000000000E+00 0. -1.
         21   -1    0    0  501  503 -0.00000000000E+00 -0.00000000000E+00 -0.13530433985E+03  0.13530433985E+03  0.00000000000E+00 0. -1.
          6    2    1    2  501    0  0.67286658387E+02 -0.39590058442E+02  0.56041315210E+02  0.19612618206E+03  0.17096778397E+03 0.  0.
         24    2    3    3    0    0  0.98806112105E+02 -0.56799420792E+02  0.12412814139E+02  0.13942367576E+03  0.79347724705E+02 0.  0.
         -6    2    1    2    0  502 -0.67286658387E+02  0.39590058442E+02  0.74040436116E+02  0.20456424896E+03  0.17398183424E+03 0.  0.
        -24    2    5    5    0    0  0.24145509235E+02  0.52524527819E+02  0.40649688386E+02  0.10625771912E+03  0.79350324942E+02 0.  0.
          5    1    3    3  501    0 -0.31519453718E+02  0.17209362351E+02  0.43628501071E+02  0.56702506301E+02  0.47000000000E+01 0. -1.
        -13    1    4    4    0    0  0.36818079273E+02  0.12445320265E+02 -0.16311223936E+02  0.42148700859E+02  0.00000000000E+00 0.  1.
         14    1    4    4    0    0  0.61988032832E+02 -0.69244741057E+02  0.28724038075E+02  0.97274974900E+02  0.00000000000E+00 0. -1.
         -5    1    5    5    0  502 -0.91432167622E+02 -0.12934469377E+02  0.33390747729E+02  0.98306529834E+02  0.47000000000E+01 0.  1.
         11    1    6    6    0    0  0.39758627856E+02  0.81410526093E-02  0.31871418149E+01  0.39886168382E+02  0.00000000000E+00 0. -1.
        -12    1    6    6    0    0 -0.15613118621E+02  0.52516386766E+02  0.37462546572E+02  0.66371550740E+02  0.00000000000E+00 0.  1.
</event>
<event>
12    1  0.1032880E+000  0.1927634E+03  0.7818608E-02  0.1156244E+00
         21   -1    0    0  501  502  0.00000000000E+00  0.00000000000E+00  0.45708033868E+03  0.45708033868E+03  0.00000000000E+00 0. -1.
         21   -1    0    0  502  503 -0.00000000000E+00 -0.00000000000E+00 -0.11151747651E+03  0.11151747651E+03  0.00000000000E+00 0. -1.
         -6    2    1    2    0  503 -0.57102044485E+02  0.54473423645E+02  0.23242365768E+02  0.19303390752E+03  0.17462498251E+03 0.  0.
        -24    2    3    3    0    0 -0.85193446412E+01  0.81505538013E+02 -0.27016863867E+02  0.11794000567E+03  0.80400261472E+02 0.  0.
          6    2    1    2  501    0  0.57102044485E+02 -0.54473423645E+02  0.32232049640E+03  0.37556390767E+03  0.17586855595E+03 0.  0.
         24    2    5    5    0    0  0.91407879183E+01 -0.19214111930E-01  0.53081792324E+02  0.96678424286E+02  0.80283788358E+02 0.  0.
          5    1    5    5  501    0  0.47961256567E+02 -0.54454209533E+02  0.26923870408E+03  0.27888548338E+03  0.47000000000E+01 0. -1.
        -11    1    6    6    0    0 -0.23857893955E+02  0.10313339641E+02  0.56240325913E+02  0.61955938677E+02  0.00000000000E+00 0.  1.
         12    1    6    6    0    0  0.32998681873E+02 -0.10332553753E+02 -0.31585335890E+01  0.34722485609E+02  0.00000000000E+00 0. -1.
         -5    1    3    3    0  503 -0.48582699844E+02 -0.27032114368E+02  0.50259229635E+02  0.75093901848E+02  0.47000000000E+01 0.  1.
         11    1    4    4    0    0 -0.52569920493E+01  0.23637132530E+02  0.28694488144E+02  0.37546286760E+02  0.00000000000E+00 0. -1.
        -12    1    4    4    0    0 -0.32623525919E+01  0.57868405483E+02 -0.55711352011E+02  0.80393718912E+02  0.00000000000E+00 0.  1.
</event>
<event>
12    1  0.1032880E+000  0.1969315E+03  0.7818608E-02  0.1152571E+00
         21   -1    0    0  503  502  0.00000000000E+00  0.00000000000E+00  0.24426764198E+03  0.24426764198E+03  0.00000000000E+00 0.  1.
         21   -1    0    0  501  503 -0.00000000000E+00 -0.00000000000E+00 -0.16656760181E+03  0.16656760181E+03  0.00000000000E+00 0.  1.
          6    2    1    2  501    0 -0.63967678106E+02 -0.64681443900E+02 -0.77518798997E+01  0.19708405156E+03  0.17466103947E+03 0.  0.
         24    2    3    3    0    0  0.11722926619E+02 -0.33947304527E+02 -0.55719944827E+02  0.10223322015E+03  0.77827196767E+02 0.  0.
         -6    2    1    2    0  502  0.63967678106E+02  0.64681443900E+02  0.85451920071E+02  0.21375119223E+03  0.17352806260E+03 0.  0.
        -24    2    5    5    0    0  0.57464316215E+02  0.85694766853E+02  0.45958764071E+01  0.12982477652E+03  0.78661361637E+02 0.  0.
          5    1    3    3  501    0 -0.75690604725E+02 -0.30734139373E+02  0.47968064928E+02  0.94850831412E+02  0.47000000000E+01 0. -1.
        -11    1    4    4    0    0 -0.11583534232E+02 -0.31927738579E+02 -0.67854064876E+02  0.75879726385E+02  0.00000000000E+00 0.  1.
         12    1    4    4    0    0  0.23306460851E+02 -0.20195659481E+01  0.12134120049E+02  0.26353493760E+02  0.00000000000E+00 0. -1.
         -5    1    5    5    0  502  0.65033618904E+01 -0.21013322953E+02  0.80856043664E+02  0.83926415712E+02  0.47000000000E+01 0.  1.
         13    1    6    6    0    0  0.48856834369E+01  0.64680139727E+02 -0.20305561197E+02  0.67968420559E+02  0.00000000000E+00 0. -1.
        -14    1    6    6    0    0  0.52578632778E+02  0.21014627125E+02  0.24901437604E+02  0.61856355961E+02  0.00000000000E+00 0.  1.
</event>
<event>
12    1  0.1032880E+000  0.3890299E+03  0.7818608E-02  0.1047648E+00
         21   -1    0    0  503  502  0.00000000000E+00  0.00000000000E+00  0.26323023213E+04  0.26323023213E+04  0.00000000000E+00 0. -1.
         21   -1    0    0  501  503 -0.00000000000E+00 -0.00000000000E+00 -0.17299279701E+03  0.17299279701E+03  0.00000000000E+00 0.  1.
          6    2    1    2  501    0  0.34774524900E+03 -0.20573837184E+02  0.83524343107E+02  0.39786921554E+03  0.17312872610E+03 0.  0.
         24    2    3    3    0    0  0.64010828016E+02 -0.17163567175E+02  0.37599047671E+02  0.11038343440E+03  0.79867640902E+02 0.  0.
         -6    2    1    2    0  502 -0.34774524900E+03  0.20573837184E+02  0.23757851811E+04  0.24074259027E+04  0.17318836349E+03 0.  0.
        -24    2    5    5    0    0 -0.33479884016E+03  0.21717070780E+02  0.23645706729E+04  0.23896278220E+04  0.81023241360E+02 0.  0.
          5    1    3    3  501    0  0.28373442099E+03 -0.34102700086E+01  0.45925295436E+02  0.28748578114E+03  0.47000000000E+01 0. -1.
        -13    1    4    4    0    0 -0.28219437921E+01 -0.34587191528E+02  0.13423549088E+02  0.37207913872E+02  0.00000000000E+00 0.  1.
         14    1    4    4    0    0  0.66832771808E+02  0.17423624353E+02  0.24175498583E+02  0.73175520531E+02  0.00000000000E+00 0. -1.
         -5    1    5    5    0  502 -0.12946408844E+02 -0.11432335958E+01  0.11214508206E+02  0.17798080776E+02  0.47000000000E+01 0.  1.
         11    1    6    6    0    0 -0.23924963894E+03  0.40628688494E+02  0.14875174482E+04  0.15071825499E+04  0.00000000000E+00 0. -1.
        -12    1    6    6    0    0 -0.95549201217E+02 -0.18911617714E+02  0.87705322476E+03  0.88244527207E+03  0.00000000000E+00 0.  1.
</event>
<event>
12    1  0.1032880E+000  0.6457123E+03  0.7818608E-02  0.9815340E-01
         21   -1    0    0  501  502  0.00000000000E+00  0.00000000000E+00  0.49827185450E+03  0.49827185450E+03  0.00000000000E+00 0.  1.
         21   -1    0    0  502  503 -0.00000000000E+00 -0.00000000000E+00 -0.14656153077E+04  0.14656153077E+04  0.00000000000E+00 0.  1.
         -6    2    1    2    0  503 -0.60937111111E+03 -0.12302589259E+03 -0.11277612974E+04  0.12995344784E+04  0.17457317984E+03 0.  0.
        -24    2    3    3    0    0 -0.27595737492E+03  0.89544959555E+01 -0.50664366350E+03  0.58232269120E+03  0.78608263881E+02 0.  0.
          6    2    1    2  501    0  0.60937111111E+03  0.12302589259E+03  0.16041784430E+03  0.66435268380E+03  0.17076909089E+03 0.  0.
         24    2    5    5    0    0  0.18418688440E+03  0.85588451808E+02  0.18739558837E+02  0.21459940123E+03  0.66719865667E+02 0.  0.
          5    1    5    5  501    0  0.42518422671E+03  0.37437440781E+02  0.14167828546E+03  0.44975328257E+03  0.47000000000E+01 0. -1.
        -13    1    6    6    0    0  0.50642441104E+00  0.59637351561E+01 -0.10689942694E+02  0.12251427570E+02  0.00000000000E+00 0.  1.
         14    1    6    6    0    0  0.18368045999E+03  0.79624716652E+02  0.29429501532E+02  0.20234797366E+03  0.00000000000E+00 0. -1.
         -5    1    3    3    0  503 -0.33341373619E+03 -0.13198038854E+03 -0.62111763395E+03  0.71721178716E+03  0.47000000000E+01 0.  1.
         13    1    4    4    0    0 -0.26243854596E+03 -0.48729920078E+01 -0.43447774167E+03  0.50761072138E+03  0.00000000000E+00 0. -1.
        -14    1    4    4    0    0 -0.13518828955E+02  0.13827487963E+02 -0.72165921839E+02  0.74711969821E+02  0.00000000000E+00 0.  1.
</event>
<event>
12    1  0.1032880E+000  0.2198947E+03  0.7818608E-02  0.1134095E+00
         21   -1    0    0  503  502  0.00000000000E+00  0.00000000000E+00  0.83945822628E+03  0.83945822628E+03  0.00000000000E+00 0. -1.
         21   -1    0    0  501  503 -0.00000000000E+00 -0.00000000000E+00 -0.11216370893E+03  0.11216370893E+03  0.00000000000E+00 0. -1.
          6    2    1    2  501    0  0.36756555755E+02 -0.13096301461E+03  0.69638039676E+03  0.73027347392E+03  0.17277538640E+03 0.  0.
         24    2    3    3    0    0  0.31782616151E+02 -0.16096865592E+03  0.64418921678E+03  0.66968397110E+03  0.81091499267E+02 0.  0.
         -6    2    1    2    0  502 -0.36756555755E+02  0.13096301461E+03  0.30914120595E+02  0.22134846128E+03  0.17186361707E+03 0.  0.
        -24    2    5    5    0    0 -0.16939358434E+02  0.13811665025E+03 -0.23774476056E+02  0.16255366205E+03  0.80593525757E+02 0.  0.
          5    1    3    3  501    0  0.49739396043E+01  0.30005641306E+02  0.52191179976E+02  0.60589502825E+02  0.47000000000E+01 0. -1.
        -13    1    4    4    0    0 -0.13492710924E+02 -0.86249199111E+02  0.42200727030E+03  0.43094212347E+03  0.00000000000E+00 0.  1.
         14    1    4    4    0    0  0.45275327074E+02 -0.74719456808E+02  0.22218194648E+03  0.23874184763E+03  0.00000000000E+00 0. -1.
         -5    1    5    5    0  502 -0.19817197321E+02 -0.71536356407E+01  0.54688596652E+02  0.58794799228E+02  0.47000000000E+01 0.  1.
         13    1    6    6    0    0 -0.29351914792E+02  0.73907245164E+02  0.22258692084E+02  0.82578842102E+02  0.00000000000E+00 0. -1.
        -14    1    6    6    0    0  0.12412556358E+02  0.64209405090E+02 -0.46033168140E+02  0.79974819952E+02  0.00000000000E+00 0.  1.
</event>
<event>
12    1  0.1032880E+000  0.2511230E+03  0.7818608E-02  0.1112958E+00
         21   -1    0    0  503  502  0.00000000000E+00  0.00000000000E+00  0.17856722571E+03  0.17856722571E+03  0.00000000000E+00 0.  1.
         21   -1    0    0  501  503 -0.00000000000E+00 -0.00000000000E+00 -0.61845462363E+03  0.61845462363E+03  0.00000000000E+00 0.  1.
          6    2    1    2  501    0  0.71704692845E+02  0.16235292004E+03 -0.48195288925E+03  0.54240002500E+03  0.17441091149E+03 0.  0.
         24    2    3    3    0    0  0.51080923478E+02  0.82163711162E+02 -0.42151363521E+03  0.43978110612E+03  0.79834456582E+02 0.  0.
         -6    2    1    2    0  502 -0.71704692845E+02 -0.16235292004E+03  0.42065491326E+02  0.25462182434E+03  0.17765903930E+03 0.  0.
        -24    2    5    5    0    0 -0.92147626256E+02 -0.61721540251E+02 -0.14387602883E+02  0.13734595312E+03  0.79725617998E+02 0.  0.
          5    1    3    3  501    0  0.20623769367E+02  0.80189208881E+02 -0.60439254036E+02  0.10261891888E+03  0.47000000000E+01 0. -1.
        -11    1    4    4    0    0 -0.17009032041E+02 -0.20550796220E+01 -0.58000165138E+02  0.60477679182E+02  0.00000000000E+00 0.  1.
         12    1    4    4    0    0  0.68089955519E+02  0.84218790784E+02 -0.36351347008E+03  0.37930342694E+03  0.00000000000E+00 0. -1.
         -5    1    5    5    0  502  0.20442933410E+02 -0.10063137979E+03  0.56453094209E+02  0.11727587122E+03  0.47000000000E+01 0.  1.
         13    1    6    6    0    0 -0.42057671829E+02 -0.44336902634E+02  0.30110439882E+02  0.68126700234E+02  0.00000000000E+00 0. -1.
        -14    1    6    6    0    0 -0.50089954427E+02 -0.17384637616E+02 -0.44498042766E+02  0.69219252882E+02  0.00000000000E+00 0.  1.
</event>
<event>
12    1  0.1032880E+000  0.4083909E+03  0.7818608E-02  0.1041780E+00
         21   -1    0    0  501  502  0.00000000000E+00  0.00000000000E+00  0.60349364076E+03  0.60349364076E+03  0.00000000000E+00 0. -1.
         21   -1    0    0  502  503 -0.00000000000E+00 -0.00000000000E+00 -0.31514169842E+03  0.31514169842E+03  0.00000000000E+00 0. -1.
         -6    2    1    2    0  503  0.14590085097E+03 -0.32852346489E+03  0.32045666103E+03  0.51911042039E+03  0.19382577656E+03 0.  0.
        -24    2    3    3    0    0  0.10571212508E+03 -0.68439899112E+02  0.95801493001E+02  0.17306038152E+03  0.70092056698E+02 0.  0.
          6    2    1    2  501    0 -0.14590085097E+03  0.32852346489E+03 -0.32104718693E+02  0.39952491879E+03  0.17139055540E+03 0.  0.
         24    2    5    5    0    0 -0.14168988860E+03  0.34271062818E+03 -0.21703514561E+02  0.38083580823E+03  0.83894404358E+02 0.  0.
          5    1    5    5  501    0 -0.42109623659E+01 -0.14187163294E+02 -0.10401204132E+02  0.18689110567E+02  0.47000000000E+01 0.  1.
        -11    1    6    6    0    0 -0.13395015612E+02  0.94746631270E+02  0.22165834488E+02  0.98222577846E+02  0.00000000000E+00 0.  1.
         12    1    6    6    0    0 -0.12829487299E+03  0.24796399691E+03 -0.43869349049E+02  0.28261323038E+03  0.00000000000E+00 0. -1.
         -5    1    3    3    0  503  0.40188725891E+02 -0.26008356578E+03  0.22465516803E+03  0.34605003887E+03  0.47000000000E+01 0.  1.
         11    1    4    4    0    0  0.10258521664E+03 -0.63397634524E+02  0.56252626845E+02  0.13306894740E+03  0.00000000000E+00 0. -1.
        -12    1    4    4    0    0  0.31269084384E+01 -0.50422645877E+01  0.39548866156E+02  0.39991434117E+02  0.00000000000E+00 0.  1.
</event>
<event>
12    1  0.1032880E+000  0.1869427E+03  0.7818608E-02  0.1161675E+00
         21   -1    0    0  503  502  0.00000000000E+00  0.00000000000E+00  0.10302992157E+04  0.10302992157E+04  0.00000000000E+00 0.  1.
         21   -1    0    0  501  503 -0.00000000000E+00 -0.00000000000E+00 -0.36513059992E+02  0.36513059992E+02  0.00000000000E+00 0.  1.
          6    2    1    2  501    0  0.82615152686E+01  0.75221028793E+02  0.34360108695E+03  0.39028570368E+03  0.16892237193E+03 0.  0.
         24    2    3    3    0    0 -0.49251013228E+02  0.10743655703E+02  0.22005935904E+03  0.23945576266E+03  0.79823883189E+02 0.  0.
         -6    2    1    2    0  502 -0.82615152686E+01 -0.75221028793E+02  0.65018506878E+03  0.67652657203E+03  0.17094187080E+03 0.  0.
        -24    2    5    5    0    0 -0.11293474037E+02  0.28657011720E+02  0.26927321938E+03  0.28166486575E+03  0.76669831390E+02 0.  0.
          5    1    3    3  501    0  0.57512528496E+02  0.64477373090E+02  0.12354172791E+03  0.15082994102E+03  0.47000000000E+01 0. -1.
        -11    1    4    4    0    0 -0.26634648693E+02  0.36557678213E+02  0.56704503258E+02  0.72534605790E+02  0.00000000000E+00 0.  1.
         12    1    4    4    0    0 -0.22616364534E+02 -0.25814022510E+02  0.16335485578E+03  0.16692115687E+03  0.00000000000E+00 0. -1.
         -5    1    5    5    0  502  0.30319587685E+01 -0.10387804051E+03  0.38091184940E+03  0.39486170628E+03  0.47000000000E+01 0.  1.
         11    1    6    6    0    0 -0.85056864104E+01 -0.26247559604E+02  0.95076892745E+02  0.98999477880E+02  0.00000000000E+00 0. -1.
        -12    1    6    6    0    0 -0.27877876268E+01  0.54904571324E+02  0.17419632664E+03  0.18266538787E+03  0.00000000000E+00 0.  1.
</event>
<event>
12    1  0.1032880E+000  0.2679253E+03  0.7818608E-02  0.1102545E+00
         21   -1    0    0  501  502  0.00000000000E+00  0.00000000000E+00  0.96808291914E+03  0.96808291914E+03  0.00000000000E+00 0. -1.
         21   -1    0    0  502  503 -0.00000000000E+00 -0.00000000000E+00 -0.53153284963E+03  0.53153284963E+03  0.00000000000E+00 0. -1.
         -6    2    1    2    0  503  0.15020758519E+02  0.20438585892E+03 -0.47734548255E+03  0.54739628536E+03  0.17258267873E+03 0.  0.
        -24    2    3    3    0    0 -0.35243782708E+02  0.48961874317E+02 -0.17448103531E+03  0.20325662984E+03  0.85030797570E+02 0.  0.
          6    2    1    2  501    0 -0.15020758519E+02 -0.20438585892E+03  0.91389555207E+03  0.95221948341E+03  0.17180704870E+03 0.  0.
         24    2    5    5    0    0 -0.98796980093E+01 -0.17971699481E+03  0.49670973208E+03  0.53424689847E+03  0.79393853234E+02 0.  0.
          5    1    5    5  501    0 -0.51410605097E+01 -0.24668864118E+02  0.41718581999E+03  0.41797258494E+03  0.47000000000E+01 0. -1.
        -11    1    6    6    0    0  0.34342379400E+01 -0.10311506125E+02  0.18501827724E+01  0.11024714286E+02  0.00000000000E+00 0.  1.
         12    1    6    6    0    0 -0.13313935949E+02 -0.16940548868E+03  0.49485954931E+03  0.52322218419E+03  0.00000000000E+00 0. -1.
         -5    1    3    3    0  503  0.50264541227E+02  0.15542398461E+03 -0.30286444725E+03  0.34413965552E+03  0.47000000000E+01 0.  1.
         11    1    4    4    0    0 -0.15522096013E+02  0.56150113007E+02 -0.17261799477E+03  0.18218326699E+03  0.00000000000E+00 0. -1.
        -12    1    4    4    0    0 -0.19721686696E+02 -0.71882386902E+01 -0.18630405420E+01  0.21073362846E+02  0.00000000000E+00 0.  1.
</event>
<event>
12    1  0.1032880E+000  0.2553802E+03  0.7818608E-02  0.1110053E+00
         21   -1    0    0  501  502  0.00000000000E+00  0.00000000000E+00  0.61785829733E+03  0.61785829733E+03  0.00000000000E+00 0.  1.
         21   -1    0    0  502  503 -0.00000000000E+00 -0.00000000000E+00 -0.11484740755E+03  0.11484740755E+03  0.00000000000E+00 0.  1.
         -6    2    1    2    0  503 -0.16505915237E+03  0.92050724496E+02  0.35753288814E+03  0.43937319089E+03  0.17175906122E+03 0.  0.
        -24    2    3    3    0    0 -0.50683826869E+02  0.72384652209E+02  0.26412184463E+03  0.29032225150E+03  0.81965070157E+02 0.  0.
          6    2    1    2  501    0  0.16505915237E+03 -0.92050724496E+02  0.14547800164E+03  0.29333251398E+03  0.17076959664E+03 0.  0.
         24    2    5    5    0    0  0.93645703192E+02  0.82783745081E+01  0.35297334394E+02  0.12802166054E+03  0.79407773812E+02 0.  0.
          5    1    5    5  501    0  0.71413449183E+02 -0.10032909900E+03  0.11018066725E+03  0.16531085344E+03  0.47000000000E+01 0. -1.
        -11    1    6    6    0    0  0.19057315263E+02 -0.36161985334E+01 -0.24810101047E+02  0.31492844756E+02  0.00000000000E+00 0.  1.
         12    1    6    6    0    0  0.74588387929E+02  0.11894573042E+02  0.60107435441E+02  0.96528815785E+02  0.00000000000E+00 0. -1.
         -5    1    3    3    0  503 -0.11437532551E+03  0.19666072287E+02  0.93411043509E+02  0.14905093939E+03  0.47000000000E+01 0.  1.
         13    1    4    4    0    0 -0.28739702515E+02  0.36595100813E+02  0.37266553471E+02  0.59615165116E+02  0.00000000000E+00 0. -1.
        -14    1    4    4    0    0 -0.21944124355E+02  0.35789551396E+02  0.22685529116E+03  0.23070708639E+03  0.00000000000E+00 0.  1.
</event>
<event>
12    1  0.1032880E+000  0.1815951E+03  0.7818608E-02  0.1167032E+00
         21   -1    0    0  503  502  0.00000000000E+00  0.00000000000E+00  0.73504454328E+03  0.73504454328E+03  0.00000000000E+00 0.  1.
         21   -1    0    0  501  503 -0.00000000000E+00 -0.00000000000E+00 -0.60927373209E+02  0.60927373209E+02  0.00000000000E+00 0.  1.
          6    2    1    2  501    0 -0.50074458750E+02 -0.14645959204E+02  0.12567301453E+03  0.21824553272E+03  0.17063250110E+03 0.  0.
         24    2    3    3    0    0 -0.99616674826E+02 -0.17269795807E+02  0.88301923174E+02  0.15595585331E+03  0.79393140729E+02 0.  0.
         -6    2    1    2    0  502  0.50074458750E+02  0.14645959204E+02  0.54844415555E+03  0.57772638377E+03  0.17393914801E+03 0.  0.
        -24    2    5    5    0    0  0.84022576205E+02  0.47258293487E+02  0.46764662121E+03  0.48409748556E+03  0.79773890324E+02 0.  0.
          5    1    3    3  501    0  0.49542216076E+02  0.26238366032E+01  0.37371091355E+02  0.62289679413E+02  0.47000000000E+01 0. -1.
        -13    1    4    4    0    0 -0.84166977116E+02  0.20592905490E+02  0.50641864561E+02  0.10036307209E+03  0.00000000000E+00 0.  1.
         14    1    4    4    0    0 -0.15449697710E+02 -0.37862701298E+02  0.37660058614E+02  0.55592781219E+02  0.00000000000E+00 0. -1.
         -5    1    5    5    0  502 -0.33948117455E+02 -0.32612334282E+02  0.80797534337E+02  0.93628898215E+02  0.47000000000E+01 0.  1.
         11    1    6    6    0    0  0.16953781131E+02 -0.13048972108E+01  0.25991320141E+03  0.26046881909E+03  0.00000000000E+00 0. -1.
        -12    1    6    6    0    0  0.67068795073E+02  0.48563190697E+02  0.20773341980E+03  0.22362866646E+03  0.00000000000E+00 0.  1.
</event>
<event>
12    1  0.1032880E+000  0.1923682E+03  0.7818608E-02  0.1156423E+00
         21   -1    0    0  503  502  0.00000000000E+00  0.00000000000E+00  0.19689314402E+03  0.19689314402E+03  0.00000000000E+00 0. -1.
         21   -1    0    0  501  503 -0.00000000000E+00 -0.00000000000E+00 -0.37392246904E+03  0.37392246904E+03  0.00000000000E+00 0. -1.
          6    2    1    2  501    0 -0.37184825247E+02 -0.75504402941E+02 -0.28994421421E+03  0.34775664792E+03  0.17257871458E+03 0.  0.
         24    2    3    3    0    0  0.15364969331E+01 -0.10340095140E+03 -0.26024832563E+03  0.29135191402E+03  0.80390479764E+02 0.  0.
         -6    2    1    2    0  502  0.37184825247E+02  0.75504402941E+02  0.11291488918E+03  0.22305896515E+03  0.17297948907E+03 0.  0.
        -24    2    5    5    0    0 -0.10886941080E+02  0.78213305171E+02  0.15148947731E+02  0.11397870947E+03  0.80782479562E+02 0.  0.
          5    1    3    3  501    0 -0.38721322180E+02  0.27896548462E+02 -0.29695888576E+02  0.56404733895E+02  0.47000000000E+01 0. -1.
        -13    1    4    4    0    0 -0.29814509705E+02 -0.18858388506E+02 -0.11595080082E+03  0.12119872943E+03  0.00000000000E+00 0.  1.
         14    1    4    4    0    0  0.31351006638E+02 -0.84542562896E+02 -0.14429752482E+03  0.17015318459E+03  0.00000000000E+00 0. -1.
         -5    1    5    5    0  502  0.48071766327E+02 -0.27089022303E+01  0.97765941453E+02  0.10908025567E+03  0.47000000000E+01 0.  1.
         11    1    6    6    0    0  0.23223206206E+02  0.71154062191E+02 -0.25822942276E+01  0.74892497063E+02  0.00000000000E+00 0. -1.
        -12    1    6    6    0    0 -0.34110147286E+02  0.70592429796E+01  0.17731241959E+02  0.39086212412E+02  0.00000000000E+00 0.  1.
</event>
<event>
12    1  0.1032880E+000  0.3341152E+03  0.7818608E-02  0.1069543E+00
         21   -1    0    0  501  502  0.00000000000E+00  0.00000000000E+00  0.48154300622E+03  0.48154300622E+03  0.00000000000E+00 0. -1.
         21   -1    0    0  502  503 -0.00000000000E+00 -0.00000000000E+00 -0.29561891860E+03  0.29561891860E+03  0.00000000000E+00 0.  1.
         -6    2    1    2    0  503  0.11536518746E+03 -0.26131041782E+03 -0.89236745404E+02  0.34582679324E+03  0.17332256995E+03 0.  0.
        -24    2    3    3    0    0  0.70550462148E+02 -0.25242622785E+03 -0.11335358834E+03  0.29395193855E+03  0.69730466580E+02 0.  0.
          6    2    1    2  501    0 -0.11536518746E+03  0.26131041782E+03  0.27516083302E+03  0.43133513158E+03  0.16954129518E+03 0.  0.
         24    2    5    5    0    0 -0.84760565501E+02  0.20875312845E+03  0.28246356759E+03  0.36989954350E+03  0.79232462842E+02 0.  0.
          5    1    5    5  501    0 -0.30604621955E+02  0.52557289364E+02 -0.73027345662E+01  0.61435588078E+02  0.47000000000E+01 0. -1.
        -11    1    6    6    0    0  0.77133784165E+01  0.56468346371E+02  0.98531034260E+02  0.11382677655E+03  0.00000000000E+00 0.  1.
         12    1    6    6    0    0 -0.92473943917E+02  0.15228478208E+03  0.18393253333E+03  0.25607276695E+03  0.00000000000E+00 0. -1.
         -5    1    3    3    0  503  0.44814725308E+02 -0.88841899620E+01  0.24116842937E+02  0.51874854688E+02  0.47000000000E+01 0.  1.
         13    1    4    4    0    0  0.58604077554E+02 -0.13837530927E+03 -0.32798918871E+02  0.15381135589E+03  0.00000000000E+00 0. -1.
        -14    1    4    4    0    0  0.11946384594E+02 -0.11405091858E+03 -0.80554669470E+02  0.14014058266E+03  0.00000000000E+00 0.  1.
</event>
<event>
12    1  0.1032880E+000  0.3011444E+03  0.7818608E-02  0.1084769E+00
         21   -1    0    0  501  502  0.00000000000E+00  0.00000000000E+00  0.13108173608E+03  0.13108173608E+03  0.00000000000E+00 0. -1.
         21   -1    0    0  502  503 -0.00000000000E+00 -0.00000000000E+00 -0.80152411786E+03  0.80152411786E+03  0.00000000000E+00 0.  1.
         -6    2    1    2    0  503  0.21243234669E+03  0.12496849162E+03 -0.16168165577E+03  0.34180240738E+03  0.17304133049E+03 0.  0.
        -24    2    3    3    0    0  0.15696710354E+03  0.58620245219E+02 -0.36011027221E+02  0.18917973580E+03  0.80107263181E+02 0.  0.
          6    2    1    2  501    0 -0.21243234669E+03 -0.12496849162E+03 -0.50876072602E+03  0.59080344656E+03  0.17165841172E+03 0.  0.
         24    2    5    5    0    0 -0.15962044429E+03 -0.13250964257E+03 -0.28110044313E+03  0.35692899221E+03  0.73098254041E+02 0.  0.
          5    1    5    5  501    0 -0.52811902400E+02  0.75411509553E+01 -0.22766028289E+03  0.23387445435E+03  0.47000000000E+01 0. -1.
        -11    1    6    6    0    0 -0.89631989068E+02 -0.66427729995E+02 -0.20811201751E+03  0.23612951660E+03  0.00000000000E+00 0.  1.
         12    1    6    6    0    0 -0.69988455222E+02 -0.66081912579E+02 -0.72988425620E+02  0.12079947561E+03  0.00000000000E+00 0. -1.
         -5    1    3    3    0  503  0.55465243150E+02  0.66348246399E+02 -0.12567062855E+03  0.15262267157E+03  0.47000000000E+01 0.  1.
         13    1    4    4    0    0  0.28587187565E+01 -0.10417755663E+02  0.93941688071E+01  0.14316155684E+02  0.00000000000E+00 0. -1.
        -14    1    4    4    0    0  0.15410838478E+03  0.69038000882E+02 -0.45405196028E+02  0.17486358012E+03  0.00000000000E+00 0.  1.
</event>
<event>
12    1  0.1032880E+000  0.2087117E+03  0.7818608E-02  0.1142916E+00
         21   -1    0    0  503  502  0.00000000000E+00  0.00000000000E+00  0.11718979971E+03  0.11718979971E+03  0.00000000000E+00 0. -1.
         21   -1    0    0  501  503 -0.00000000000E+00 -0.00000000000E+00 -0.49922842551E+03  0.49922842551E+03  0.00000000000E+00 0. -1.
          6    2    1    2  501    0  0.11695494028E+03  0.63492673107E+01 -0.34048288417E+02  0.21147072211E+03  0.17274781942E+03 0.  0.
         24    2    3    3    0    0  0.32499626990E+02  0.47116813309E+02  0.24664347699E+02  0.10072797342E+03  0.79130112663E+02 0.  0.
         -6    2    1    2    0  502 -0.11695494028E+03 -0.63492673107E+01 -0.34799033738E+03  0.40494750310E+03  0.17078183190E+03 0.  0.
        -24    2    5    5    0    0 -0.12113203847E+03  0.23685361499E+02 -0.16161799116E+03  0.21606587744E+03  0.73007679277E+02 0.  0.
          5    1    3    3  501    0  0.84455313291E+02 -0.40767545998E+02 -0.58712636116E+02  0.11074274870E+03  0.47000000000E+01 0. -1.
        -11    1    4    4    0    0  0.31571151514E+02  0.68754186006E+02  0.15586815571E+02  0.77245223289E+02  0.00000000000E+00 0.  1.
         12    1    4    4    0    0  0.92847547575E+00 -0.21637372697E+02  0.90775321287E+01  0.23482750127E+02  0.00000000000E+00 0. -1.
         -5    1    5    5    0  502  0.41770981908E+01 -0.30034628810E+02 -0.18637234622E+03  0.18888162566E+03  0.47000000000E+01 0.  1.
         11    1    6    6    0    0 -0.37325738584E+02 -0.16065794662E+01 -0.64573303534E+01  0.37914231810E+02  0.00000000000E+00 0. -1.
        -12    1    6    6    0    0 -0.83806299887E+02  0.25291940966E+02 -0.15516066080E+03  0.17815164563E+03  0.00000000000E+00 0.  1.
</event>
<event>
12    1  0.1032880E+000  0.2476558E+03  0.7818608E-02  0.1114886E+00
         21   -1    0    0  503  502  0.00000000000E+00  0.00000000000E+00  0.13478673782E+03  0.13478673782E+03  0.00000000000E+00 0.  1.
         21   -1    0    0  501  503 -0.00000000000E+00 -0.00000000000E+00 -0.45565517510E+03  0.45565517510E+03  0.00000000000E+00 0.  1.
          6    2    1    2  501    0  0.26848819725E+02  0.17588051322E+03 -0.17805766046E+03  0.30456025499E+03  0.17145729620E+03 0.  0.
         24    2    3    3    0    0 -0.44258465741E+02  0.59276622356E+02 -0.60917950947E+02  0.12456993593E+03  0.79587325893E+02 0.  0.
         -6    2    1    2    0  502 -0.26848819725E+02 -0.17588051322E+03 -0.14281077682E+03  0.28588165792E+03  0.17227475238E+03 0.  0.
        -24    2    5    5    0    0  0.58299753051E+01 -0.17729674201E+03 -0.15522757779E+03  0.25058043564E+03  0.85010766858E+02 0.  0.
          5    1    3    3  501    0  0.71107285466E+02  0.11660389086E+03 -0.11713970951E+03  0.17999031906E+03  0.47000000000E+01 0. -1.
        -13    1    4    4    0    0 -0.47321491705E+02  0.63214195295E+02 -0.17517860008E+02  0.80884074349E+02  0.00000000000E+00 0.  1.
         14    1    4    4    0    0  0.30630259638E+01 -0.39375729398E+01 -0.43400090939E+02  0.43685861582E+02  0.00000000000E+00 0. -1.
         -5    1    5    5    0  502 -0.32678795030E+02  0.14162287880E+01  0.12416800962E+02  0.35301222284E+02  0.47000000000E+01 0.  1.
         13    1    6    6    0    0 -0.34910661574E+02 -0.11676933110E+03 -0.80024792940E+02  0.14580054342E+03  0.00000000000E+00 0. -1.
        -14    1    6    6    0    0  0.40740636879E+02 -0.60527410904E+02 -0.75202784847E+02  0.10477989222E+03  0.00000000000E+00 0.  1.
</event>
<event>
12    1  0.1032880E+000  0.6640960E+03  0.7818608E-02  0.9780725E-01
         21   -1    0    0  501  502  0.00000000000E+00  0.00000000000E+00  0.35292516113E+03  0.35292516113E+03  0.00000000000E+00 0. -1.
         21   -1    0    0  502  503 -0.00000000000E+00 -0.00000000000E+00 -0.12590155164E+04  0.12590155164E+04  0.00000000000E+00 0. -1.
         -6    2    1    2    0  503  0.62576806176E+03 -0.14050556319E+03 -0.38282088366E+03  0.76653459281E+03  0.17232519431E+03 0.  0.
        -24    2    3    3    0    0  0.47289405564E+03 -0.15516996258E+03 -0.24771248453E+03  0.56193284337E+03  0.81856828172E+02 0.  0.
          6    2    1    2  501    0 -0.62576806176E+03  0.14050556319E+03 -0.52326947162E+03  0.84540608473E+03  0.17196810101E+03 0.  0.
         24    2    5    5    0    0 -0.43521450896E+03  0.67000042537E+02 -0.43029832162E+03  0.62095243075E+03  0.80775003311E+02 0.  0.
          5    1    5    5  501    0 -0.19055355281E+03  0.73505520650E+02 -0.92971150000E+02  0.22445365398E+03  0.47000000000E+01 0. -1.
        -13    1    6    6    0    0 -0.39999636882E+03  0.80123302536E+02 -0.40940034225E+03  0.57794937400E+03  0.00000000000E+00 0.  1.
         14    1    6    6    0    0 -0.35218140139E+02 -0.13123259999E+02 -0.20897979369E+02  0.43003056746E+02  0.00000000000E+00 0. -1.
         -5    1    3    3    0  503  0.15287400613E+03  0.14664399395E+02 -0.13510839913E+03  0.20460174944E+03  0.47000000000E+01 0.  1.
         11    1    4    4    0    0 -0.89910585718E-01  0.16172301383E+00 -0.10444060435E+02  0.10445699432E+02  0.00000000000E+00 0. -1.
        -12    1    4    4    0    0  0.47298396622E+03 -0.15533168560E+03 -0.23726842410E+03  0.55148714394E+03  0.00000000000E+00 0.  1.
</event>
<event>
12    1  0.1032880E+000  0.1748148E+03  0.7818608E-02  0.1173035E+00
         21   -1    0    0  503  502  0.00000000000E+00  0.00000000000E+00  0.76506388983E+02  0.76506388983E+02  0.00000000000E+00 0. -1.
         21   -1    0    0  501  503 -0.00000000000E+00 -0.00000000000E+00 -0.40156005293E+03  0.40156005293E+03  0.00000000000E+00 0. -1.
          6    2    1    2  501    0 -0.25994164194E+02 -0.15456053004E+02 -0.14105274377E+03  0.22426231234E+03  0.17170649977E+03 0.  0.
         24    2    3    3    0    0 -0.59978438904E+02 -0.30938395347E+02 -0.36530738418E+02  0.11316967777E+03  0.83176220628E+02 0.  0.
         -6    2    1    2    0  502  0.25994164194E+02  0.15456053004E+02 -0.18400092018E+03  0.25380412957E+03  0.17217900980E+03 0.  0.
        -24    2    5    5    0    0 -0.23134482130E+02  0.43101617133E+02 -0.15669789481E+03  0.19099134187E+03  0.97624324663E+02 0.  0.
          5    1    3    3  501    0  0.33984274710E+02  0.15482342343E+02 -0.10452200536E+03  0.11109263457E+03  0.47000000000E+01 0. -1.
        -13    1    4    4    0    0 -0.44710821020E+02  0.16504825128E+02 -0.41350565135E+02  0.63097828851E+02  0.00000000000E+00 0.  1.
         14    1    4    4    0    0 -0.15267617885E+02 -0.47443220475E+02  0.48198267169E+01  0.50071848922E+02  0.00000000000E+00 0. -1.
         -5    1    5    5    0  502  0.49128646324E+02 -0.27645564129E+02 -0.27303025365E+02  0.62812787709E+02  0.47000000000E+01 0.  1.
         13    1    6    6    0    0 -0.55011406993E+02  0.45502285448E+02 -0.76400099121E+02  0.10456427701E+03  0.00000000000E+00 0. -1.
        -14    1    6    6    0    0  0.31876924863E+02 -0.24006683146E+01 -0.80297795692E+02  0.86427064858E+02  0.00000000000E+00 0.  1.
</event>
<event>
12    1  0.1032880E+000  0.2585004E+03  0.7818608E-02  0.1108440E+00
         21   -1    0    0  501  502  0.00000000000E+00  0.00000000000E+00  0.81468484664E+03  0.81468484664E+03  0.00000000000E+00 0.  1.
         21   -1    0    0  502  503 -0.00000000000E+00 -0.00000000000E+00 -0.95611657337E+02  0.95611657337E+02  0.00000000000E+00 0.  1.
         -6    2    1    2    0  503  0.90285149752E+02  0.16600776839E+03  0.18440010509E+03  0.31753084066E+03  0.17638721207E+03 0.  0.
        -24    2    3    3    0    0  0.32102238707E+02  0.58374459202E+02  0.16227820366E+03  0.19310556627E+03  0.80730496876E+02 0.  0.
          6    2    1    2  501    0 -0.90285149752E+02 -0.16600776839E+03  0.53467308421E+03  0.59276566332E+03  0.17258573870E+03 0.  0.
         24    2    5    5    0    0 -0.35799830998E+00 -0.52693639664E+02  0.12077534169E+03  0.15429056072E+03  0.80262981154E+02 0.  0.
          5    1    5    5  501    0 -0.89927151442E+02 -0.11331412872E+03  0.41389774252E+03  0.43847510260E+03  0.47000000000E+01 0. -1.
        -11    1    6    6    0    0  0.61580644771E+01  0.10002093492E+02 -0.56415367677E+01  0.13030371040E+02  0.00000000000E+00 0.  1.
         12    1    6    6    0    0 -0.65160627870E+01 -0.62695733157E+02  0.12641687845E+03  0.14126018968E+03  0.00000000000E+00 0. -1.
         -5    1    3    3    0  503  0.58182911045E+02  0.10763330918E+03  0.22121901438E+02  0.12442527439E+03  0.47000000000E+01 0.  1.
         11    1    4    4    0    0 -0.16114707866E+02  0.47156935201E+02  0.50964140202E+02  0.71279758232E+02  0.00000000000E+00 0. -1.
        -12    1    4    4    0    0  0.48216946573E+02  0.11217524001E+02  0.11131406346E+03  0.12182580804E+03  0.00000000000E+00 0.  1.
</event>
<event>
12    1  0.1032880E+000  0.2043072E+03  0.7818608E-02  0.1146510E+00
         21   -1    0    0  503  502  0.00000000000E+00  0.00000000000E+00  0.45030618071E+03  0.45030618071E+03  0.00000000000E+00 0. -1.
         21   -1    0    0  501  503 -0.00000000000E+00 -0.00000000000E+00 -0.16236932081E+03  0.16236932081E+03  0.00000000000E+00 0. -1.
          6    2    1    2  501    0 -0.10320962437E+03 -0.36323740525E+02 -0.57474673559E+02  0.21223753946E+03  0.17253925456E+03 0.  0.
         24    2    3    3    0    0 -0.47381895386E+02 -0.55643406364E+02  0.24871036025E+02  0.11078365487E+03  0.79455755425E+02 0.  0.
         -6    2    1    2    0  502  0.10320962437E+03  0.36323740525E+02  0.34541153346E+03  0.40043796207E+03  0.17049866077E+03 0.  0.
        -24    2    5    5    0    0  0.20118165354E+02  0.49976941440E+01  0.27583842174E+03  0.28753083378E+03  0.78469280224E+02 0.  0.
          5    1    3    3  501    0 -0.55827728987E+02  0.19319665840E+02 -0.82345709584E+02  0.10145388459E+03  0.47000000000E+01 0. -1.
        -13    1    4    4    0    0 -0.64616157728E+02 -0.61273513757E+02  0.15546218140E+02  0.90395664864E+02  0.00000000000E+00 0.  1.
         14    1    4    4    0    0  0.17234262342E+02  0.56301073929E+01  0.93248178851E+01  0.20387990002E+02  0.00000000000E+00 0. -1.
         -5    1    5    5    0  502  0.83091459020E+02  0.31326046380E+02  0.69573111720E+02  0.11290712829E+03  0.47000000000E+01 0.  1.
         13    1    6    6    0    0  0.23472239780E+02 -0.25842112490E+02  0.59547272556E+02  0.69026360813E+02  0.00000000000E+00 0. -1.
        -14    1    6    6    0    0 -0.33540744265E+01  0.30839806634E+02  0.21629114919E+03  0.21850447296E+03  0.00000000000E+00 0.  1.
</event>
<event>
12    1  0.1032880E+000  0.1785441E+03  0.7818608E-02  0.1169851E+00
         21   -1    0    0  501  502  0.00000000000E+00  0.00000000000E+00  0.50403034457E+03  0.50403034457E+03  0.00000000000E+00 0. -1.
         21   -1    0    0  502  503 -0.00000000000E+00 -0.00000000000E+00 -0.65415390672E+02  0.65415390672E+02  0.00000000000E+00 0. -1.
         -6    2    1    2    0  503  0.14867795321E+02 -0.35762288305E+02  0.28253353829E+03  0.33422029034E+03  0.17429288458E+03 0.  0.
        -24    2    3    3    0    0  0.88923981107E+01  0.42681376306E+02  0.10566687698E+03  0.14058914675E+03  0.81847691866E+02 0.  0.
          6    2    1    2  501    0 -0.14867795321E+02  0.35762288305E+02  0.15608141561E+03  0.23522544490E+03  0.17166714603E+03 0.  0.
         24    2    5    5    0    0  0.54540550732E+02  0.38224150206E+02  0.75202522575E+02  0.12851525511E+03  0.80156060667E+02 0.  0.
          5    1    5    5  501    0 -0.69408346053E+02 -0.24618619004E+01  0.80878893033E+02  0.10671018979E+03  0.47000000000E+01 0. -1.
        -13    1    6    6    0    0 -0.15641948514E+02  0.12238301767E+02 -0.32126296529E+01  0.20118836266E+02  0.00000000000E+00 0.  1.
         14    1    6    6    0    0  0.70182499245E+02  0.25985848439E+02  0.78415152228E+02  0.10839641884E+03  0.00000000000E+00 0. -1.
         -5    1    3    3    0  503  0.59753972103E+01 -0.78443664611E+02  0.17686666130E+03  0.19363114360E+03  0.47000000000E+01 0.  1.
         11    1    4    4    0    0  0.29399177104E+02  0.25656822615E+02  0.10701042903E+03  0.11390266056E+03  0.00000000000E+00 0. -1.
        -12    1    4    4    0    0 -0.20506778994E+02  0.17024553691E+02 -0.13435520445E+01  0.26686486190E+02  0.00000000000E+00 0.  1.
</event>
<event>
12    1  0.1032880E+000  0.1763128E+03  0.7818608E-02  0.1171585E+00
         21   -1    0    0  501  502  0.00000000000E+00  0.00000000000E+00  0.99673172104E+02  0.99673172104E+02  0.00000000000E+00 0. -1.
         21   -1    0    0  502  503 -0.00000000000E+00 -0.00000000000E+00 -0.31518303327E+03  0.31518303327E+03  0.00000000000E+00 0. -1.
         -6    2    1    2    0  503 -0.35641427764E+02 -0.11750332999E+02 -0.83243677482E+02  0.19497622135E+03  0.17227256123E+03 0.  0.
        -24    2    3    3    0    0 -0.55544811447E+02 -0.66685603812E+02 -0.50213321536E+02  0.12769232227E+03  0.79068044572E+02 0.  0.
          6    2    1    2  501    0  0.35641427764E+02  0.11750332999E+02 -0.13226618368E+03  0.21987998402E+03  0.17159394607E+03 0.  0.
         24    2    5    5    0    0  0.78843857573E+02  0.35433379984E+01 -0.13536807418E+03  0.17554583879E+03  0.79138592914E+02 0.  0.
          5    1    5    5  501    0 -0.43202429810E+02  0.82069950008E+01  0.31018905031E+01  0.44334145228E+02  0.47000000000E+01 0. -1.
        -11    1    6    6    0    0 -0.13817969484E+02 -0.46157896006E+01 -0.50177613682E+01  0.15408430272E+02  0.00000000000E+00 0.  1.
         12    1    6    6    0    0  0.92661827058E+02  0.81591275990E+01 -0.13035031282E+03  0.16013740852E+03  0.00000000000E+00 0. -1.
         -5    1    3    3    0  503  0.19903383684E+02  0.54935270813E+02 -0.33030355946E+02  0.67283899079E+02  0.47000000000E+01 0.  1.
         11    1    4    4    0    0 -0.96309257391E+01 -0.66139539478E+02 -0.46910558693E+02  0.81656560850E+02  0.00000000000E+00 0. -1.
        -12    1    4    4    0    0 -0.45913885708E+02 -0.54606433429E+00 -0.33027628430E+01  0.46035761420E+02  0.00000000000E+00 0.  1.
</event>
<event>
12    1  0.1032880E+000  0.1743681E+03  0.7818608E-02  0.1173736E+00
         21   -1    0    0  501  502  0.00000000000E+00  0.00000000000E+00  0.18435419156E+03  0.18435419156E+03  0.00000000000E+00 0. -1.
         21   -1    0    0  502  503 -0.00000000000E+00 -0.00000000000E+00 -0.16474447052E+03  0.16474447052E+03  0.00000000000E+00 0. -1.
         -6    2    1    2    0  503  0.38728594210E+01  0.19713694421E+02  0.24699128520E+02  0.17610868070E+03  0.17320678878E+03 0.  0.
        -24    2    3    3    0    0  0.70534849816E+02  0.91466374638E+01  0.12928986602E+02  0.10743474170E+03  0.79474769671E+02 0.  0.
          6    2    1    2  501    0 -0.38728594210E+01 -0.19713694421E+02 -0.50894074821E+01  0.17298998139E+03  0.17174400369E+03 0.  0.
         24    2    5    5    0    0  0.41447860645E+02  0.16287961151E+02 -0.52897850041E+02  0.97771472688E+02  0.69122033406E+02 0.  0.
          5    1    5    5  501    0 -0.45320720066E+02 -0.36001655572E+02  0.47808442559E+02  0.75218508700E+02  0.47000000000E+01 0. -1.
        -11    1    6    6    0    0  0.25094702548E+01 -0.94304945876E+01  0.13473958084E+02  0.16636682829E+02  0.00000000000E+00 0.  1.
         12    1    6    6    0    0  0.38938390390E+02  0.25718455739E+02 -0.66371808124E+02  0.81134789859E+02  0.00000000000E+00 0. -1.
         -5    1    3    3    0  503 -0.66661990395E+02  0.10567056957E+02  0.11770141917E+02  0.68673938994E+02  0.47000000000E+01 0.  1.
         13    1    4    4    0    0  0.37753065466E+02 -0.82940971437E+01  0.44322693449E+02  0.58809753902E+02  0.00000000000E+00 0. -1.
        -14    1    4    4    0    0  0.32781784350E+02  0.17440734608E+02 -0.31393706846E+02  0.48624987798E+02  0.00000000000E+00 0.  1.
</event>
<event>
12    1  0.1032880E+000  0.1824113E+03  0.7818608E-02  0.1167763E+00
         21   -1    0    0  503  502  0.00000000000E+00  0.00000000000E+00  0.27988728417E+04  0.27988728417E+04  0.00000000000E+00 0.  1.
         21   -1    0    0  501  503 -0.00000000000E+00 -0.00000000000E+00 -0.11290281483E+02  0.11290281483E+02  0.00000000000E+00 0.  1.
          6    2    1    2  501    0 -0.47728639904E+02  0.32708013016E+02  0.13556100990E+04  0.13666192139E+04  0.16316095735E+03 0.  0.
         24    2    3    3    0    0 -0.72547108788E+02  0.34626813599E+02  0.13063329265E+04  0.13112119226E+04  0.79428533577E+02 0.  0.
         -6    2    1    2    0  502  0.47728639904E+02 -0.32708013016E+02  0.14319724612E+04  0.14435439093E+04  0.17299147745E+03 0.  0.
        -24    2    5    5    0    0 -0.20717946324E+02 -0.58782115104E+02  0.10260574457E+04  0.10310467774E+04  0.79868674032E+02 0.  0.
          5    1    3    3  501    0  0.24818468884E+02 -0.19188005826E+01  0.49277172514E+02  0.55407291256E+02  0.47000000000E+01 0. -1.
        -11    1    4    4    0    0  0.28489486013E+01  0.42738083709E+01  0.44543585948E+01  0.67987687573E+01  0.00000000000E+00 0.  1.
         12    1    4    4    0    0 -0.75396057389E+02  0.30353005228E+02  0.13018785679E+04  0.13044131539E+04  0.00000000000E+00 0. -1.
         -5    1    5    5    0  502  0.68446586228E+02  0.26074102088E+02  0.40591501550E+03  0.41249713184E+03  0.47000000000E+01 0.  1.
         11    1    6    6    0    0  0.25717122840E+02 -0.19257168087E+02  0.18396621904E+03  0.18675057879E+03  0.00000000000E+00 0. -1.
        -12    1    6    6    0    0 -0.46435069163E+02 -0.39524947017E+02  0.84209122662E+03  0.84429619864E+03  0.00000000000E+00 0.  1.
</event>
<event>
12    1  0.1032880E+000  0.1897536E+03  0.7818608E-02  0.1158933E+00
         21   -1    0    0  501  502  0.00000000000E+00  0.00000000000E+00  0.17357830663E+04  0.17357830663E+04  0.00000000000E+00 0.  1.
         21   -1    0    0  502  503 -0.00000000000E+00 -0.00000000000E+00 -0.21023248154E+02  0.21023248154E+02  0.00000000000E+00 0.  1.
         -6    2    1    2    0  503 -0.75847188830E+02 -0.21400815845E+02  0.97602927897E+03  0.99409455479E+03  0.17140606611E+03 0.  0.
        -24    2    3    3    0    0 -0.10415515183E+03 -0.44667849731E+02  0.57972640916E+03  0.59607351232E+03  0.79858688698E+02 0.  0.
          6    2    1    2  501    0  0.75847188830E+02  0.21400815845E+02  0.73873053918E+03  0.76271175966E+03  0.17261410091E+03 0.  0.
         24    2    5    5    0    0  0.74181531955E+02  0.48439508467E+01  0.73773171115E+03  0.74539148689E+03  0.76380806159E+02 0.  0.
          5    1    5    5  501    0  0.16656568753E+01  0.16556864998E+02  0.99882803049E+00  0.17320272770E+02  0.47000000000E+01 0. -1.
        -11    1    6    6    0    0 -0.67618201016E+01 -0.20578964798E+02  0.13862180566E+03  0.14030403062E+03  0.00000000000E+00 0.  1.
         12    1    6    6    0    0  0.80943352057E+02  0.25422915644E+02  0.59910990549E+03  0.60508745627E+03  0.00000000000E+00 0. -1.
         -5    1    3    3    0  503  0.28307962996E+02  0.23267033886E+02  0.39630286980E+03  0.39802104247E+03  0.47000000000E+01 0.  1.
         11    1    4    4    0    0 -0.51992296367E+02 -0.50380584835E+02  0.45551808736E+03  0.46123543893E+03  0.00000000000E+00 0. -1.
        -12    1    4    4    0    0 -0.52162855460E+02  0.57127351045E+01  0.12420832180E+03  0.13483807340E+03  0.00000000000E+00 0.  1.
</event>
<event>
12    1  0.1032880E+000  0.2781148E+03  0.7818608E-02  0.1096950E+00
         21   -1    0    0  501  502  0.00000000000E+00  0.00000000000E+00  0.16170899446E+04  0.16170899446E+04  0.00000000000E+00 0.  1.
         21   -1    0    0  502  503 -0.00000000000E+00 -0.00000000000E+00 -0.15035504960E+03  0.15035504960E+03  0.00000000000E+00 0.  1.
         -6    2    1    2    0  503 -0.12588271656E+03 -0.17603379894E+03  0.14647956635E+04  0.14909641716E+04  0.17468104805E+03 0.  0.
        -24    2    3    3    0    0 -0.59853871132E+02 -0.11646741370E+03  0.51774441718E+03  0.53973543161E+03  0.78153120618E+02 0.  0.
          6    2    1    2  501    0  0.12588271656E+03  0.17603379894E+03  0.19392315044E+01  0.27648082258E+03  0.17205675790E+03 0.  0.
         24    2    5    5    0    0  0.11431658005E+03  0.49637931940E+02  0.20725008469E+02  0.14808811982E+03  0.77255164840E+02 0.  0.
          5    1    5    5  501    0  0.11566136520E+02  0.12639586700E+03 -0.18785776964E+02  0.12839270277E+03  0.47000000000E+01 0. -1.
        -11    1    6    6    0    0  0.37435878966E+02 -0.10597197268E+00  0.39706151524E+02  0.54571372833E+02  0.00000000000E+00 0.  1.
         12    1    6    6    0    0  0.76880701079E+02  0.49743903912E+02 -0.18981143055E+02  0.93516746984E+02  0.00000000000E+00 0. -1.
         -5    1    3    3    0  503 -0.66028845433E+02 -0.59566385233E+02  0.94705124632E+03  0.95122874002E+03  0.47000000000E+01 0.  1.
         13    1    4    4    0    0 -0.24670802649E+02 -0.41786399952E+02  0.74785261583E+02  0.89149240458E+02  0.00000000000E+00 0. -1.
        -14    1    4    4    0    0 -0.35183068483E+02 -0.74681013752E+02  0.44295915560E+03  0.45058619115E+03  0.00000000000E+00 0.  1.
</event>
<event>
12    1  0.1032880E+000  0.5191036E+03  0.7818608E-02  0.1008925E+00
         21   -1    0    0  501  502  0.00000000000E+00  0.00000000000E+00  0.89720096128E+03  0.89720096128E+03  0.00000000000E+00 0.  1.
         21   -1    0    0  502  503 -0.00000000000E+00 -0.00000000000E+00 -0.32916976320E+03  0.32916976320E+03  0.00000000000E+00 0.  1.
         -6    2    1    2    0  503  0.45308684828E+02 -0.48751178482E+03  0.46585635655E+03  0.69730715363E+03  0.17173964103E+03 0.  0.
        -24    2    3    3    0    0  0.91002471926E+02 -0.26650915300E+03  0.24868295960E+03  0.38407168342E+03  0.79745000366E+02 0.  0.
          6    2    1    2  501    0 -0.45308684828E+02  0.48751178482E+03  0.10217484153E+03  0.52906357086E+03  0.17247593021E+03 0.  0.
         24    2    5    5    0    0 -0.28359651888E+02  0.10617480528E+03  0.42992446724E+02  0.14276083007E+03  0.80342672319E+02 0.  0.
          5    1    5    5  501    0 -0.16949032940E+02  0.38133697954E+03  0.59182394809E+02  0.38630274078E+03  0.47000000000E+01 0. -1.
        -13    1    6    6    0    0  0.11405231276E+02  0.34984116623E+02 -0.17968578365E+02  0.40949206645E+02  0.00000000000E+00 0.  1.
         14    1    6    6    0    0 -0.39764883164E+02  0.71190688658E+02  0.60961025090E+02  0.10181162343E+03  0.00000000000E+00 0. -1.
         -5    1    3    3    0  503 -0.45693787098E+02 -0.22100263183E+03  0.21717339695E+03  0.31323547020E+03  0.47000000000E+01 0.  1.
         13    1    4    4    0    0  0.44162107984E+02 -0.18541372452E+03  0.20753766262E+03  0.28178080564E+03  0.00000000000E+00 0. -1.
        -14    1    4    4    0    0  0.46840363942E+02 -0.81095428474E+02  0.41145296986E+02  0.10229087778E+03  0.00000000000E+00 0.  1.
</event>
<event>
12    1  0.1032880E+000  0.2198542E+03  0.7818608E-02  0.1134047E+00
         21   -1    0    0  501  502  0.00000000000E+00  0.00000000000E+00  0.13121053056E+04  0.13121053056E+04  0.00000000000E+00 0. -1.
         21   -1    0    0  502  503 -0.00000000000E+00 -0.00000000000E+00 -0.46596283443E+02  0.46596283443E+02  0.00000000000E+00 0. -1.
         -6    2    1    2    0  503 -0.49137834347E+02 -0.12940502302E+03  0.94475708069E+03  0.97000093501E+03  0.17080891559E+03 0.  0.
        -24    2    3    3    0    0 -0.97975433123E+02 -0.79989311712E+02  0.66135796463E+03  0.67817192246E+03  0.80779474808E+02 0.  0.
          6    2    1    2  501    0  0.49137834347E+02  0.12940502302E+03  0.32075194147E+03  0.38870065405E+03  0.17042946855E+03 0.  0.
         24    2    5    5    0    0  0.65439463327E+02  0.14726068549E+03  0.31347504552E+03  0.36301776082E+03  0.86874954130E+02 0.  0.
          5    1    5    5  501    0 -0.16301628980E+02 -0.17855662472E+02  0.72768959508E+01  0.25682893225E+02  0.47000000000E+01 0. -1.
        -13    1    6    6    0    0  0.50829190539E+01  0.84395364213E+02  0.91673825920E+02  0.12470967856E+03  0.00000000000E+00 0.  1.
         14    1    6    6    0    0  0.60356544273E+02  0.62865321277E+02  0.22180121960E+03  0.23830808227E+03  0.00000000000E+00 0. -1.
         -5    1    3    3    0  503  0.48837598776E+02 -0.49415711306E+02  0.28339911607E+03  0.29182901255E+03  0.47000000000E+01 0.  1.
         11    1    4    4    0    0 -0.33889368329E+02  0.49396993097E+01  0.28545187551E+03  0.28749897938E+03  0.00000000000E+00 0. -1.
        -12    1    4    4    0    0 -0.64086064794E+02 -0.84929011022E+02  0.37590608912E+03  0.39067294307E+03  0.00000000000E+00 0.  1.
</event>
<event>
12    1  0.1032880E+000  0.3164997E+03  0.7818608E-02  0.1077442E+00
         21   -1    0    0  501  502  0.00000000000E+00  0.00000000000E+00  0.15345156377E+03  0.15345156377E+03  0.00000000000E+00 0. -1.
         21   -1    0    0  502  503 -0.00000000000E+00 -0.00000000000E+00 -0.67376892636E+03  0.67376892636E+03  0.00000000000E+00 0.  1.
         -6    2    1    2    0  503 -0.11617882501E+03  0.23891213796E+03 -0.33760180568E+03  0.46176595248E+03  0.16934074119E+03 0.  0.
        -24    2    3    3    0    0  0.12714531287E+02  0.11783852002E+03 -0.13903736890E+03  0.19582941153E+03  0.70499591227E+02 0.  0.
          6    2    1    2  501    0  0.11617882501E+03 -0.23891213796E+03 -0.18271555691E+03  0.36545453765E+03  0.17203347148E+03 0.  0.
         24    2    5    5    0    0  0.25148760043E+02 -0.13123770073E+03 -0.15506006795E+03  0.22169371813E+03  0.85139214005E+02 0.  0.
          5    1    5    5  501    0  0.91030064967E+02 -0.10767443723E+03 -0.27655488966E+02  0.14376081952E+03  0.47000000000E+01 0. -1.
        -13    1    6    6    0    0  0.67221524508E+01 -0.13283143760E+03 -0.10866608540E+03  0.17174893380E+03  0.00000000000E+00 0.  1.
         14    1    6    6    0    0  0.18426607592E+02  0.15937368632E+01 -0.46393982549E+02  0.49944784326E+02  0.00000000000E+00 0. -1.
         -5    1    3    3    0  503 -0.12889335630E+03  0.12107361794E+03 -0.19856443678E+03  0.26593654095E+03  0.47000000000E+01 0.  1.
         13    1    4    4    0    0 -0.71956694329E+01 -0.78368172072E+01 -0.11702363030E+02  0.15815772603E+02  0.00000000000E+00 0. -1.
        -14    1    4    4    0    0  0.19910200720E+02  0.12567533723E+03 -0.12733500587E+03  0.18001363893E+03  0.00000000000E+00 0.  1.
</event>
<event>
12    1  0.1032880E+000  0.1932575E+03  0.7818608E-02  0.1156000E+00
         21   -1    0    0  501  502  0.00000000000E+00  0.00000000000E+00  0.12219444581E+04  0.12219444581E+04  0.00000000000E+00 0. -1.
         21   -1    0    0  502  503 -0.00000000000E+00 -0.00000000000E+00 -0.70087649610E+02  0.70087649610E+02  0.00000000000E+00 0. -1.
         -6    2    1    2    0  503  0.16533589300E+02  0.87823470402E+02  0.10642713529E+04  0.10816755319E+04  0.17135379250E+03 0.  0.
        -24    2    3    3    0    0  0.13124597754E+02  0.17509553192E+02  0.23372631929E+03  0.24813920335E+03  0.80412886973E+02 0.  0.
          6    2    1    2  501    0 -0.16533589300E+02 -0.87823470402E+02  0.87585455614E+02  0.21035657582E+03  0.16909274209E+03 0.  0.
         24    2    5    5    0    0  0.25583494836E+02 -0.11422145239E+03  0.72433218097E+02  0.15818012011E+03  0.77931533530E+02 0.  0.
          5    1    5    5  501    0 -0.42117084136E+02  0.26397981990E+02  0.15152237517E+02  0.52176455716E+02  0.47000000000E+01 0. -1.
        -13    1    6    6    0    0  0.14690344602E+02 -0.87897128720E+02  0.10152455476E+02  0.89692718845E+02  0.00000000000E+00 0.  1.
         14    1    6    6    0    0  0.10893150234E+02 -0.26324323673E+02  0.62280762621E+02  0.68487401261E+02  0.00000000000E+00 0. -1.
         -5    1    3    3    0  503  0.34089915462E+01  0.70313917210E+02  0.83054503358E+03  0.83353632853E+03  0.47000000000E+01 0.  1.
         11    1    4    4    0    0 -0.21227035994E+02  0.42595324028E+01  0.18887269375E+03  0.19010950823E+03  0.00000000000E+00 0. -1.
        -12    1    4    4    0    0  0.34351633748E+02  0.13250020790E+02  0.44853625535E+02  0.58029695120E+02  0.00000000000E+00 0.  1.
</event>
<event>
12    1  0.1032880E+000  0.2296457E+03  0.7818608E-02  0.1127015E+00
         21   -1    0    0  501  502  0.00000000000E+00  0.00000000000E+00  0.13067619490E+03  0.13067619490E+03  0.00000000000E+00 0.  1.
         21   -1    0    0  502  503 -0.00000000000E+00 -0.00000000000E+00 -0.42803182646E+03  0.42803182646E+03  0.00000000000E+00 0.  1.
         -6    2    1    2    0  503  0.47924776715E+02 -0.14357178250E+03 -0.79997329048E+02  0.24250908880E+03  0.17175984555E+03 0.  0.
        -24    2    3    3    0    0  0.91161902959E+01 -0.83115129547E+02  0.22513359956E+02  0.11724279395E+03  0.79042973576E+02 0.  0.
          6    2    1    2  501    0 -0.47924776715E+02  0.14357178250E+03 -0.21735830251E+03  0.31619893256E+03  0.17270637605E+03 0.  0.
         24    2    5    5    0    0  0.20720517350E+02  0.84271766049E+02 -0.57367566174E+02  0.13222123265E+03  0.81610944877E+02 0.  0.
          5    1    5    5  501    0 -0.68645294065E+02  0.59300016449E+02 -0.15999073634E+03  0.18397769991E+03  0.47000000000E+01 0. -1.
        -11    1    6    6    0    0  0.41291842821E+02  0.57622495277E+02 -0.66647860206E+02  0.97300079730E+02  0.00000000000E+00 0.  1.
         12    1    6    6    0    0 -0.20571325470E+02  0.26649270772E+02  0.92802940317E+01  0.34921152925E+02  0.00000000000E+00 0. -1.
         -5    1    3    3    0  503  0.38808586419E+02 -0.60456652951E+02 -0.10251068900E+03  0.12526629485E+03  0.47000000000E+01 0.  1.
         11    1    4    4    0    0  0.25731219366E+02 -0.51626602315E+01  0.26688183291E+02  0.37430039248E+02  0.00000000000E+00 0. -1.
        -12    1    4    4    0    0 -0.16615029070E+02 -0.77952469316E+02 -0.41748233345E+01  0.79812754703E+02  0.00000000000E+00 0.  1.
</event>
<event>
12    1  0.1032880E+000  0.2112207E+03  0.7818608E-02  0.1140767E+00
         21   -1    0    0  503  502  0.00000000000E+00  0.00000000000E+00  0.55227279929E+03  0.55227279929E+03  0.00000000000E+00 0. -1.
         21   -1    0    0  501  503 -0.00000000000E+00 -0.00000000000E+00 -0.91429385954E+02  0.91429385954E+02  0.00000000000E+00 0. -1.
          6    2    1    2  501    0 -0.69060194405E+02  0.10067789687E+03  0.11855962869E+03  0.24149279542E+03  0.17133894862E+03 0.  0.
         24    2    3    3    0    0 -0.39701256740E+02  0.83820146038E+02  0.14956234549E+03  0.19534748761E+03  0.84792329008E+02 0.  0.
         -6    2    1    2    0  502  0.69060194405E+02 -0.10067789687E+03  0.34228378465E+03  0.40220938983E+03  0.17236256746E+03 0.  0.
        -24    2    5    5    0    0 -0.97010088187E+01 -0.90163428972E-01  0.10243841584E+03  0.13042066638E+03  0.80136155870E+02 0.  0.
          5    1    3    3  501    0 -0.29358937665E+02  0.16857750836E+02 -0.31002716800E+02  0.46145307812E+02  0.47000000000E+01 0. -1.
        -11    1    4    4    0    0  0.14336625869E+02  0.36612761626E+02  0.13586587107E+02  0.41600823361E+02  0.00000000000E+00 0.  1.
         12    1    4    4    0    0 -0.54037882608E+02  0.47207384412E+02  0.13597575838E+03  0.15374666425E+03  0.00000000000E+00 0. -1.
         -5    1    5    5    0  502  0.78761203223E+02 -0.10058773344E+03  0.23984536881E+03  0.27178872345E+03  0.47000000000E+01 0.  1.
         11    1    6    6    0    0  0.29252096716E+02  0.65177665561E+01  0.78972512843E+02  0.84467888738E+02  0.00000000000E+00 0. -1.
        -12    1    6    6    0    0 -0.38953105534E+02 -0.66079299850E+01  0.23465902994E+02  0.45952777639E+02  0.00000000000E+00 0.  1.
</event>
<event>
12    1  0.1032880E+000  0.2478022E+03  0.7818608E-02  0.1114852E+00
         21   -1    0    0  501  502  0.00000000000E+00  0.00000000000E+00  0.72832826330E+02  0.72832826330E+02  0.00000000000E+00 0.  1.
         21   -1    0    0  502  503 -0.00000000000E+00 -0.00000000000E+00 -0.84249221436E+03  0.84249221436E+03  0.00000000000E+00 0.  1.
         -6    2    1    2    0  503 -0.13239511137E+02  0.17698574182E+03 -0.41086248100E+03  0.47980610748E+03  0.17293549381E+03 0.  0.
        -24    2    3    3    0    0 -0.45038692863E+02  0.27798673317E+02 -0.16836611900E+03  0.19328465113E+03  0.78807082428E+02 0.  0.
          6    2    1    2  501    0  0.13239511137E+02 -0.17698574182E+03 -0.35879690703E+03  0.43551893321E+03  0.17158753809E+03 0.  0.
         24    2    5    5    0    0 -0.36430551887E+02 -0.54854946044E+02 -0.94623161426E+02  0.14023448678E+03  0.79849348071E+02 0.  0.
          5    1    5    5  501    0  0.49670063024E+02 -0.12213079578E+03 -0.26417374560E+03  0.29528444643E+03  0.47000000000E+01 0. -1.
        -11    1    6    6    0    0 -0.43340120253E+02 -0.20931021899E+02 -0.94003631448E+02  0.10560850547E+03  0.00000000000E+00 0.  1.
         12    1    6    6    0    0  0.69095683663E+01 -0.33923924145E+02 -0.61952997760E+00  0.34625981312E+02  0.00000000000E+00 0. -1.
         -5    1    3    3    0  503  0.31799181726E+02  0.14918706851E+03 -0.24249636200E+03  0.28652145635E+03  0.47000000000E+01 0.  1.
         11    1    4    4    0    0 -0.12167966392E+01  0.40284660719E+02 -0.12110409571E+03  0.12763438597E+03  0.00000000000E+00 0. -1.
        -12    1    4    4    0    0 -0.43821896224E+02 -0.12485987402E+02 -0.47262023291E+02  0.65650265160E+02  0.00000000000E+00 0.  1.
</event>
<event>
12    1  0.1032880E+000  0.2189990E+03  0.7818608E-02  0.1136655E+00
         21   -1    0    0  503  502  0.00000000000E+00  0.00000000000E+00  0.14769843151E+04  0.14769843151E+04  0.00000000000E+00 0.  1.
         21   -1    0    0  501  503 -0.00000000000E+00 -0.00000000000E+00 -0.31387595443E+02  0.31387595443E+02  0.00000000000E+00 0.  1.
          6    2    1    2  501    0  0.10266521026E+03  0.88424901214E+02  0.79611839017E+03  0.82296498890E+03  0.15845432541E+03 0.  0.
         24    2    3    3    0    0  0.10210422471E+03  0.11600019176E+03  0.74212817872E+03  0.76215590828E+03  0.79032130723E+02 0.  0.
         -6    2    1    2    0  502 -0.10266521026E+03 -0.88424901214E+02  0.64947832944E+03  0.68540692160E+03  0.17205068790E+03 0.  0.
        -24    2    5    5    0    0 -0.12805871832E+03 -0.51509652543E+02  0.58798265848E+03  0.60917455719E+03  0.79484305423E+02 0.  0.
          5    1    3    3  501    0  0.56098554651E+00 -0.27575290546E+02  0.53990211449E+02  0.60809080619E+02  0.47000000000E+01 0. -1.
        -13    1    4    4    0    0  0.44847724722E+01  0.26868162799E+02  0.44975475785E+02  0.52581410959E+02  0.00000000000E+00 0.  1.
         14    1    4    4    0    0  0.97619452238E+02  0.89132028961E+02  0.69715270293E+03  0.70957449732E+03  0.00000000000E+00 0. -1.
         -5    1    5    5    0  502  0.25393508064E+02 -0.36915248672E+02  0.61495670964E+02  0.76232364411E+02  0.47000000000E+01 0.  1.
         11    1    6    6    0    0 -0.21054484088E+02  0.20768664972E+02  0.90676543566E+02  0.95377483182E+02  0.00000000000E+00 0. -1.
        -12    1    6    6    0    0 -0.10700423423E+03 -0.72278317515E+02  0.49730611491E+03  0.51379707401E+03  0.00000000000E+00 0.  1.
</event>
<event>
12    1  0.1032880E+000  0.2617402E+03  0.7818608E-02  0.1106129E+00
         21   -1    0    0  503  502  0.00000000000E+00  0.00000000000E+00  0.40873544405E+03  0.40873544405E+03  0.00000000000E+00 0.  1.
         21   -1    0    0  501  503 -0.00000000000E+00 -0.00000000000E+00 -0.33597063747E+03  0.33597063747E+03  0.00000000000E+00 0.  1.
          6    2    1    2  501    0 -0.19512555161E+03  0.24607662480E+02  0.30005352161E+03  0.39805337556E+03  0.17243797733E+03 0.  0.
         24    2    3    3    0    0 -0.92125326787E+02 -0.97756177175E+01  0.25009052030E+03  0.27843043558E+03  0.79972498880E+02 0.  0.
         -6    2    1    2    0  502  0.19512555161E+03 -0.24607662480E+02 -0.22728871502E+03  0.34665270596E+03  0.17270906355E+03 0.  0.
        -24    2    5    5    0    0  0.29118612605E+02 -0.37868763793E+02 -0.61057642681E+02  0.11130398594E+03  0.79866167337E+02 0.  0.
          5    1    3    3  501    0 -0.10300022482E+03  0.34383280197E+02  0.49963001310E+02  0.11962293998E+03  0.47000000000E+01 0. -1.
        -13    1    4    4    0    0 -0.38875966573E+02 -0.43866953516E+02  0.10725405927E+03  0.12222554404E+03  0.00000000000E+00 0.  1.
         14    1    4    4    0    0 -0.53249360214E+02  0.34091335799E+02  0.14283646103E+03  0.15620489153E+03  0.00000000000E+00 0. -1.
         -5    1    5    5    0  502  0.16600693900E+03  0.13261101313E+02 -0.16623107234E+03  0.23534872002E+03  0.47000000000E+01 0.  1.
         13    1    6    6    0    0  0.18389625072E+02 -0.51164575362E+02 -0.72588386137E+02  0.90692148967E+02  0.00000000000E+00 0. -1.
        -14    1    6    6    0    0  0.10728987534E+02  0.13295811569E+02  0.11530743456E+02  0.20611836973E+02  0.00000000000E+00 0.  1.
</event>
<event>
12    1  0.1032880E+000  0.4531175E+03  0.7818608E-02  0.1026828E+00
         21   -1    0    0  501  502  0.00000000000E+00  0.00000000000E+00  0.51292154238E+03  0.51292154238E+03  0.00000000000E+00 0.  1.
         21   -1    0    0  502  503 -0.00000000000E+00 -0.00000000000E+00 -0.43284208603E+03  0.43284208603E+03  0.00000000000E+00 0.  1.
         -6    2    1    2    0  503 -0.34651765773E+03 -0.23582626715E+03  0.17048333198E+03  0.48412807300E+03  0.17212469082E+03 0.  0.
        -24    2    3    3    0    0 -0.36183714432E+03 -0.23360014787E+03  0.15549113974E+03  0.46207137096E+03  0.61946018689E+02 0.  0.
          6    2    1    2  501    0  0.34651765773E+03  0.23582626715E+03 -0.90403875626E+02  0.46163555542E+03  0.17101464822E+03 0.  0.
         24    2    5    5    0    0  0.19016560594E+03  0.82768436401E+02 -0.95880841858E+02  0.24271833178E+03  0.81887001386E+02 0.  0.
          5    1    5    5  501    0  0.15635205178E+03  0.15305783074E+03  0.54769662322E+01  0.21891722364E+03  0.47000000000E+01 0. -1.
        -11    1    6    6    0    0  0.10147699077E+03  0.17187055733E+02 -0.10942418346E+02  0.10350222732E+03  0.00000000000E+00 0.  1.
         12    1    6    6    0    0  0.88688615177E+02  0.65581380667E+02 -0.84938423512E+02  0.13921610446E+03  0.00000000000E+00 0. -1.
         -5    1    3    3    0  503  0.15319486594E+02 -0.22261192799E+01  0.14992192241E+02  0.22056702037E+02  0.47000000000E+01 0.  1.
         11    1    4    4    0    0 -0.11616663348E+03 -0.42578203633E+02  0.50631722005E+02  0.13368306337E+03  0.00000000000E+00 0. -1.
        -12    1    4    4    0    0 -0.24567051084E+03 -0.19102194423E+03  0.10485941773E+03  0.32838830759E+03  0.00000000000E+00 0.  1.
</event>
<event>
12    1  0.1032880E+000  0.1896236E+03  0.7818608E-02  0.1159366E+00
         21   -1    0    0  501  502  0.00000000000E+00  0.00000000000E+00  0.24211764261E+03  0.24211764261E+03  0.00000000000E+00 0. -1.
         21   -1    0    0  502  503 -0.00000000000E+00 -0.00000000000E+00 -0.17853561378E+03  0.17853561378E+03  0.00000000000E+00 0. -1.
         -6    2    1    2    0  503  0.27181633032E+02  0.71859603558E+02  0.12094936584E+03  0.22491302090E+03  0.17336226254E+03 0.  0.
        -24    2    3    3    0    0 -0.27680892747E+02  0.33524208094E+02  0.36123678977E+02  0.11676041375E+03  0.10216638236E+03 0.  0.
          6    2    1    2  501    0 -0.27181633032E+02 -0.71859603558E+02 -0.57367337010E+02  0.19574023549E+03  0.17064754506E+03 0.  0.
         24    2    5    5    0    0 -0.17288071301E+02 -0.11647736855E+03 -0.38407970925E+02  0.14603937957E+03  0.77372303586E+02 0.  0.
          5    1    5    5  501    0 -0.98935617310E+01  0.44617764989E+02 -0.18959366085E+02  0.49700855915E+02  0.47000000000E+01 0. -1.
        -13    1    6    6    0    0 -0.41786062325E+02 -0.73179794504E+02 -0.45532780213E+02  0.95784087416E+02  0.00000000000E+00 0.  1.
         14    1    6    6    0    0  0.24497991024E+02 -0.43297574043E+02  0.71248092877E+01  0.50255292155E+02  0.00000000000E+00 0. -1.
         -5    1    3    3    0  503  0.54862525779E+02  0.38335395464E+02  0.84825686863E+02  0.10815260714E+03  0.47000000000E+01 0.  1.
         11    1    4    4    0    0 -0.18360050418E+02 -0.19875000743E+02 -0.23744046993E+02  0.35998428765E+02  0.00000000000E+00 0. -1.
        -12    1    4    4    0    0 -0.93208423290E+01  0.53399208838E+02  0.59867725971E+02  0.80761984987E+02  0.00000000000E+00 0.  1.
</event>
<event>
12    1  0.1032880E+000  0.2230952E+03  0.7818608E-02  0.1131667E+00
         21   -1    0    0  503  502  0.00000000000E+00  0.00000000000E+00  0.85980401768E+03  0.85980401768E+03  0.00000000000E+00 0.  1.
         21   -1    0    0  501  503 -0.00000000000E+00 -0.00000000000E+00 -0.83507888756E+02  0.83507888756E+02  0.00000000000E+00 0.  1.
          6    2    1    2  501    0 -0.95528359138E+02  0.10695182051E+03  0.12614976836E+03  0.25595335718E+03  0.17039365505E+03 0.  0.
         24    2    3    3    0    0 -0.54375849449E+02  0.12039939275E+02  0.24870831059E+01  0.94657529647E+02  0.76499471864E+02 0.  0.
         -6    2    1    2    0  502  0.95528359138E+02 -0.10695182051E+03  0.65014636056E+03  0.68735854926E+03  0.17090092386E+03 0.  0.
        -24    2    5    5    0    0  0.13000136788E+03 -0.82619263005E+02  0.58017203141E+03  0.60551138421E+03  0.79486804618E+02 0.  0.
          5    1    3    3  501    0 -0.41152509689E+02  0.94911881238E+02  0.12366268526E+03  0.16129582753E+03  0.47000000000E+01 0. -1.
        -13    1    4    4    0    0 -0.63395608926E+02 -0.15793002625E+02  0.54949245895E+00  0.65335473557E+02  0.00000000000E+00 0.  1.
         14    1    4    4    0    0  0.90197594771E+01  0.27832941900E+02  0.19375906470E+01  0.29322056090E+02  0.00000000000E+00 0. -1.
         -5    1    5    5    0  502 -0.34473008738E+02 -0.24332557508E+02  0.69974329147E+02  0.81847165044E+02  0.47000000000E+01 0.  1.
         11    1    6    6    0    0  0.12383365437E+03 -0.60459617060E+02  0.38366732960E+03  0.40766500837E+03  0.00000000000E+00 0. -1.
        -12    1    6    6    0    0  0.61677135068E+01 -0.22159645944E+02  0.19650470181E+03  0.19784637584E+03  0.00000000000E+00 0.  1.
</event>
<event>
12    1  0.1032880E+000  0.2492777E+03  0.7818608E-02  0.1113821E+00
         21   -1    0    0  503  502  0.00000000000E+00  0.00000000000E+00  0.76974733418E+03  0.76974733418E+03  0.00000000000E+00 0.  1.
         21   -1    0    0  501  503 -0.00000000000E+00 -0.00000000000E+00 -0.10811145073E+03  0.10811145073E+03  0.00000000000E+00 0.  1.
          6    2    1    2  501    0 -0.17036736252E+03 -0.56654170989E+02  0.55238802620E+03  0.60602961564E+03  0.17292955281E+03 0.  0.
         24    2    3    3    0    0 -0.60162517167E+02 -0.27656520775E+02  0.95343019621E+02  0.13496889800E+03  0.68861458194E+02 0.  0.
         -6    2    1    2    0  502  0.17036736252E+03  0.56654170989E+02  0.10924785725E+03  0.27182916928E+03  0.17239857788E+03 0.  0.
        -24    2    5    5    0    0  0.93427621277E+02  0.56730641741E+02 -0.50114094618E+01  0.13399956556E+03  0.77354270835E+02 0.  0.
          5    1    3    3  501    0 -0.11020484536E+03 -0.28997650214E+02  0.45704500658E+03  0.47106071763E+03  0.47000000000E+01 0. -1.
        -11    1    4    4    0    0 -0.31355525200E+02 -0.44313326908E+02  0.30954622669E+02  0.62490227771E+02  0.00000000000E+00 0.  1.
         12    1    4    4    0    0 -0.28806991967E+02  0.16656806133E+02  0.64388396951E+02  0.72478670233E+02  0.00000000000E+00 0. -1.
         -5    1    5    5    0  502  0.76939741246E+02 -0.76470751629E-01  0.11425926671E+03  0.13782960372E+03  0.47000000000E+01 0.  1.
         11    1    6    6    0    0  0.10065809063E+03  0.35543167898E+02  0.97349099229E+01  0.10719205411E+03  0.00000000000E+00 0. -1.
        -12    1    6    6    0    0 -0.72304693515E+01  0.21187473843E+02 -0.14746319385E+02  0.26807511453E+02  0.00000000000E+00 0.  1.
</event>
<event>
12    1  0.1032880E+000  0.2308699E+03  0.7818608E-02  0.1126241E+00
         21   -1    0    0  501  502  0.00000000000E+00  0.00000000000E+00  0.59716338740E+03  0.59716338740E+03  0.00000000000E+00 0. -1.
         21   -1    0    0  502  503 -0.00000000000E+00 -0.00000000000E+00 -0.12821491325E+03  0.12821491325E+03  0.00000000000E+00 0. -1.
         -6    2    1    2    0  503  0.14015966485E+03 -0.61907216788E+02  0.43516566500E+03  0.49204984123E+03  0.17107499851E+03 0.  0.
        -24    2    3    3    0    0  0.16685309955E+03 -0.71283855103E+02  0.39269868672E+03  0.44080537766E+03  0.84709961583E+02 0.  0.
          6    2    1    2  501    0 -0.14015966485E+03  0.61907216788E+02  0.33782809147E+02  0.23332845942E+03  0.17269527105E+03 0.  0.
         24    2    5    5    0    0 -0.39222676316E+02  0.62315743519E+02 -0.28757594633E+02  0.11449313364E+03  0.82825166312E+02 0.  0.
          5    1    5    5  501    0 -0.10093698853E+03 -0.40852673131E+00  0.62540403780E+02  0.11883532578E+03  0.47000000000E+01 0. -1.
        -13    1    6    6    0    0 -0.35250857399E+02  0.73554067720E+02  0.19135549908E+01  0.81587287724E+02  0.00000000000E+00 0.  1.
         14    1    6    6    0    0 -0.39718189170E+01 -0.11238324201E+02 -0.30671149624E+02  0.32905845919E+02  0.00000000000E+00 0. -1.
         -5    1    3    3    0  503 -0.26693434700E+02  0.93766383152E+01  0.42466978277E+02  0.51244463566E+02  0.47000000000E+01 0.  1.
         11    1    4    4    0    0 -0.23629291655E+01  0.11285273410E+02  0.30154004778E+02  0.32283197399E+02  0.00000000000E+00 0. -1.
        -12    1    4    4    0    0  0.16921602872E+03 -0.82569128513E+02  0.36254468195E+03  0.40852218026E+03  0.00000000000E+00 0.  1.
</event>
<event>
12    1  0.1032880E+000  0.2077375E+03  0.7818608E-02  0.1143821E+00
         21   -1    0    0  503  502  0.00000000000E+00  0.00000000000E+00  0.21491789953E+03  0.21491789953E+03  0.00000000000E+00 0.  1.
         21   -1    0    0  501  503 -0.00000000000E+00 -0.00000000000E+00 -0.22644029938E+03  0.22644029938E+03  0.00000000000E+00 0.  1.
          6    2    1    2  501    0  0.16289394305E+02 -0.11189570746E+03  0.71578908444E+02  0.21761570794E+03  0.17160146414E+03 0.  0.
         24    2    3    3    0    0 -0.23079316793E+02 -0.49306665900E+02  0.10742169232E+03  0.13531091651E+03  0.61691344456E+02 0.  0.
         -6    2    1    2    0  502 -0.16289394305E+02  0.11189570746E+03 -0.83101308289E+02  0.22374249097E+03  0.17426669535E+03 0.  0.
        -24    2    5    5    0    0  0.12076839664E+02  0.40905641208E+02 -0.11048561278E+03  0.14240232334E+03  0.79071040988E+02 0.  0.
          5    1    3    3  501    0  0.39368711098E+02 -0.62589041564E+02 -0.35842783872E+02  0.82304791435E+02  0.47000000000E+01 0. -1.
        -11    1    4    4    0    0 -0.37427464526E+02 -0.36121310863E+02  0.41417782307E+02  0.66490577457E+02  0.00000000000E+00 0.  1.
         12    1    4    4    0    0  0.14348147733E+02 -0.13185355037E+02  0.66003910009E+02  0.68820339052E+02  0.00000000000E+00 0. -1.
         -5    1    5    5    0  502 -0.28366233969E+02  0.70990066256E+02  0.27384304493E+02  0.81340167624E+02  0.47000000000E+01 0.  1.
         11    1    6    6    0    0  0.46915420160E+01 -0.13036934258E+02  0.49967168184E+01  0.14728862831E+02  0.00000000000E+00 0. -1.
        -12    1    6    6    0    0  0.73852976478E+01  0.53942575466E+02 -0.11548232960E+03  0.12767346051E+03  0.00000000000E+00 0.  1.
</event>
<event>
12    1  0.1032880E+000  0.1745132E+03  0.7818608E-02  0.1173481E+00
         21   -1    0    0  501  502  0.00000000000E+00  0.00000000000E+00  0.35629482987E+02  0.35629482987E+02  0.00000000000E+00 0. -1.
         21   -1    0    0  502  503 -0.00000000000E+00 -0.00000000000E+00 -0.14845553616E+04  0.14845553616E+04  0.00000000000E+00 0. -1.
         -6    2    1    2    0  503 -0.57514440736E+01  0.25273213792E+02 -0.22864883722E+03  0.28763719393E+03  0.17257766405E+03 0.  0.
        -24    2    3    3    0    0  0.51230276674E+01  0.61340670890E+02 -0.22992870353E+03  0.24965241205E+03  0.75300696000E+02 0.  0.
          6    2    1    2  501    0  0.57514440736E+01 -0.25273213792E+02 -0.12202770414E+04  0.12325476507E+04  0.17153961332E+03 0.  0.
         24    2    5    5    0    0 -0.37044679779E+02 -0.30206691064E+02 -0.11128882227E+04  0.11167448191E+04  0.79460948157E+02 0.  0.
          5    1    5    5  501    0  0.42796123853E+02  0.49334772718E+01 -0.10738881867E+03  0.11580283153E+03  0.47000000000E+01 0. -1.
        -11    1    6    6    0    0 -0.53347547299E+02  0.53483932965E+01 -0.64242367250E+03  0.64465707248E+03  0.00000000000E+00 0.  1.
         12    1    6    6    0    0  0.16302867520E+02 -0.35555084360E+02 -0.47046455024E+03  0.47208774666E+03  0.00000000000E+00 0. -1.
         -5    1    3    3    0  503 -0.10874471741E+02 -0.36067457098E+02  0.12798663053E+01  0.37984781886E+02  0.47000000000E+01 0.  1.
         13    1    4    4    0    0 -0.31860767488E+02  0.13267396199E+02 -0.59927342642E+02  0.69155033822E+02  0.00000000000E+00 0. -1.
        -14    1    4    4    0    0  0.36983795155E+02  0.48073274691E+02 -0.17000136089E+03  0.18049737823E+03  0.00000000000E+00 0.  1.
</event>
<event>
12    1  0.1032880E+000  0.1768574E+03  0.7818608E-02  0.1171677E+00
         21   -1    0    0  503  502  0.00000000000E+00  0.00000000000E+00  0.12638318151E+03  0.12638318151E+03  0.00000000000E+00 0. -1.
         21   -1    0    0  501  503 -0.00000000000E+00 -0.00000000000E+00 -0.25381006853E+03  0.25381006853E+03  0.00000000000E+00 0. -1.
          6    2    1    2  501    0  0.26048101922E+02  0.83089696180E+01 -0.10341104642E+03  0.20487160240E+03  0.17473118313E+03 0.  0.
         24    2    3    3    0    0  0.51225934336E+02  0.61364505708E+02 -0.88096237008E+02  0.14399922326E+03  0.81148816472E+02 0.  0.
         -6    2    1    2    0  502 -0.26048101922E+02 -0.83089696180E+01 -0.24015840598E+02  0.17532164764E+03  0.17150328552E+03 0.  0.
        -24    2    5    5    0    0 -0.60167525992E+02  0.26498141982E+02 -0.54700537866E+02  0.11753487785E+03  0.80622676436E+02 0.  0.
          5    1    3    3  501    0 -0.25177832414E+02 -0.53055536090E+02 -0.15314809416E+02  0.60872379142E+02  0.47000000000E+01 0. -1.
        -13    1    4    4    0    0  0.10642468204E+02  0.44900348697E+02 -0.59344771850E+00  0.46148191977E+02  0.00000000000E+00 0.  1.
         14    1    4    4    0    0  0.40583466131E+02  0.16464157011E+02 -0.87502789290E+02  0.97851031282E+02  0.00000000000E+00 0. -1.
         -5    1    5    5    0  502  0.34119424071E+02 -0.34807111600E+02  0.30684697268E+02  0.57786769794E+02  0.47000000000E+01 0.  1.
         11    1    6    6    0    0 -0.29430075232E+02  0.53897221063E+02 -0.42170280156E+02  0.74494109129E+02  0.00000000000E+00 0. -1.
        -12    1    6    6    0    0 -0.30737450760E+02 -0.27399079081E+02 -0.12530257710E+02  0.43040768720E+02  0.00000000000E+00 0.  1.
</event>
<event>
12    1  0.1032880E+000  0.2007218E+03  0.7818608E-02  0.1150010E+00
         21   -1    0    0  501  502  0.00000000000E+00  0.00000000000E+00  0.16100281698E+03  0.16100281698E+03  0.00000000000E+00 0.  1.
         21   -1    0    0  502  503 -0.00000000000E+00 -0.00000000000E+00 -0.25725509328E+03  0.25725509328E+03  0.00000000000E+00 0.  1.
         -6    2    1    2    0  503 -0.36146708817E+02 -0.90315586860E+02 -0.93096692188E+02  0.21751130268E+03  0.17082354319E+03 0.  0.
        -24    2    3    3    0    0  0.26790518978E+02 -0.82365455120E+02 -0.97186887952E+02  0.15376870359E+03  0.81839616997E+02 0.  0.
          6    2    1    2  501    0  0.36146708817E+02  0.90315586860E+02 -0.31555841055E+01  0.20074660758E+03  0.17557264296E+03 0.  0.
         24    2    5    5    0    0  0.67933403361E+02  0.10449427169E+01  0.27192203114E+01  0.10568744083E+03  0.80909837430E+02 0.  0.
          5    1    5    5  501    0 -0.31786694545E+02  0.89270644143E+02 -0.58748044169E+01  0.95059166748E+02  0.47000000000E+01 0. -1.
        -11    1    6    6    0    0  0.37816016276E+02 -0.38063633687E+02 -0.10306968251E+02  0.54636296461E+02  0.00000000000E+00 0.  1.
         12    1    6    6    0    0  0.30117387085E+02  0.39108576404E+02  0.13026188562E+02  0.51051144371E+02  0.00000000000E+00 0. -1.
         -5    1    3    3    0  503 -0.62937227795E+02 -0.79501317403E+01  0.40901957641E+01  0.63742599089E+02  0.47000000000E+01 0.  1.
         11    1    4    4    0    0  0.52395837295E+02 -0.40805012567E+02 -0.36149061248E+02  0.75611688551E+02  0.00000000000E+00 0. -1.
        -12    1    4    4    0    0 -0.25605318317E+02 -0.41560442553E+02 -0.61037826704E+02  0.78157015041E+02  0.00000000000E+00 0.  1.
</event>
<event>
12    1  0.1032880E+000  0.1872924E+03  0.7818608E-02  0.1161000E+00
         21   -1    0    0  503  502  0.00000000000E+00  0.00000000000E+00  0.13330921603E+03  0.13330921603E+03  0.00000000000E+00 0. -1.
         21   -1    0    0  501  503 -0.00000000000E+00 -0.00000000000E+00 -0.26668211469E+03  0.26668211469E+03  0.00000000000E+00 0. -1.
          6    2    1    2  501    0  0.57265378566E+02 -0.45194990218E+02 -0.42156847414E+02  0.19166749788E+03  0.17215492801E+03 0.  0.
         24    2    3    3    0    0 -0.26521288055E+02  0.97369075237E+01 -0.50175163685E+01  0.84713588168E+02  0.79705899792E+02 0.  0.
         -6    2    1    2    0  502 -0.57265378566E+02  0.45194990218E+02 -0.91216051254E+02  0.20832383284E+03  0.17250084231E+03 0.  0.
        -24    2    5    5    0    0 -0.92082912967E+02 -0.24035709235E+01 -0.85516739917E+02  0.14888936578E+03  0.79811593284E+02 0.  0.
          5    1    3    3  501    0  0.83786666621E+02 -0.54931897742E+02 -0.37139331046E+02  0.10695390972E+03  0.47000000000E+01 0. -1.
        -13    1    4    4    0    0 -0.48736852086E+02  0.25541672687E+02 -0.12531623840E+02  0.56433140892E+02  0.00000000000E+00 0.  1.
         14    1    4    4    0    0  0.22215564031E+02 -0.15804765163E+02  0.75141074716E+01  0.28280447276E+02  0.00000000000E+00 0. -1.
         -5    1    5    5    0  502  0.34817534400E+02  0.47598561142E+02 -0.56993113364E+01  0.59434467056E+02  0.47000000000E+01 0.  1.
         11    1    6    6    0    0 -0.61916004692E+02 -0.89642455394E+01 -0.51220448183E+01  0.62770890373E+02  0.00000000000E+00 0. -1.
        -12    1    6    6    0    0 -0.30166908275E+02  0.65606746159E+01 -0.80394695099E+02  0.86118475406E+02  0.00000000000E+00 0.  1.
</event>
<event>
12    1  0.1032880E+000  0.2058303E+03  0.7818608E-02  0.1145011E+00
         21   -1    0    0  503  502  0.00000000000E+00  0.00000000000E+00  0.95073429869E+03  0.95073429869E+03  0.00000000000E+00 0. -1.
         21   -1    0    0  501  503 -0.00000000000E+00 -0.00000000000E+00 -0.49302192981E+02  0.49302192981E+02  0.00000000000E+00 0. -1.
          6    2    1    2  501    0 -0.36659459811E+02 -0.10571208878E+03  0.60701221905E+03  0.64080231019E+03  0.17217666787E+03 0.  0.
         24    2    3    3    0    0 -0.84867800115E+02 -0.44592768004E+02  0.32485307607E+03  0.34806439427E+03  0.80176324897E+02 0.  0.
         -6    2    1    2    0  502  0.36659459811E+02  0.10571208878E+03  0.29441988666E+03  0.35923418149E+03  0.17276332302E+03 0.  0.
        -24    2    5    5    0    0 -0.69792144813E+00  0.66055440820E+02  0.28525151229E+03  0.30378715497E+03  0.80959260755E+02 0.  0.
          5    1    3    3  501    0  0.48208340304E+02 -0.61119320772E+02  0.28215914298E+03  0.29273791592E+03  0.47000000000E+01 0. -1.
        -11    1    4    4    0    0 -0.46897161809E+02 -0.16605330343E+02  0.27487620619E+03  0.27934210122E+03  0.00000000000E+00 0.  1.
         12    1    4    4    0    0 -0.37970638306E+02 -0.27987437661E+02  0.49976869878E+02  0.68722293057E+02  0.00000000000E+00 0. -1.
         -5    1    5    5    0  502  0.37357381259E+02  0.39656647955E+02  0.91683743742E+01  0.55447026523E+02  0.47000000000E+01 0.  1.
         11    1    6    6    0    0 -0.11788919672E+02 -0.41283684041E+01  0.31599603321E+01  0.12884385978E+02  0.00000000000E+00 0. -1.
        -12    1    6    6    0    0  0.11090998224E+02  0.70183809224E+02  0.28209155196E+03  0.29090276899E+03  0.00000000000E+00 0.  1.
</event>
<event>
12    1  0.1032880E+000  0.2538801E+03  0.7818608E-02  0.1111435E+00
         21   -1    0    0  503  502  0.00000000000E+00  0.00000000000E+00  0.28577907812E+03  0.28577907812E+03  0.00000000000E+00 0. -1.
         21   -1    0    0  501  503 -0.00000000000E+00 -0.00000000000E+00 -0.27496036802E+03  0.27496036802E+03  0.00000000000E+00 0. -1.
          6    2    1    2  501    0 -0.18135451485E+03 -0.99449582506E+01  0.12804513167E+03  0.28434250495E+03  0.17738867530E+03 0.  0.
         24    2    3    3    0    0 -0.82802915493E+02 -0.68738645838E+01  0.14132685412E+03  0.18474158375E+03  0.85162199625E+02 0.  0.
         -6    2    1    2    0  502  0.18135451485E+03  0.99449582506E+01 -0.11722642158E+03  0.27639694119E+03  0.17223493527E+03 0.  0.
        -24    2    5    5    0    0  0.95976534229E+02  0.67575988746E+02 -0.96396948875E+02  0.17119859431E+03  0.78984666641E+02 0.  0.
          5    1    3    3  501    0 -0.98551599361E+02 -0.30710936668E+01 -0.13281722442E+02  0.99600921201E+02  0.47000000000E+01 0. -1.
        -13    1    4    4    0    0 -0.26305178145E+02 -0.42201164938E+02  0.41768966462E+02  0.64942646071E+02  0.00000000000E+00 0.  1.
         14    1    4    4    0    0 -0.56497737348E+02  0.35327300354E+02  0.99557887653E+02  0.11979893768E+03  0.00000000000E+00 0. -1.
         -5    1    5    5    0  502  0.85377980625E+02 -0.57631030496E+02 -0.20829472707E+02  0.10519834687E+03  0.47000000000E+01 0.  1.
         13    1    6    6    0    0  0.46862056916E+01  0.38774313166E+02 -0.59603383738E+01  0.39508651189E+02  0.00000000000E+00 0. -1.
        -14    1    6    6    0    0  0.91290328538E+02  0.28801675581E+02 -0.90436610502E+02  0.13168994312E+03  0.00000000000E+00 0.  1.
</event>
<event>
12    1  0.1032880E+000  0.4080741E+03  0.7818608E-02  0.1041043E+00
         21   -1    0    0  503  502  0.00000000000E+00  0.00000000000E+00  0.64817035477E+02  0.64817035477E+02  0.00000000000E+00 0.  1.
         21   -1    0    0  501  503 -0.00000000000E+00 -0.00000000000E+00 -0.25923611544E+04  0.25923611544E+04  0.00000000000E+00 0.  1.
          6    2    1    2  501    0 -0.32061158637E+03 -0.18441585320E+03 -0.11338473464E+04  0.12050453273E+04  0.17240487140E+03 0.  0.
         24    2    3    3    0    0 -0.16651878183E+03 -0.21670400737E+02 -0.51976483854E+03  0.55132513397E+03  0.74871923939E+02 0.  0.
         -6    2    1    2    0  502  0.32061158637E+03  0.18441585320E+03 -0.13936967725E+04  0.14521328626E+04  0.17175028562E+03 0.  0.
        -24    2    5    5    0    0  0.25290323612E+03  0.16957980597E+03 -0.12860768406E+04  0.13240365365E+04  0.79760596853E+02 0.  0.
          5    1    3    3  501    0 -0.15409280455E+03 -0.16274545246E+03 -0.61408250787E+03  0.65372019334E+03  0.47000000000E+01 0. -1.
        -11    1    4    4    0    0 -0.13291463528E+03 -0.27982636002E+02 -0.48016412182E+03  0.49900592388E+03  0.00000000000E+00 0.  1.
         12    1    4    4    0    0 -0.33604146544E+02  0.63122352641E+01 -0.39600716719E+02  0.52319210083E+02  0.00000000000E+00 0. -1.
         -5    1    5    5    0  502  0.67708350252E+02  0.14836047225E+02 -0.10761993197E+03  0.12809632605E+03  0.47000000000E+01 0.  1.
         13    1    6    6    0    0  0.92999190369E+02  0.27318300650E+02 -0.31136233609E+03  0.32610066435E+03  0.00000000000E+00 0. -1.
        -14    1    6    6    0    0  0.15990404575E+03  0.14226150532E+03 -0.97471450447E+03  0.99793587217E+03  0.00000000000E+00 0.  1.
</event>
<event>
12    1  0.1032880E+000  0.1860282E+03  0.7818608E-02  0.1162174E+00
         21   -1    0    0  501  502  0.00000000000E+00  0.00000000000E+00  0.12785978770E+02  0.12785978770E+02  0.00000000000E+00 0. -1.
         21   -1    0    0  502  503 -0.00000000000E+00 -0.00000000000E+00 -0.27451913604E+04  0.27451913604E+04  0.00000000000E+00 0. -1.
         -6    2    1    2    0  503 -0.34000175850E+02  0.61241580044E+02 -0.11910019732E+04  0.12053888727E+04  0.17195956256E+03 0.  0.
        -24    2    3    3    0    0 -0.53006087715E+02 -0.10636585690E+01 -0.97521764464E+03  0.97993791594E+03  0.80112970168E+02 0.  0.
          6    2    1    2  501    0  0.34000175850E+02 -0.61241580044E+02 -0.15414034084E+04  0.15525884664E+04  0.17233669267E+03 0.  0.
         24    2    5    5    0    0 -0.17193601663E+01  0.28385868056E+02 -0.90078026563E+03  0.90472346063E+03  0.79440163464E+02 0.  0.
          5    1    5    5  501    0  0.35719536017E+02 -0.89627448100E+02 -0.64062314276E+03  0.64786500581E+03  0.47000000000E+01 0. -1.
        -11    1    6    6    0    0  0.78139520175E+01  0.21353221027E+02 -0.65054888852E+02  0.68914123791E+02  0.00000000000E+00 0.  1.
         12    1    6    6    0    0 -0.95333121838E+01  0.70326470290E+01 -0.83572537678E+03  0.83580933684E+03  0.00000000000E+00 0. -1.
         -5    1    3    3    0  503  0.19005911865E+02  0.62305238613E+02 -0.21578432856E+03  0.22545095674E+03  0.47000000000E+01 0.  1.
         13    1    4    4    0    0 -0.20597599876E+02  0.17951163750E+01 -0.85909483178E+03  0.85934359458E+03  0.00000000000E+00 0. -1.
        -14    1    4    4    0    0 -0.32408487839E+02 -0.28587749440E+01 -0.11612281286E+03  0.12059432136E+03  0.00000000000E+00 0.  1.
</event>
<event>
12    1  0.1032880E+000  0.3390400E+03  0.7818608E-02  0.1067277E+00
         21   -1    0    0  503  502  0.00000000000E+00  0.00000000000E+00  0.17548874919E+03  0.17548874919E+03  0.00000000000E+00 0.  1.
         21   -1    0    0  501  503 -0.00000000000E+00 -0.00000000000E+00 -0.75109446196E+03  0.75109446196E+03  0.00000000000E+00 0.  1.
          6    2    1    2  501    0  0.23069827048E+03  0.17893645955E+03 -0.45485116375E+03  0.56730739509E+03  0.17236052564E+03 0.  0.
         24    2    3    3    0    0  0.22497265277E+03  0.14769234471E+03 -0.30792751260E+03  0.41691581727E+03  0.81078495888E+02 0.  0.
         -6    2    1    2    0  502 -0.23069827048E+03 -0.17893645955E+03 -0.12075454902E+03  0.35927581606E+03  0.17104824564E+03 0.  0.
        -24    2    5    5    0    0 -0.99117888322E+02 -0.11466171913E+03 -0.32318944749E+01  0.17145062191E+03  0.80082488677E+02 0.  0.
          5    1    3    3  501    0  0.57256177053E+01  0.31244114840E+02 -0.14692365115E+03  0.15039157781E+03  0.47000000000E+01 0. -1.
        -13    1    4    4    0    0  0.47993126882E+02  0.51127093810E+02 -0.37242034291E+02  0.79399553321E+02  0.00000000000E+00 0.  1.
         14    1    4    4    0    0  0.17697952589E+03  0.96565250903E+02 -0.27068547831E+03  0.33751626395E+03  0.00000000000E+00 0. -1.
         -5    1    5    5    0  502 -0.13158038216E+03 -0.64274740424E+02 -0.11752265454E+03  0.18782519415E+03  0.47000000000E+01 0.  1.
         13    1    6    6    0    0 -0.10461575382E+03 -0.10465714165E+03 -0.21878686417E+02  0.14958693180E+03  0.00000000000E+00 0. -1.
        -14    1    6    6    0    0  0.54978654991E+01 -0.10004577483E+02  0.18646791942E+02  0.21863690114E+02  0.00000000000E+00 0.  1.
</event>
<event>
12    1  0.1032880E+000  0.1933485E+03  0.7818608E-02  0.1155617E+00
         21   -1    0    0  503  502  0.00000000000E+00  0.00000000000E+00  0.13025611491E+03  0.13025611491E+03  0.00000000000E+00 0.  1.
         21   -1    0    0  501  503 -0.00000000000E+00 -0.00000000000E+00 -0.74409219533E+03  0.74409219533E+03  0.00000000000E+00 0.  1.
          6    2    1    2  501    0  0.73473221018E+02 -0.50623966243E+02  0.36275799404E+02  0.19609387411E+03  0.17080917328E+03 0.  0.
         24    2    3    3    0    0  0.20059775571E+02 -0.52307125612E+01  0.80945566796E+02  0.11284111588E+03  0.75836519556E+02 0.  0.
         -6    2    1    2    0  502 -0.73473221018E+02  0.50623966243E+02 -0.65011187982E+03  0.67825443613E+03  0.17152994984E+03 0.  0.
        -24    2    5    5    0    0  0.10305064572E+02  0.43375483892E+02 -0.18958415168E+03  0.21008863215E+03  0.78787409107E+02 0.  0.
          5    1    3    3  501    0  0.53413445448E+02 -0.45393253682E+02 -0.44669767392E+02  0.83252758232E+02  0.47000000000E+01 0. -1.
        -11    1    4    4    0    0  0.11958110246E+02  0.29615321124E+02  0.10137843503E+02  0.33508797603E+02  0.00000000000E+00 0.  1.
         12    1    4    4    0    0  0.81016653241E+01 -0.34846033685E+02  0.70807723293E+02  0.79332318272E+02  0.00000000000E+00 0. -1.
         -5    1    5    5    0  502 -0.83778285590E+02  0.72484823509E+01 -0.46052772814E+03  0.46816580398E+03  0.47000000000E+01 0.  1.
         13    1    6    6    0    0 -0.47677438286E+00 -0.20564486611E+02 -0.20692335854E+02  0.29177014694E+02  0.00000000000E+00 0. -1.
        -14    1    6    6    0    0  0.10781838955E+02  0.63939970503E+02 -0.16889181583E+03  0.18091161746E+03  0.00000000000E+00 0.  1.
</event>
<event>
12    1  0.1032880E+000  0.5811968E+03  0.7818608E-02  0.9945215E-01
         21   -1    0    0  501  502  0.00000000000E+00  0.00000000000E+00  0.25193865903E+03  0.25193865903E+03  0.00000000000E+00 0.  1.
         21   -1    0    0  502  503 -0.00000000000E+00 -0.00000000000E+00 -0.13421343846E+04  0.13421343846E+04  0.00000000000E+00 0.  1.
         -6    2    1    2    0  503  0.22565478055E+03 -0.50702138888E+03 -0.51912842178E+03  0.77926780117E+03  0.17254917811E+03 0.  0.
        -24    2    3    3    0    0  0.56552203064E+02 -0.27873436355E+03 -0.23338431721E+03  0.37630076660E+03  0.79012849165E+02 0.  0.
          6    2    1    2  501    0 -0.22565478055E+03  0.50702138888E+03 -0.57106730379E+03  0.81480524245E+03  0.17262372058E+03 0.  0.
         24    2    5    5    0    0 -0.15911330968E+03  0.44042789669E+03 -0.40704069453E+03  0.62562469617E+03  0.80189500273E+02 0.  0.
          5    1    5    5  501    0 -0.66541470871E+02  0.66593492187E+02 -0.16402660925E+03  0.18918054628E+03  0.47000000000E+01 0. -1.
        -13    1    6    6    0    0 -0.10404557663E+03  0.18317350739E+03 -0.15761149439E+03  0.26309579812E+03  0.00000000000E+00 0.  1.
         14    1    6    6    0    0 -0.55067733052E+02  0.25725438930E+03 -0.24942920014E+03  0.36252889805E+03  0.00000000000E+00 0. -1.
         -5    1    3    3    0  503  0.16910257749E+03 -0.22828702533E+03 -0.28574410458E+03  0.40296703457E+03  0.47000000000E+01 0.  1.
         11    1    4    4    0    0  0.74803343968E+02 -0.18401042648E+03 -0.16129909992E+03  0.25587648770E+03  0.00000000000E+00 0. -1.
        -12    1    4    4    0    0 -0.18251140904E+02 -0.94723937069E+02 -0.72085217288E+02  0.12042427890E+03  0.00000000000E+00 0.  1.
</event>
<event>
12    1  0.1032880E+000  0.1841603E+03  0.7818608E-02  0.1164610E+00
         21   -1    0    0  501  502  0.00000000000E+00  0.00000000000E+00  0.18569216658E+03  0.18569216658E+03  0.00000000000E+00 0.  1.
         21   -1    0    0  502  503 -0.00000000000E+00 -0.00000000000E+00 -0.18174019061E+03  0.18174019061E+03  0.00000000000E+00 0.  1.
         -6    2    1    2    0  503 -0.50180402822E+02  0.11208494544E+02  0.22753340180E+02  0.18556062204E+03  0.17683700627E+03 0.  0.
        -24    2    3    3    0    0 -0.99364724167E+02  0.11150690742E+02  0.36973612248E+02  0.13414654863E+03  0.81428264095E+02 0.  0.
          6    2    1    2  501    0  0.50180402822E+02 -0.11208494544E+02 -0.18801364205E+02  0.18187173515E+03  0.17343625219E+03 0.  0.
         24    2    5    5    0    0  0.69659507712E+02 -0.52170730942E+02  0.22178790512E+02  0.12056265411E+03  0.80431477884E+02 0.  0.
          5    1    5    5  501    0 -0.19479104891E+02  0.40962236398E+02 -0.40980154717E+02  0.61309081046E+02  0.47000000000E+01 0. -1.
        -13    1    6    6    0    0  0.28841233063E+02  0.49211383540E-01  0.42388484231E+02  0.51269900934E+02  0.00000000000E+00 0.  1.
         14    1    6    6    0    0  0.40818274649E+02 -0.52219942326E+02 -0.20209693719E+02  0.69292753171E+02  0.00000000000E+00 0. -1.
         -5    1    3    3    0  503  0.49184321345E+02  0.57803802127E-01 -0.14220272068E+02  0.51414073415E+02  0.47000000000E+01 0.  1.
         13    1    4    4    0    0 -0.33657125297E+02  0.15540348418E+02  0.54580121231E+02  0.65979497920E+02  0.00000000000E+00 0. -1.
        -14    1    4    4    0    0 -0.65707598869E+02 -0.43896576762E+01 -0.17606508983E+02  0.68167050708E+02  0.00000000000E+00 0.  1.
</event>
<event>
12    1  0.1032880E+000  0.2551504E+03  0.7818608E-02  0.1110237E+00
         21   -1    0    0  501  502  0.00000000000E+00  0.00000000000E+00  0.16600330991E+03  0.16600330991E+03  0.00000000000E+00 0.  1.
         21   -1    0    0  502  503 -0.00000000000E+00 -0.00000000000E+00 -0.41226423784E+03  0.41226423784E+03  0.00000000000E+00 0.  1.
         -6    2    1    2    0  503  0.10041723273E+03 -0.15828677358E+03 -0.56843644146E+02  0.26049304962E+03  0.17171809952E+03 0.  0.
        -24    2    3    3    0    0  0.38540028617E+02 -0.44883834859E+02 -0.69324885774E+02  0.13062047249E+03  0.93572835843E+02 0.  0.
          6    2    1    2  501    0 -0.10041723273E+03  0.15828677358E+03 -0.18941728379E+03  0.31777449813E+03  0.17309939614E+03 0.  0.
         24    2    5    5    0    0 -0.15637435987E+02  0.63149450705E+02 -0.15510524166E+03  0.18572098483E+03  0.78754464556E+02 0.  0.
          5    1    5    5  501    0 -0.84779796738E+02  0.95137322872E+02 -0.34312042125E+02  0.13205351329E+03  0.47000000000E+01 0. -1.
        -11    1    6    6    0    0 -0.84907104871E+01  0.20392075771E+02 -0.13695377652E+03  0.13872370317E+03  0.00000000000E+00 0.  1.
         12    1    6    6    0    0 -0.71467255001E+01  0.42757374934E+02 -0.18151465142E+02  0.46997281660E+02  0.00000000000E+00 0. -1.
         -5    1    3    3    0  503  0.61877204109E+02 -0.11340293872E+03  0.12481241628E+02  0.12987257713E+03  0.47000000000E+01 0.  1.
         11    1    4    4    0    0  0.43792275027E+02 -0.30894085192E+02 -0.90216691539E+02  0.10493454762E+03  0.00000000000E+00 0. -1.
        -12    1    4    4    0    0 -0.52522464105E+01 -0.13989749667E+02  0.20891805766E+02  0.25685924866E+02  0.00000000000E+00 0.  1.
</event>
<event>
12    1  0.1032880E+000  0.2946654E+03  0.7818608E-02  0.1088159E+00
         21   -1    0    0  501  502  0.00000000000E+00  0.00000000000E+00  0.10492819233E+04  0.10492819233E+04  0.00000000000E+00 0.  1.
         21   -1    0    0  502  503 -0.00000000000E+00 -0.00000000000E+00 -0.13130953193E+03  0.13130953193E+03  0.00000000000E+00 0.  1.
         -6    2    1    2    0  503 -0.51332281384E+01 -0.23863819593E+03  0.82058266283E+03  0.87188508819E+03  0.17278067568E+03 0.  0.
        -24    2    3    3    0    0 -0.17891855509E+02 -0.25269539972E+03  0.80210214703E+03  0.84497770974E+03  0.80276971538E+02 0.  0.
          6    2    1    2  501    0  0.51332281384E+01  0.23863819593E+03  0.97389728551E+02  0.30870636704E+03  0.16982438940E+03 0.  0.
         24    2    5    5    0    0 -0.44536507410E+02  0.10995011305E+03  0.60814705035E+01  0.14321620633E+03  0.80008559665E+02 0.  0.
          5    1    5    5  501    0  0.49669735548E+02  0.12868808289E+03  0.91308258047E+02  0.16549016072E+03  0.47000000000E+01 0. -1.
        -11    1    6    6    0    0  0.10742861960E+02  0.36838518139E+02 -0.25723569050E+02  0.46197267305E+02  0.00000000000E+00 0.  1.
         12    1    6    6    0    0 -0.55279369370E+02  0.73111594909E+02  0.31805039553E+02  0.97018939022E+02  0.00000000000E+00 0. -1.
         -5    1    3    3    0  503  0.12758627371E+02  0.14057203791E+02  0.18480515799E+02  0.26907378449E+02  0.47000000000E+01 0.  1.
         13    1    4    4    0    0  0.44977688722E+01 -0.13347377093E+03  0.29920361532E+03  0.32765573530E+03  0.00000000000E+00 0. -1.
        -14    1    4    4    0    0 -0.22389624381E+02 -0.11922162879E+03  0.50289853170E+03  0.51732197444E+03  0.00000000000E+00 0.  1.
</event>
<event>
12    1  0.1032880E+000  0.1914490E+03  0.7818608E-02  0.1157450E+00
         21   -1    0    0  503  502  0.00000000000E+00  0.00000000000E+00  0.16059836969E+03  0.16059836969E+03  0.00000000000E+00 0.  1.
         21   -1    0    0  501  503 -0.00000000000E+00 -0.00000000000E+00 -0.23376510943E+03  0.23376510943E+03  0.00000000000E+00 0.  1.
          6    2    1    2  501    0  0.21684800985E+01 -0.83615982300E+02 -0.71008055557E+02  0.20419316538E+03  0.17221024950E+03 0.  0.
         24    2    3    3    0    0 -0.58796232833E+02 -0.40570645973E+02 -0.72785810756E+02  0.12939445138E+03  0.79637776782E+02 0.  0.
         -6    2    1    2    0  502 -0.21684800985E+01  0.83615982300E+02 -0.21586841865E+01  0.19017031374E+03  0.17077398370E+03 0.  0.
        -24    2    5    5    0    0  0.23042295925E+02 -0.15274641159E+02 -0.11043949296E+02  0.87622878023E+02  0.82410787358E+02 0.  0.
          5    1    3    3  501    0  0.60964712932E+02 -0.43045336327E+02  0.17777551993E+01  0.74798713999E+02  0.47000000000E+01 0. -1.
        -11    1    4    4    0    0 -0.59455083535E+02 -0.83764261839E+01 -0.76200058983E+02  0.97012991206E+02  0.00000000000E+00 0.  1.
         12    1    4    4    0    0  0.65885070176E+00 -0.32194219789E+02  0.34142482272E+01  0.32381460175E+02  0.00000000000E+00 0. -1.
         -5    1    5    5    0  502 -0.25210776023E+02  0.98890623458E+02  0.88852651094E+01  0.10254743571E+03  0.47000000000E+01 0.  1.
         11    1    6    6    0    0 -0.30043906976E+02 -0.14601878935E+02 -0.41795024202E-01  0.33404385365E+02  0.00000000000E+00 0. -1.
        -12    1    6    6    0    0  0.53086202901E+02 -0.67276222360E+00 -0.11002154272E+02  0.54218492657E+02  0.00000000000E+00 0.  1.
</event>
<event>
12    1  0.1032880E+000  0.2131472E+03  0.7818608E-02  0.1139245E+00
         21   -1    0    0  503  502  0.00000000000E+00  0.00000000000E+00  0.15241165646E+04  0.15241165646E+04  0.00000000000E+00 0.  1.
         21   -1    0    0  501  503 -0.00000000000E+00 -0.00000000000E+00 -0.30091324676E+02  0.30091324676E+02  0.00000000000E+00 0.  1.
          6    2    1    2  501    0  0.12491114162E+03  0.24943922343E+01  0.83403127742E+03  0.86064911958E+03  0.17175482534E+03 0.  0.
         24    2    3    3    0    0  0.60428167788E+02  0.42887959411E+02  0.68120373576E+03  0.68986258126E+03  0.79880603899E+02 0.  0.
         -6    2    1    2    0  502 -0.12491114162E+03 -0.24943922343E+01  0.65999396255E+03  0.69355876974E+03  0.17269256264E+03 0.  0.
        -24    2    5    5    0    0 -0.15847540086E+03  0.21676353039E+01  0.58214003102E+03  0.60851984539E+03  0.79311003052E+02 0.  0.
          5    1    3    3  501    0  0.64482973827E+02 -0.40393567176E+02  0.15282754166E+03  0.17078653832E+03  0.47000000000E+01 0. -1.
        -11    1    4    4    0    0  0.19933621776E+02 -0.20665171875E+02  0.29364767326E+03  0.29504805476E+03  0.00000000000E+00 0.  1.
         12    1    4    4    0    0  0.40494546012E+02  0.63553131286E+02  0.38755606250E+03  0.39481452649E+03  0.00000000000E+00 0. -1.
         -5    1    5    5    0  502  0.33564259242E+02 -0.46620275382E+01  0.77853931533E+02  0.85038924349E+02  0.47000000000E+01 0.  1.
         13    1    6    6    0    0 -0.74987872619E+02 -0.65624307115E+01  0.41175691555E+03  0.41858094085E+03  0.00000000000E+00 0. -1.
        -14    1    6    6    0    0 -0.83487528239E+02  0.87300660153E+01  0.17038311546E+03  0.18993890454E+03  0.00000000000E+00 0.  1.
</event>
<event>
12    1  0.1032880E+000  0.2139983E+03  0.7818608E-02  0.1138597E+00
         21   -1    0    0  501  502  0.00000000000E+00  0.00000000000E+00  0.57634533366E+02  0.57634533366E+02  0.00000000000E+00 0.  1.
         21   -1    0    0  502  503 -0.00000000000E+00 -0.00000000000E+00 -0.11847965246E+04  0.11847965246E+04  0.00000000000E+00 0.  1.
         -6    2    1    2    0  503 -0.12264653135E+03 -0.36690899977E+02 -0.92075547858E+03  0.94511149474E+03  0.17046023688E+03 0.  0.
        -24    2    3    3    0    0 -0.68213855692E+02  0.29253896342E+02 -0.69732082956E+03  0.70582763669E+03  0.80171022282E+02 0.  0.
          6    2    1    2  501    0  0.12264653135E+03  0.36690899977E+02 -0.20640651263E+03  0.29731956321E+03  0.17148434452E+03 0.  0.
         24    2    5    5    0    0  0.19076779617E+02  0.14294885975E+02 -0.16251616057E+03  0.18252963368E+03  0.79607144395E+02 0.  0.
          5    1    5    5  501    0  0.10356975173E+03  0.22396014001E+02 -0.43890352068E+02  0.11478992953E+03  0.47000000000E+01 0. -1.
        -11    1    6    6    0    0  0.47697552877E+02  0.15696844069E+02 -0.12903055885E+03  0.13845697014E+03  0.00000000000E+00 0.  1.
         12    1    6    6    0    0 -0.28620773260E+02 -0.14019580931E+01 -0.33485601718E+02  0.44072663533E+02  0.00000000000E+00 0. -1.
         -5    1    3    3    0  503 -0.54432675659E+02 -0.65944796319E+02 -0.22343464902E+03  0.23928385805E+03  0.47000000000E+01 0.  1.
         13    1    4    4    0    0 -0.52060857632E+02 -0.13335920493E+02 -0.51923479683E+03  0.52200857648E+03  0.00000000000E+00 0. -1.
        -14    1    4    4    0    0 -0.16152998060E+02  0.42589816835E+02 -0.17808603273E+03  0.18381906021E+03  0.00000000000E+00 0.  1.
</event>
<event>
12    1  0.1032880E+000  0.2875200E+03  0.7818608E-02  0.1091656E+00
         21   -1    0    0  503  502  0.00000000000E+00  0.00000000000E+00  0.35610268841E+02  0.35610268841E+02  0.00000000000E+00 0.  1.
         21   -1    0    0  501  503 -0.00000000000E+00 -0.00000000000E+00 -0.24620472457E+04  0.24620472457E+04  0.00000000000E+00 0.  1.
          6    2    1    2  501    0 -0.10301729900E+03 -0.20607901555E+03 -0.91457705783E+03  0.95870692534E+03  0.17200770170E+03 0.  0.
         24    2    3    3    0    0 -0.88729572462E+02 -0.11240084521E+03 -0.75178090158E+03  0.77028076682E+03  0.87470273273E+02 0.  0.
         -6    2    1    2    0  502  0.10301729900E+03  0.20607901555E+03 -0.15118599190E+04  0.15389505892E+04  0.17195166965E+03 0.  0.
        -24    2    5    5    0    0  0.55072148841E+02  0.16733089603E+03 -0.13784632814E+04  0.13919236967E+04  0.79107451625E+02 0.  0.
          5    1    3    3  501    0 -0.14287726541E+02 -0.93678170339E+02 -0.16279615624E+03  0.18842615852E+03  0.47000000000E+01 0. -1.
        -11    1    4    4    0    0  0.49098986323E+01 -0.23602294548E+02 -0.28413300663E+03  0.28515388980E+03  0.00000000000E+00 0.  1.
         12    1    4    4    0    0 -0.93639471094E+02 -0.88798550660E+02 -0.46764789496E+03  0.48512687702E+03  0.00000000000E+00 0. -1.
         -5    1    5    5    0  502  0.47945150162E+02  0.38748119518E+02 -0.13339663763E+03  0.14702689251E+03  0.47000000000E+01 0.  1.
         13    1    6    6    0    0  0.86831223006E+01  0.32400813906E+02 -0.56852817395E+03  0.56951689521E+03  0.00000000000E+00 0. -1.
        -14    1    6    6    0    0  0.46389026541E+02  0.13493008212E+03 -0.80993510747E+03  0.82240680150E+03  0.00000000000E+00 0.  1.
</event>
<event>
12    1  0.1032880E+000  0.2276365E+03  0.7818608E-02  0.1128357E+00
         21   -1    0    0  503  502  0.00000000000E+00  0.00000000000E+00  0.81573715177E+02  0.81573715177E+02  0.00000000000E+00 0. -1.
         21   -1    0    0  501  503 -0.00000000000E+00 -0.00000000000E+00 -0.95630234249E+03  0.95630234249E+03  0.00000000000E+00 0. -1.
          6    2    1    2  501    0  0.14177037244E+03  0.45286309785E+02 -0.13621465542E+03  0.26507513726E+03  0.17193227646E+03 0.  0.
         24    2    3    3    0    0  0.17067654047E+03  0.33979296325E+02 -0.13646164331E+03  0.23368141008E+03  0.75499319711E+02 0.  0.
         -6    2    1    2    0  502 -0.14177037244E+03 -0.45286309785E+02 -0.73851397190E+03  0.77280092041E+03  0.17224600877E+03 0.  0.
        -24    2    5    5    0    0 -0.10825636736E+03 -0.87044634353E+02 -0.64828497134E+03  0.66777564369E+03  0.79716352136E+02 0.  0.
          5    1    3    3  501    0 -0.28906168027E+02  0.11307013460E+02  0.24698789316E+00  0.31393727182E+02  0.47000000000E+01 0. -1.
        -13    1    4    4    0    0  0.49112685957E+02  0.16548905380E+02 -0.87043858654E+02  0.10130427198E+03  0.00000000000E+00 0.  1.
         14    1    4    4    0    0  0.12156385451E+03  0.17430390944E+02 -0.49417784655E+02  0.13237713810E+03  0.00000000000E+00 0. -1.
         -5    1    5    5    0  502 -0.33514005084E+02  0.41758324568E+02 -0.90229000561E+02  0.10502527672E+03  0.47000000000E+01 0.  1.
         13    1    6    6    0    0 -0.10039144501E+03 -0.59361250640E+02 -0.60259426282E+03  0.61377686979E+03  0.00000000000E+00 0. -1.
        -14    1    6    6    0    0 -0.78649223455E+01 -0.27683383713E+02 -0.45690708515E+02  0.53998773893E+02  0.00000000000E+00 0.  1.
</event>
<event>
12    1  0.1032880E+000  0.3138241E+03  0.7818608E-02  0.1078548E+00
         21   -1    0    0  503  502  0.00000000000E+00  0.00000000000E+00  0.39154797748E+03  0.39154797748E+03  0.00000000000E+00 0.  1.
         21   -1    0    0  501  503 -0.00000000000E+00 -0.00000000000E+00 -0.34711666530E+03  0.34711666530E+03  0.00000000000E+00 0.  1.
          6    2    1    2  501    0  0.24776104995E+03  0.86965144984E+02  0.21616888380E+03  0.38092262445E+03  0.17153595885E+03 0.  0.
         24    2    3    3    0    0  0.12716910241E+03  0.12212780894E+02  0.31987468742E+02  0.14838183791E+03  0.68358167334E+02 0.  0.
         -6    2    1    2    0  502 -0.24776104995E+03 -0.86965144984E+02 -0.17173757162E+03  0.35774201834E+03  0.17186356176E+03 0.  0.
        -24    2    5    5    0    0 -0.26271825951E+03 -0.58459767504E+02 -0.15904571637E+03  0.32282142480E+03  0.80496609361E+02 0.  0.
          5    1    3    3  501    0  0.12059194754E+03  0.74752364091E+02  0.18418141506E+03  0.23254078654E+03  0.47000000000E+01 0. -1.
        -13    1    4    4    0    0  0.20098372748E+02  0.26633821513E+02 -0.59192019699E+01  0.33887195037E+02  0.00000000000E+00 0.  1.
         14    1    4    4    0    0  0.10707072966E+03 -0.14421040620E+02  0.37906670712E+02  0.11449464288E+03  0.00000000000E+00 0. -1.
         -5    1    5    5    0  502  0.14957209560E+02 -0.28505377480E+02 -0.12691855259E+02  0.34920593538E+02  0.47000000000E+01 0.  1.
         11    1    6    6    0    0 -0.23853239915E+03 -0.76395972313E+02 -0.14678564567E+03  0.29031030950E+03  0.00000000000E+00 0. -1.
        -12    1    6    6    0    0 -0.24185860364E+02  0.17936204808E+02 -0.12260070697E+02  0.32511115299E+02  0.00000000000E+00 0.  1.
</event>
<event>
12    1  0.1032880E+000  0.2084446E+03  0.7818608E-02  0.1142923E+00
         21   -1    0    0  503  502  0.00000000000E+00  0.00000000000E+00  0.35248171780E+03  0.35248171780E+03  0.00000000000E+00 0.  1.
         21   -1    0    0  501  503 -0.00000000000E+00 -0.00000000000E+00 -0.12492280591E+03  0.12492280591E+03  0.00000000000E+00 0.  1.
          6    2    1    2  501    0  0.11652528437E+03 -0.78115017690E+01  0.83344954429E+02  0.22393496736E+03  0.17193407668E+03 0.  0.
         24    2    3    3    0    0  0.84507638511E+02 -0.93850841345E+01 -0.13651455605E+02  0.12167060716E+03  0.85952042654E+02 0.  0.
         -6    2    1    2    0  502 -0.11652528437E+03  0.78115017690E+01  0.14421395746E+03  0.25346955634E+03  0.17265569499E+03 0.  0.
        -24    2    5    5    0    0 -0.12357171832E+03 -0.39239648472E+02  0.74310612566E+02  0.16878171426E+03  0.78456869344E+02 0.  0.
          5    1    3    3  501    0  0.32017645856E+02  0.15735823654E+01  0.96996410034E+02  0.10226436020E+03  0.47000000000E+01 0. -1.
        -13    1    4    4    0    0 -0.18796149545E+01 -0.30319496468E+02 -0.12298162216E+02  0.32772696141E+02  0.00000000000E+00 0.  1.
         14    1    4    4    0    0  0.86387253466E+02  0.20934412334E+02 -0.13532933894E+01  0.88897911022E+02  0.00000000000E+00 0. -1.
         -5    1    5    5    0  502  0.70464339509E+01  0.47051150241E+02  0.69903344890E+02  0.84687842086E+02  0.47000000000E+01 0.  1.
         13    1    6    6    0    0 -0.66534409184E+02  0.19801521961E+02  0.35780134987E+02  0.78097028991E+02  0.00000000000E+00 0. -1.
        -14    1    6    6    0    0 -0.57037309134E+02 -0.59041170433E+02  0.38530477580E+02  0.90684685267E+02  0.00000000000E+00 0.  1.
</event>
<event>
12    1  0.1032880E+000  0.3232470E+03  0.7818608E-02  0.1074649E+00
         21   -1    0    0  501  502  0.00000000000E+00  0.00000000000E+00  0.35113472682E+03  0.35113472682E+03  0.00000000000E+00 0.  1.
         21   -1    0    0  502  503 -0.00000000000E+00 -0.00000000000E+00 -0.77293237044E+03  0.77293237044E+03  0.00000000000E+00 0. -1.
         -6    2    1    2    0  503 -0.24668274498E+03  0.10706498310E+03  0.23112708313E+03  0.39737686714E+03  0.17936933602E+03 0.  0.
        -24    2    3    3    0    0 -0.14179576820E+03  0.72596613737E+02  0.49626305910E+02  0.18488223540E+03  0.79638951050E+02 0.  0.
          6    2    1    2  501    0  0.24668274498E+03 -0.10706498310E+03 -0.65292472675E+03  0.72669023012E+03  0.17161790257E+03 0.  0.
         24    2    5    5    0    0  0.13909778100E+03 -0.12536898332E+03 -0.48977218508E+03  0.53034766533E+03  0.79537904064E+02 0.  0.
          5    1    5    5  501    0  0.10758496398E+03  0.18304000217E+02 -0.16315254167E+03  0.19634256480E+03  0.47000000000E+01 0. -1.
        -11    1    6    6    0    0  0.45455383655E+02 -0.23214351926E+01 -0.75490596935E+02  0.88149935849E+02  0.00000000000E+00 0.  1.
         12    1    6    6    0    0  0.93642397345E+02 -0.12304754812E+03 -0.41428158814E+03  0.44219772948E+03  0.00000000000E+00 0. -1.
         -5    1    3    3    0  503 -0.10488697678E+03  0.34468369362E+02  0.18150077722E+03  0.21249463174E+03  0.47000000000E+01 0.  1.
         11    1    4    4    0    0 -0.62094524990E+02  0.75903284037E+02  0.22381734314E+02  0.10058817322E+03  0.00000000000E+00 0. -1.
        -12    1    4    4    0    0 -0.79701243209E+02 -0.33066703001E+01  0.27244571596E+02  0.84294062181E+02  0.00000000000E+00 0.  1.
</event>
<event>
12    1  0.1032880E+000  0.1995569E+03  0.7818608E-02  0.1150149E+00
         21   -1    0    0  501  502  0.00000000000E+00  0.00000000000E+00  0.81386879494E+03  0.81386879494E+03  0.00000000000E+00 0.  1.
         21   -1    0    0  502  503 -0.00000000000E+00 -0.00000000000E+00 -0.48941558369E+02  0.48941558369E+02  0.00000000000E+00 0.  1.
         -6    2    1    2    0  503  0.47970272181E+02 -0.89690211831E+02  0.36811399599E+03  0.41864406298E+03  0.17149185494E+03 0.  0.
        -24    2    3    3    0    0  0.58868295611E+02 -0.40949593197E+01  0.27005821279E+03  0.28794463381E+03  0.80612833485E+02 0.  0.
          6    2    1    2  501    0 -0.47970272181E+02  0.89690211831E+02  0.39681324058E+03  0.44416629033E+03  0.17169002433E+03 0.  0.
         24    2    5    5    0    0  0.34581945938E+02  0.58328724372E+02  0.23899159022E+03  0.26325699003E+03  0.87115506842E+02 0.  0.
          5    1    5    5  501    0 -0.82552218119E+02  0.31361487459E+02  0.15782165036E+03  0.18090930030E+03  0.47000000000E+01 0. -1.
        -13    1    6    6    0    0  0.24452823120E+02 -0.16530239181E+02  0.35329314156E+02  0.46036396520E+02  0.00000000000E+00 0.  1.
         14    1    6    6    0    0  0.10129122819E+02  0.74858963553E+02  0.20366227606E+03  0.21722059351E+03  0.00000000000E+00 0. -1.
         -5    1    3    3    0  503 -0.10898023430E+02 -0.85595252511E+02  0.98055783203E+02  0.13069942917E+03  0.47000000000E+01 0.  1.
         13    1    4    4    0    0  0.36870716213E+02 -0.42115702342E+02  0.15237475513E+03  0.16233067516E+03  0.00000000000E+00 0. -1.
        -14    1    4    4    0    0  0.21997579398E+02  0.38020743022E+02  0.11768345766E+03  0.12561395864E+03  0.00000000000E+00 0.  1.
</event>
<event>
12    1  0.1032880E+000  0.2301890E+03  0.7818608E-02  0.1126865E+00
         21   -1    0    0  501  502  0.00000000000E+00  0.00000000000E+00  0.44299051134E+03  0.44299051134E+03  0.00000000000E+00 0.  1.
         21   -1    0    0  502  503 -0.00000000000E+00 -0.00000000000E+00 -0.11862059285E+03  0.11862059285E+03  0.00000000000E+00 0.  1.
         -6    2    1    2    0  503  0.10231181331E+03 -0.11257556101E+03  0.16922652381E+03  0.28570019206E+03  0.17276000493E+03 0.  0.
        -24    2    3    3    0    0  0.25890350970E+02 -0.12651530967E+03  0.10308423720E+03  0.18356572884E+03  0.79959883643E+02 0.  0.
          6    2    1    2  501    0 -0.10231181331E+03  0.11257556101E+03  0.15514339468E+03  0.27591091213E+03  0.17004821210E+03 0.  0.
         24    2    5    5    0    0 -0.42746384458E+00  0.44194144290E+02  0.19467044574E+02  0.92917467445E+02  0.79381262381E+02 0.  0.
          5    1    5    5  501    0 -0.10188434947E+03  0.68381416721E+02  0.13567635011E+03  0.18299344469E+03  0.47000000000E+01 0. -1.
        -13    1    6    6    0    0  0.22048784125E+02  0.16717068916E+02  0.42418518112E+02  0.50645236235E+02  0.00000000000E+00 0.  1.
         14    1    6    6    0    0 -0.22476247969E+02  0.27477075374E+02 -0.22951473538E+02  0.42272231210E+02  0.00000000000E+00 0. -1.
         -5    1    3    3    0  503  0.76421462344E+02  0.13939748654E+02  0.66142286618E+02  0.10213446323E+03  0.47000000000E+01 0.  1.
         11    1    4    4    0    0  0.44244924096E+02 -0.12055268364E+03  0.72687988542E+02  0.14756051816E+03  0.00000000000E+00 0. -1.
        -12    1    4    4    0    0 -0.18354573126E+02 -0.59626260249E+01  0.30396248653E+02  0.36005210677E+02  0.00000000000E+00 0.  1.
</event>
<event>
12    1  0.1032880E+000  0.1936154E+03  0.7818608E-02  0.1155288E+00
         21   -1    0    0  503  502  0.00000000000E+00  0.00000000000E+00  0.13466137787E+03  0.13466137787E+03  0.00000000000E+00 0.  1.
         21   -1    0    0  501  503 -0.00000000000E+00 -0.00000000000E+00 -0.28147063869E+03  0.28147063869E+03  0.00000000000E+00 0.  1.
          6    2    1    2  501    0 -0.47351621813E+02  0.74599276584E+02 -0.50572326609E+02  0.20011122418E+03  0.17227801273E+03 0.  0.
         24    2    3    3    0    0  0.10005570934E+02  0.20126229599E+02  0.27649130460E+02  0.88765605707E+02  0.81299949408E+02 0.  0.
         -6    2    1    2    0  502  0.47351621813E+02 -0.74599276584E+02 -0.96236934213E+02  0.21602079237E+03  0.17203548203E+03 0.  0.
        -24    2    5    5    0    0  0.95238349242E+02 -0.68741175740E+02 -0.49907653626E+02  0.14896895982E+03  0.76845850183E+02 0.  0.
          5    1    3    3  501    0 -0.57357192747E+02  0.54473046984E+02 -0.78221457069E+02  0.11134561848E+03  0.47000000000E+01 0. -1.
        -13    1    4    4    0    0 -0.12714852911E+02  0.23789282104E+02 -0.21500702755E+02  0.34494603151E+02  0.00000000000E+00 0.  1.
         14    1    4    4    0    0  0.22720423845E+02 -0.36630525042E+01  0.49149833216E+02  0.54271002556E+02  0.00000000000E+00 0. -1.
         -5    1    5    5    0  502 -0.47886727429E+02 -0.58581008435E+01 -0.46329280586E+02  0.67051832555E+02  0.47000000000E+01 0.  1.
         11    1    6    6    0    0  0.35236385861E+02 -0.72110160091E+02 -0.29152928761E+02  0.85389527064E+02  0.00000000000E+00 0. -1.
        -12    1    6    6    0    0  0.60001963381E+02  0.33689843506E+01 -0.20754724865E+02  0.63579432754E+02  0.00000000000E+00 0.  1.
</event>
<event>
12    1  0.1032880E+000  0.2394950E+03  0.7818608E-02  0.1120706E+00
         21   -1    0    0  503  502  0.00000000000E+00  0.00000000000E+00  0.12935149208E+04  0.12935149208E+04  0.00000000000E+00 0. -1.
         21   -1    0    0  501  503 -0.00000000000E+00 -0.00000000000E+00 -0.45141119922E+02  0.45141119922E+02  0.00000000000E+00 0. -1.
          6    2    1    2  501    0  0.15895232912E+03  0.32885444637E+02  0.50067841207E+03  0.55354061295E+03  0.17140899181E+03 0.  0.
         24    2    3    3    0    0  0.15136627970E+03 -0.14178246692E+02  0.45897405129E+03  0.49002775681E+03  0.79732360907E+02 0.  0.
         -6    2    1    2    0  502 -0.15895232912E+03 -0.32885444637E+02  0.74769538877E+03  0.78511542774E+03  0.17609811208E+03 0.  0.
        -24    2    5    5    0    0 -0.12138160169E+02  0.12899482319E+02  0.18223153272E+03  0.19909313956E+03  0.78204955885E+02 0.  0.
          5    1    3    3  501    0  0.75860494127E+01  0.47063691329E+02  0.41704360779E+02  0.63512856141E+02  0.47000000000E+01 0. -1.
        -11    1    4    4    0    0  0.35523972499E+02  0.24629612484E+02  0.18608188483E+03  0.19103674593E+03  0.00000000000E+00 0.  1.
         12    1    4    4    0    0  0.11584230720E+03 -0.38807859176E+02  0.27289216646E+03  0.29899101088E+03  0.00000000000E+00 0. -1.
         -5    1    5    5    0  502 -0.14681416895E+03 -0.45784926956E+02  0.56546385606E+03  0.58602228818E+03  0.47000000000E+01 0.  1.
         13    1    6    6    0    0 -0.19321147897E+02 -0.14727387102E+02  0.13161353620E+02  0.27630126964E+02  0.00000000000E+00 0. -1.
        -14    1    6    6    0    0  0.71829877285E+01  0.27626869422E+02  0.16907017910E+03  0.17146301259E+03  0.00000000000E+00 0.  1.
</event>
<event>
12    1  0.1032880E+000  0.1766567E+03  0.7818608E-02  0.1171421E+00
         21   -1    0    0  503  502  0.00000000000E+00  0.00000000000E+00  0.77763883509E+02  0.77763883509E+02  0.00000000000E+00 0.  1.
         21   -1    0    0  501  503 -0.00000000000E+00 -0.00000000000E+00 -0.41477530782E+03  0.41477530782E+03  0.00000000000E+00 0.  1.
          6    2    1    2  501    0  0.46472268107E+00  0.40908969532E+02 -0.11990242978E+03  0.21350455491E+03  0.17185413159E+03 0.  0.
         24    2    3    3    0    0 -0.30452258288E+02 -0.23448471622E+02 -0.22727014742E+02  0.92827750049E+02  0.81383678485E+02 0.  0.
         -6    2    1    2    0  502 -0.46472268107E+00 -0.40908969532E+02 -0.21710899454E+03  0.27903463642E+03  0.17044134786E+03 0.  0.
        -24    2    5    5    0    0  0.19101743164E+00 -0.63885705699E+02 -0.55797068581E+02  0.11602547148E+03  0.79165505678E+02 0.  0.
          5    1    3    3  501    0  0.30916980969E+02  0.64357441155E+02 -0.97175415034E+02  0.12067680486E+03  0.47000000000E+01 0. -1.
        -13    1    4    4    0    0 -0.11011717055E+02 -0.37077235224E+02 -0.45645424975E+02  0.59828789939E+02  0.00000000000E+00 0.  1.
         14    1    4    4    0    0 -0.19440541233E+02  0.13628763602E+02  0.22918410233E+02  0.32998960110E+02  0.00000000000E+00 0. -1.
         -5    1    5    5    0  502 -0.65574011271E+00  0.22976736166E+02 -0.16131192596E+03  0.16300916495E+03  0.47000000000E+01 0.  1.
         11    1    6    6    0    0 -0.36934148562E+02 -0.14922968799E+02 -0.16689778017E+02  0.43189987474E+02  0.00000000000E+00 0. -1.
        -12    1    6    6    0    0  0.37125165994E+02 -0.48962736900E+02 -0.39107290565E+02  0.72835484004E+02  0.00000000000E+00 0.  1.
</event>
<event>
12    1  0.1032880E+000  0.1874157E+03  0.7818608E-02  0.1161148E+00
         21   -1    0    0  501  502  0.00000000000E+00  0.00000000000E+00  0.40551867137E+03  0.40551867137E+03  0.00000000000E+00 0. -1.
         21   -1    0    0  502  503 -0.00000000000E+00 -0.00000000000E+00 -0.92676011038E+02  0.92676011038E+02  0.00000000000E+00 0. -1.
         -6    2    1    2    0  503 -0.58007263167E+02 -0.44087011602E+02  0.89862681103E+02  0.20784593297E+03  0.17267345837E+03 0.  0.
        -24    2    3    3    0    0  0.22945757507E+02 -0.11438914562E+02  0.40812019662E+00  0.82771961807E+02  0.78699901813E+02 0.  0.
          6    2    1    2  501    0  0.58007263167E+02  0.44087011602E+02  0.22297997923E+03  0.29034874943E+03  0.17109593212E+03 0.  0.
         24    2    5    5    0    0  0.28963015211E+02 -0.24470730254E+02  0.48537767709E+02  0.10062287490E+03  0.79569938857E+02 0.  0.
          5    1    5    5  501    0  0.29044247956E+02  0.68557741856E+02  0.17444221152E+03  0.18972587453E+03  0.47000000000E+01 0. -1.
        -11    1    6    6    0    0  0.48158925817E+02 -0.24075889046E+00  0.67291927516E+01  0.48627380516E+02  0.00000000000E+00 0.  1.
         12    1    6    6    0    0 -0.19195910607E+02 -0.24229971364E+02  0.41808574958E+02  0.51995494384E+02  0.00000000000E+00 0. -1.
         -5    1    3    3    0  503 -0.80953020674E+02 -0.32648097040E+02  0.89454560907E+02  0.12507397117E+03  0.47000000000E+01 0.  1.
         11    1    4    4    0    0  0.17041385305E+02 -0.27809254501E+02 -0.32186307280E+02  0.45822721715E+02  0.00000000000E+00 0. -1.
        -12    1    4    4    0    0  0.59043722022E+01  0.16370339939E+02  0.32594427477E+02  0.36949240092E+02  0.00000000000E+00 0.  1.
</event>
<event>
12    1  0.1032880E+000  0.2280584E+03  0.7818608E-02  0.1128034E+00
         21   -1    0    0  503  502  0.00000000000E+00  0.00000000000E+00  0.35745621158E+03  0.35745621158E+03  0.00000000000E+00 0.  1.
         21   -1    0    0  501  503 -0.00000000000E+00 -0.00000000000E+00 -0.17855132294E+03  0.17855132294E+03  0.00000000000E+00 0.  1.
          6    2    1    2  501    0  0.91056045570E+02 -0.11886954112E+03  0.20486154697E+03  0.30647678610E+03  0.17186796022E+03 0.  0.
         24    2    3    3    0    0 -0.12140012973E+02 -0.80174432593E+02  0.94146480801E+02  0.15018649914E+03  0.84362936881E+02 0.  0.
         -6    2    1    2    0  502 -0.91056045570E+02  0.11886954112E+03 -0.25956658333E+02  0.22953074842E+03  0.17201582811E+03 0.  0.
        -24    2    5    5    0    0  0.45957611095E+01  0.45112633848E+02  0.15787668326E+01  0.10555639974E+03  0.95306821736E+02 0.  0.
          5    1    3    3  501    0  0.10319605854E+03 -0.38695108525E+02  0.11071506616E+03  0.15629028696E+03  0.47000000000E+01 0. -1.
        -11    1    4    4    0    0 -0.39200342474E+02 -0.16063351284E+02  0.57845050478E+02  0.71699009543E+02  0.00000000000E+00 0.  1.
         12    1    4    4    0    0  0.27060329501E+02 -0.64111081309E+02  0.36301430323E+02  0.78487489595E+02  0.00000000000E+00 0. -1.
         -5    1    5    5    0  502 -0.95651806680E+02  0.73756907270E+02 -0.27535425165E+02  0.12397434868E+03  0.47000000000E+01 0.  1.
         13    1    6    6    0    0  0.72322016056E+01  0.87151890202E+00 -0.42458190175E+02  0.43078558451E+02  0.00000000000E+00 0. -1.
        -14    1    6    6    0    0 -0.26364404961E+01  0.44241114946E+02  0.44036957008E+02  0.62477841293E+02  0.00000000000E+00 0.  1.
</event>
<event>
12    1  0.1032880E+000  0.2344630E+03  0.7818608E-02  0.1124045E+00
         21   -1    0    0  503  502  0.00000000000E+00  0.00000000000E+00  0.34300009918E+02  0.34300009918E+02  0.00000000000E+00 0. -1.
         21   -1    0    0  501  503 -0.00000000000E+00 -0.00000000000E+00 -0.16081555054E+04  0.16081555054E+04  0.00000000000E+00 0. -1.
          6    2    1    2  501    0 -0.39392910003E+02 -0.14955283890E+03 -0.68846694994E+03  0.72729612478E+03  0.17622445625E+03 0.  0.
         24    2    3    3    0    0 -0.16452081457E+01 -0.24330906587E+02 -0.42369465650E+03  0.43194569106E+03  0.80406581515E+02 0.  0.
         -6    2    1    2    0  502  0.39392910003E+02  0.14955283890E+03 -0.88538854556E+03  0.91515939055E+03  0.17229619998E+03 0.  0.
        -24    2    5    5    0    0  0.57839862310E+01  0.16214689623E+01 -0.29816691626E+03  0.30864098038E+03  0.79496296492E+02 0.  0.
          5    1    3    3  501    0 -0.37747701858E+02 -0.12522193231E+03 -0.26477229344E+03  0.29535043372E+03  0.47000000000E+01 0. -1.
        -11    1    4    4    0    0 -0.32585139265E+02 -0.19254246012E+02 -0.34745904114E+03  0.34951438105E+03  0.00000000000E+00 0.  1.
         12    1    4    4    0    0  0.30939931119E+02 -0.50766605744E+01 -0.76235615358E+02  0.82431310005E+02  0.00000000000E+00 0. -1.
         -5    1    5    5    0  502  0.33608923772E+02  0.14793136994E+03 -0.58722162929E+03  0.60651841017E+03  0.47000000000E+01 0.  1.
         13    1    6    6    0    0 -0.23143606130E+02  0.15826586729E+02 -0.24404814263E+03  0.24565342104E+03  0.00000000000E+00 0. -1.
        -14    1    6    6    0    0  0.28927592361E+02 -0.14205117767E+02 -0.54118773638E+02  0.62987559333E+02  0.00000000000E+00 0.  1.
</event>
<event>
12    1  0.1032880E+000  0.2677665E+03  0.7818608E-02  0.1102666E+00
         21   -1    0    0  501  502  0.00000000000E+00  0.00000000000E+00  0.59932929143E+03  0.59932929143E+03  0.00000000000E+00 0. -1.
         21   -1    0    0  502  503 -0.00000000000E+00 -0.00000000000E+00 -0.12924684933E+03  0.12924684933E+03  0.00000000000E+00 0. -1.
         -6    2    1    2    0  503  0.14327661100E+03  0.14665450318E+03  0.33571813789E+03  0.42898869197E+03  0.17113999874E+03 0.  0.
        -24    2    3    3    0    0  0.13279451905E+02  0.54094136710E+02  0.75005475646E+02  0.12327662962E+03  0.80428767018E+02 0.  0.
          6    2    1    2  501    0 -0.14327661100E+03 -0.14665450318E+03  0.13436430421E+03  0.29958744879E+03  0.17222991221E+03 0.  0.
         24    2    5    5    0    0 -0.64131787372E+02 -0.65007122198E+02 -0.38676629553E+01  0.12053336568E+03  0.78578122517E+02 0.  0.
          5    1    5    5  501    0 -0.79144823629E+02 -0.81647380985E+02  0.13823196717E+03  0.17905408311E+03  0.47000000000E+01 0. -1.
        -13    1    6    6    0    0 -0.30521979612E+02 -0.77345610873E+02 -0.11454433633E+02  0.83935325165E+02  0.00000000000E+00 0.  1.
         14    1    6    6    0    0 -0.33609807760E+02  0.12338488675E+02  0.75867706779E+01  0.36598040518E+02  0.00000000000E+00 0. -1.
         -5    1    3    3    0  503  0.12999715910E+03  0.92560366473E+02  0.26071266224E+03  0.30571206235E+03  0.47000000000E+01 0.  1.
         13    1    4    4    0    0 -0.25925345196E+02  0.82501685305E+01  0.52056305890E+02  0.58737107413E+02  0.00000000000E+00 0. -1.
        -14    1    4    4    0    0  0.39204797101E+02  0.45843968179E+02  0.22949169756E+02  0.64539522207E+02  0.00000000000E+00 0.  1.
</event>
<event>
12    1  0.1032880E+000  0.2013974E+03  0.7818608E-02  0.1149636E+00
         21   -1    0    0  503  502  0.00000000000E+00  0.00000000000E+00  0.65821859117E+03  0.65821859117E+03  0.00000000000E+00 0.  1.
         21   -1    0    0  501  503 -0.00000000000E+00 -0.00000000000E+00 -0.60090550389E+02  0.60090550389E+02  0.00000000000E+00 0.  1.
          6    2    1    2  501    0 -0.13138057658E+02  0.10441808384E+03  0.29974198854E+03  0.36111792659E+03  0.17171241197E+03 0.  0.
         24    2    3    3    0    0  0.59981297915E+02  0.63203910840E+02  0.18735883726E+03  0.22077153047E+03  0.77744738210E+02 0.  0.
         -6    2    1    2    0  502  0.13138057658E+02 -0.10441808384E+03  0.29838605225E+03  0.35719121497E+03  0.16575760339E+03 0.  0.
        -24    2    5    5    0    0  0.24855805333E+02 -0.70409004664E+01  0.20264794326E+03  0.22005078706E+03  0.81784929180E+02 0.  0.
          5    1    3    3  501    0 -0.73119355573E+02  0.41214173005E+02  0.11238315127E+03  0.14034639613E+03  0.47000000000E+01 0. -1.
        -11    1    4    4    0    0  0.43634167863E+02 -0.63410370829E+01  0.56354574083E+02  0.71554087071E+02  0.00000000000E+00 0.  1.
         12    1    4    4    0    0  0.16347130052E+02  0.69544947923E+02  0.13100426318E+03  0.14921744340E+03  0.00000000000E+00 0. -1.
         -5    1    5    5    0  502 -0.11717747675E+02 -0.97377183378E+02  0.95738108986E+02  0.13714042790E+03  0.47000000000E+01 0.  1.
         11    1    6    6    0    0 -0.26430895774E+02 -0.88389309952E+01  0.35094042427E+02  0.44814180417E+02  0.00000000000E+00 0. -1.
        -12    1    6    6    0    0  0.51286701107E+02  0.17980305288E+01  0.16755390083E+03  0.17523660664E+03  0.00000000000E+00 0.  1.
</event>
<event>
12    1  0.1032880E+000  0.1947491E+03  0.7818608E-02  0.1154956E+00
         21   -1    0    0  501  502  0.00000000000E+00  0.00000000000E+00  0.26175073085E+03  0.26175073085E+03  0.00000000000E+00 0.  1.
         21   -1    0    0  502  503 -0.00000000000E+00 -0.00000000000E+00 -0.33424206120E+03  0.33424206120E+03  0.00000000000E+00 0.  1.
         -6    2    1    2    0  503 -0.61266142818E+02 -0.57607761873E+02 -0.26206844057E+03  0.32650741901E+03  0.17565600656E+03 0.  0.
        -24    2    3    3    0    0  0.21972782601E+02 -0.73476445243E+02 -0.14997675380E+03  0.18591165072E+03  0.78667172393E+02 0.  0.
          6    2    1    2  501    0  0.61266142818E+02  0.57607761873E+02  0.18957711022E+03  0.26948537305E+03  0.17207757287E+03 0.  0.
         24    2    5    5    0    0 -0.25816856384E+02  0.99390992320E+00  0.62128163726E+02  0.10500467222E+03  0.80613736611E+02 0.  0.
          5    1    5    5  501    0  0.87082999201E+02  0.56613851950E+02  0.12744894649E+03  0.16448070083E+03  0.47000000000E+01 0. -1.
        -13    1    6    6    0    0 -0.20780447805E+02 -0.13573982866E+02 -0.13202085705E+02  0.28113610383E+02  0.00000000000E+00 0.  1.
         14    1    6    6    0    0 -0.50364085781E+01  0.14567892789E+02  0.75330249430E+02  0.76891061840E+02  0.00000000000E+00 0. -1.
         -5    1    3    3    0  503 -0.83238925419E+02  0.15868683369E+02 -0.11209168677E+03  0.14059576829E+03  0.47000000000E+01 0.  1.
         11    1    4    4    0    0  0.23867676732E+00 -0.84146246107E+02 -0.10248324466E+03  0.13260265132E+03  0.00000000000E+00 0. -1.
        -12    1    4    4    0    0  0.21734105834E+02  0.10669800864E+02 -0.47493509137E+02  0.53308999400E+02  0.00000000000E+00 0.  1.
</event>
<event>
12    1  0.1032880E+000  0.1938595E+03  0.7818608E-02  0.1158697E+00
         21   -1    0    0  503  502  0.00000000000E+00  0.00000000000E+00  0.11743212666E+04  0.11743212666E+04  0.00000000000E+00 0.  1.
         21   -1    0    0  501  503 -0.00000000000E+00 -0.00000000000E+00 -0.29558195574E+02  0.29558195574E+02  0.00000000000E+00 0.  1.
          6    2    1    2  501    0 -0.18195908985E+02 -0.41960561189E+02  0.50704262945E+03  0.53734450370E+03  0.17191599048E+03 0.  0.
         24    2    3    3    0    0 -0.95239994752E+01 -0.76049181438E+02  0.48057215774E+03  0.49307248187E+03  0.79351679353E+02 0.  0.
         -6    2    1    2    0  502  0.18195908985E+02  0.41960561189E+02  0.63772044161E+03  0.66653495851E+03  0.18838712658E+03 0.  0.
        -24    2    5    5    0    0 -0.13699467411E+02  0.95741911096E+02  0.34355821765E+03  0.36576386175E+03  0.79979776843E+02 0.  0.
          5    1    3    3  501    0 -0.86719095094E+01  0.34088620248E+02  0.26470471708E+02  0.44272021836E+02  0.47000000000E+01 0. -1.
        -11    1    4    4    0    0 -0.18771845360E+02  0.11466713751E+02  0.81869395796E+02  0.84773024427E+02  0.00000000000E+00 0.  1.
         12    1    4    4    0    0  0.92478458843E+01 -0.87515895188E+02  0.39870276195E+03  0.40829945744E+03  0.00000000000E+00 0. -1.
         -5    1    5    5    0  502  0.31895376396E+02 -0.53781349907E+02  0.29416222397E+03  0.30077109675E+03  0.47000000000E+01 0.  1.
         11    1    6    6    0    0  0.21928477929E+02  0.29354243062E+02  0.45969058490E+02  0.58785066713E+02  0.00000000000E+00 0. -1.
        -12    1    6    6    0    0 -0.35627945340E+02  0.66387668034E+02  0.29758915916E+03  0.30697879504E+03  0.00000000000E+00 0.  1.
</event>
<event>
12    1  0.1032880E+000  0.3432553E+03  0.7818608E-02  0.1065482E+00
         21   -1    0    0  501  502  0.00000000000E+00  0.00000000000E+00  0.96083102222E+03  0.96083102222E+03  0.00000000000E+00 0. -1.
         21   -1    0    0  502  503 -0.00000000000E+00 -0.00000000000E+00 -0.12304464475E+03  0.12304464475E+03  0.00000000000E+00 0. -1.
         -6    2    1    2    0  503  0.81201106030E+01 -0.29721242108E+03  0.38036960554E+03  0.51235262857E+03  0.17153139581E+03 0.  0.
        -24    2    3    3    0    0  0.61086925395E+02 -0.16727155898E+03  0.21396461455E+03  0.29463073685E+03  0.96514392270E+02 0.  0.
          6    2    1    2  501    0 -0.81201106030E+01  0.29721242108E+03  0.45741677193E+03  0.57152303840E+03  0.17031535673E+03 0.  0.
         24    2    5    5    0    0  0.50831446913E+02  0.16653221801E+03  0.32141583194E+03  0.37385931567E+03  0.78395377769E+02 0.  0.
          5    1    5    5  501    0 -0.58951557515E+02  0.13068020306E+03  0.13600093999E+03  0.19766372273E+03  0.47000000000E+01 0. -1.
        -11    1    6    6    0    0  0.63650288853E+01  0.69043852310E+02  0.20124840520E+03  0.21285790502E+03  0.00000000000E+00 0.  1.
         12    1    6    6    0    0  0.44466418027E+02  0.97488365703E+02  0.12016742674E+03  0.16100141064E+03  0.00000000000E+00 0. -1.
         -5    1    3    3    0  503 -0.52966814792E+02 -0.12994086209E+03  0.16640499099E+03  0.21772189172E+03  0.47000000000E+01 0.  1.
         11    1    4    4    0    0 -0.15977508691E+02 -0.96837515977E+02  0.10334051549E+03  0.14252034039E+03  0.00000000000E+00 0. -1.
        -12    1    4    4    0    0  0.77064434087E+02 -0.70434043005E+02  0.11062409906E+03  0.15211039645E+03  0.00000000000E+00 0.  1.
</event>
<event>
12    1  0.1032880E+000  0.1925799E+03  0.7818608E-02  0.1156176E+00
         21   -1    0    0  503  502  0.00000000000E+00  0.00000000000E+00  0.11815202367E+04  0.11815202367E+04  0.00000000000E+00 0.  1.
         21   -1    0    0  501  503 -0.00000000000E+00 -0.00000000000E+00 -0.32393639629E+02  0.32393639629E+02  0.00000000000E+00 0.  1.
          6    2    1    2  501    0  0.85733221065E+02 -0.59494670162E+01  0.46673652601E+03  0.50487000273E+03  0.17223575004E+03 0.  0.
         24    2    3    3    0    0  0.68560781234E+02 -0.36654181780E+00  0.47331889631E+03  0.48508416582E+03  0.81087330997E+02 0.  0.
         -6    2    1    2    0  502 -0.85733221065E+02  0.59494670162E+01  0.68239007107E+03  0.70904387361E+03  0.17234101153E+03 0.  0.
        -24    2    5    5    0    0 -0.10390911865E+03 -0.25768260856E+02  0.64066365831E+03  0.65337017213E+03  0.70580100199E+02 0.  0.
          5    1    3    3  501    0  0.17172439831E+02 -0.55829251984E+01 -0.65823702986E+01  0.19785836911E+02  0.47000000000E+01 0. -1.
        -11    1    4    4    0    0  0.77282739979E+02  0.22791232001E+02  0.33372619373E+03  0.34331506599E+03  0.00000000000E+00 0.  1.
         12    1    4    4    0    0 -0.87219587450E+01 -0.23157773819E+02  0.13959270258E+03  0.14176909983E+03  0.00000000000E+00 0. -1.
         -5    1    5    5    0  502  0.18175897583E+02  0.31717727872E+02  0.41726412753E+02  0.55673701472E+02  0.47000000000E+01 0.  1.
         11    1    6    6    0    0 -0.42044633188E+02 -0.45771459773E+02  0.35513081730E+03  0.36052832774E+03  0.00000000000E+00 0. -1.
        -12    1    6    6    0    0 -0.61864485459E+02  0.20003198917E+02  0.28553284101E+03  0.29284184439E+03  0.00000000000E+00 0.  1.
</event>
<event>
12    1  0.1032880E+000  0.3616214E+03  0.7818608E-02  0.1058101E+00
         21   -1    0    0  503  502  0.00000000000E+00  0.00000000000E+00  0.10704808313E+04  0.10704808313E+04  0.00000000000E+00 0. -1.
         21   -1    0    0  501  503 -0.00000000000E+00 -0.00000000000E+00 -0.12476385755E+03  0.12476385755E+03  0.00000000000E+00 0. -1.
          6    2    1    2  501    0  0.16881349264E+03  0.26963545288E+03  0.56668342312E+03  0.67137784832E+03  0.16857295283E+03 0.  0.
         24    2    3    3    0    0  0.17179445332E+03  0.28015193032E+03  0.50078727280E+03  0.60441610513E+03  0.80823865840E+02 0.  0.
         -6    2    1    2    0  502 -0.16881349264E+03 -0.26963545288E+03  0.37903355063E+03  0.52386684054E+03  0.17195569593E+03 0.  0.
        -24    2    5    5    0    0 -0.51788686181E+02 -0.48303823092E+02  0.14347879446E+03  0.18007820078E+03  0.82623644279E+02 0.  0.
          5    1    3    3  501    0 -0.29809606812E+01 -0.10516477434E+02  0.65896150314E+02  0.66961743185E+02  0.47000000000E+01 0. -1.
        -13    1    4    4    0    0  0.15937574002E+03  0.23907276061E+03  0.38116859000E+03  0.47733207033E+03  0.00000000000E+00 0.  1.
         14    1    4    4    0    0  0.12418713305E+02  0.41079169713E+02  0.11961868280E+03  0.12708403480E+03  0.00000000000E+00 0. -1.
         -5    1    5    5    0  502 -0.11702480646E+03 -0.22133162979E+03  0.23555475617E+03  0.34378863976E+03  0.47000000000E+01 0.  1.
         11    1    6    6    0    0  0.12117318525E+02 -0.42264604393E+02  0.68238569139E+02  0.81176526846E+02  0.00000000000E+00 0. -1.
        -12    1    6    6    0    0 -0.63906004706E+02 -0.60392186989E+01  0.75240225325E+02  0.98901673934E+02  0.00000000000E+00 0.  1.
</event>
<event>
12    1  0.1032880E+000  0.2571751E+03  0.7818608E-02  0.1108873E+00
         21   -1    0    0  503  502  0.00000000000E+00  0.00000000000E+00  0.19886088879E+03  0.19886088879E+03  0.00000000000E+00 0. -1.
         21   -1    0    0  501  503 -0.00000000000E+00 -0.00000000000E+00 -0.34489194252E+03  0.34489194252E+03  0.00000000000E+00 0. -1.
          6    2    1    2  501    0 -0.68307630397E+02  0.17818203640E+03 -0.12470948132E+03  0.28569538666E+03  0.17220519377E+03 0.  0.
         24    2    3    3    0    0  0.23721601616E+02  0.10224124392E+03 -0.40636317723E+02  0.13965850658E+03  0.82687373882E+02 0.  0.
         -6    2    1    2    0  502  0.68307630397E+02 -0.17818203640E+03 -0.21321572405E+02  0.25805744466E+03  0.17240726443E+03 0.  0.
        -24    2    5    5    0    0  0.35603530490E+02 -0.19937415883E+02  0.17523801674E+02  0.91798697036E+02  0.80341802426E+02 0.  0.
          5    1    3    3  501    0 -0.92029232013E+02  0.75940792475E+02 -0.84073163598E+02  0.14603688008E+03  0.47000000000E+01 0. -1.
        -11    1    4    4    0    0  0.67379201551E+00  0.43209701806E+02  0.23755155892E+02  0.49313687322E+02  0.00000000000E+00 0.  1.
         12    1    4    4    0    0  0.23047809601E+02  0.59031542117E+02 -0.64391473616E+02  0.90344819256E+02  0.00000000000E+00 0. -1.
         -5    1    5    5    0  502  0.32704099907E+02 -0.15824462052E+03 -0.38845374079E+02  0.16625874762E+03  0.47000000000E+01 0.  1.
         11    1    6    6    0    0  0.58984086437E+02 -0.23151757440E+02  0.17065558028E+01  0.63388000899E+02  0.00000000000E+00 0. -1.
        -12    1    6    6    0    0 -0.23380555947E+02  0.32143415569E+01  0.15817245871E+02  0.28410696137E+02  0.00000000000E+00 0.  1.
</event>
<event>
12    1  0.1032880E+000  0.3815321E+03  0.7818608E-02  0.1050374E+00
         21   -1    0    0  503  502  0.00000000000E+00  0.00000000000E+00  0.24823851880E+04  0.24823851880E+04  0.00000000000E+00 0. -1.
         21   -1    0    0  501  503 -0.00000000000E+00 -0.00000000000E+00 -0.12423665487E+03  0.12423665487E+03  0.00000000000E+00 0. -1.
          6    2    1    2  501    0 -0.28993174573E+03  0.17809343640E+03  0.23202161654E+03  0.44654312970E+03  0.17259503720E+03 0.  0.
         24    2    3    3    0    0 -0.29275649902E+03  0.12765088269E+03  0.21347983426E+03  0.39252166965E+03  0.80613311180E+02 0.  0.
         -6    2    1    2    0  502  0.28993174573E+03 -0.17809343640E+03  0.21261269166E+04  0.21600787132E+04  0.17247229449E+03 0.  0.
        -24    2    5    5    0    0  0.19444463195E+03 -0.51139873619E+02  0.10337442586E+04  0.10561960393E+04  0.80615630352E+02 0.  0.
          5    1    3    3  501    0  0.28247532858E+01  0.50442553709E+02  0.18541782284E+02  0.54021460052E+02  0.47000000000E+01 0. -1.
        -11    1    4    4    0    0 -0.13264213479E+03  0.99653494218E+02  0.12266732539E+03  0.20632989979E+03  0.00000000000E+00 0.  1.
         12    1    4    4    0    0 -0.16011436423E+03  0.27997388477E+02  0.90812508862E+02  0.18619176985E+03  0.00000000000E+00 0. -1.
         -5    1    5    5    0  502  0.95487113783E+02 -0.12695356278E+03  0.10923826581E+04  0.11038826738E+04  0.47000000000E+01 0.  1.
         13    1    6    6    0    0  0.44792463783E+02 -0.34243618363E+02  0.16182949254E+03  0.17137028584E+03  0.00000000000E+00 0. -1.
        -14    1    6    6    0    0  0.14965216817E+03 -0.16896255256E+02  0.87191476602E+03  0.88482575351E+03  0.00000000000E+00 0.  1.
</event>
<event>
12    1  0.1032880E+000  0.2847417E+03  0.7818608E-02  0.1094115E+00
         21   -1    0    0  501  502  0.00000000000E+00  0.00000000000E+00  0.10714335337E+03  0.10714335337E+03  0.00000000000E+00 0. -1.
         21   -1    0    0  502  503 -0.00000000000E+00 -0.00000000000E+00 -0.73916320144E+03  0.73916320144E+03  0.00000000000E+00 0. -1.
         -6    2    1    2    0  503 -0.68172981928E+02 -0.21648554933E+03 -0.34038887081E+03  0.44378194651E+03  0.17194267690E+03 0.  0.
        -24    2    3    3    0    0 -0.59453722936E+02 -0.83038430726E+02 -0.18982792031E+03  0.24234995114E+03  0.11076431438E+03 0.  0.
          6    2    1    2  501    0  0.68172981928E+02  0.21648554933E+03 -0.29163097726E+03  0.40252460830E+03  0.15957407325E+03 0.  0.
         24    2    5    5    0    0  0.67837758450E+02  0.75666634440E+02 -0.18504973555E+03  0.22585618936E+03  0.80250935233E+02 0.  0.
          5    1    5    5  501    0  0.33522347831E+00  0.14081891489E+03 -0.10658124170E+03  0.17666841893E+03  0.47000000000E+01 0. -1.
        -13    1    6    6    0    0  0.19211253190E+02  0.47310656731E+02 -0.26331898476E+02  0.57452061467E+02  0.00000000000E+00 0.  1.
         14    1    6    6    0    0  0.48626505260E+02  0.28355977709E+02 -0.15871783708E+03  0.16840412789E+03  0.00000000000E+00 0. -1.
         -5    1    3    3    0  503 -0.87192589922E+01 -0.13344711860E+03 -0.15056095050E+03  0.20143199537E+03  0.47000000000E+01 0.  1.
         11    1    4    4    0    0 -0.62786177400E+02 -0.84396335662E+02 -0.20303262119E+03  0.22866370681E+03  0.00000000000E+00 0. -1.
        -12    1    4    4    0    0  0.33324544641E+01  0.13579049365E+01  0.13204700879E+02  0.13686244330E+02  0.00000000000E+00 0.  1.
</event>
<event>
12    1  0.1032880E+000  0.3909399E+03  0.7818608E-02  0.1047013E+00
         21   -1    0    0  503  502  0.00000000000E+00  0.00000000000E+00  0.11883706837E+04  0.11883706837E+04  0.00000000000E+00 0.  1.
         21   -1    0    0  501  503 -0.00000000000E+00 -0.00000000000E+00 -0.13305147477E+03  0.13305147477E+03  0.00000000000E+00 0.  1.
          6    2    1    2  501    0  0.17001537307E+03  0.30694059278E+03  0.65126899355E+03  0.75959549234E+03  0.17238403477E+03 0.  0.
         24    2    3    3    0    0  0.70363991043E+02  0.90183141351E+02  0.15234704917E+03  0.20654993610E+03  0.79807032852E+02 0.  0.
         -6    2    1    2    0  502 -0.17001537307E+03 -0.30694059278E+03  0.40405021535E+03  0.56182666611E+03  0.17109901123E+03 0.  0.
        -24    2    5    5    0    0 -0.16838701621E+03 -0.27923850826E+03  0.28776817597E+03  0.44218695817E+03  0.79940297389E+02 0.  0.
          5    1    3    3  501    0  0.99651382026E+02  0.21675745143E+03  0.49892194438E+03  0.55304555624E+03  0.47000000000E+01 0. -1.
        -11    1    4    4    0    0 -0.63277172934E+01 -0.40517823938E+00  0.48284761989E+02  0.48699306113E+02  0.00000000000E+00 0.  1.
         12    1    4    4    0    0  0.76691708337E+02  0.90588319590E+02  0.10406228718E+03  0.15785062998E+03  0.00000000000E+00 0. -1.
         -5    1    5    5    0  502 -0.16283568569E+01 -0.27702084519E+02  0.11628203938E+03  0.11963970794E+03  0.47000000000E+01 0.  1.
         13    1    6    6    0    0 -0.10157897655E+03 -0.12384932423E+03  0.97113960249E+02  0.18731808473E+03  0.00000000000E+00 0. -1.
        -14    1    6    6    0    0 -0.66808039660E+02 -0.15538918403E+03  0.19065421572E+03  0.25486887344E+03  0.00000000000E+00 0.  1.
</event>
<event>
12    1  0.1032880E+000  0.1865226E+03  0.7818608E-02  0.1163428E+00
         21   -1    0    0  501  502  0.00000000000E+00  0.00000000000E+00  0.30568954441E+03  0.30568954441E+03  0.00000000000E+00 0. -1.
         21   -1    0    0  502  503 -0.00000000000E+00 -0.00000000000E+00 -0.11388084839E+03  0.11388084839E+03  0.00000000000E+00 0. -1.
         -6    2    1    2    0  503 -0.12517111515E+01 -0.54894263239E+02  0.14021786446E+03  0.23334894260E+03  0.17825748955E+03 0.  0.
        -24    2    3    3    0    0 -0.62819256541E+02 -0.11349251339E+02  0.11355117525E+03  0.15322445807E+03  0.80677138359E+02 0.  0.
          6    2    1    2  501    0  0.12517111515E+01  0.54894263239E+02  0.51590831558E+02  0.18622145021E+03  0.17029934732E+03 0.  0.
         24    2    5    5    0    0  0.63725176875E+02  0.10594271337E+02  0.23624646017E+02  0.10455370421E+03  0.78741452946E+02 0.  0.
          5    1    5    5  501    0 -0.62473465723E+02  0.44299991903E+02  0.27966185541E+02  0.81667745994E+02  0.47000000000E+01 0. -1.
        -11    1    6    6    0    0  0.43331303035E+02  0.44568608600E+02  0.16225159399E+02  0.64243431515E+02  0.00000000000E+00 0.  1.
         12    1    6    6    0    0  0.20393873840E+02 -0.33974337263E+02  0.73994866174E+01  0.40310272697E+02  0.00000000000E+00 0. -1.
         -5    1    3    3    0  503  0.61567545389E+02 -0.43545011900E+02  0.26666689212E+02  0.80124484524E+02  0.47000000000E+01 0.  1.
         11    1    4    4    0    0  0.15744006614E+02 -0.18864533858E+01  0.13334488709E+01  0.15912590503E+02  0.00000000000E+00 0. -1.
        -12    1    4    4    0    0 -0.78563263155E+02 -0.94627979530E+01  0.11221772638E+03  0.13731186757E+03  0.00000000000E+00 0.  1.
</event>
<event>
12    1  0.1032880E+000  0.3615687E+03  0.7818608E-02  0.1058051E+00
         21   -1    0    0  501  502  0.00000000000E+00  0.00000000000E+00  0.57389841498E+03  0.57389841498E+03  0.00000000000E+00 0.  1.
         21   -1    0    0  502  503 -0.00000000000E+00 -0.00000000000E+00 -0.24584676241E+03  0.24584676241E+03  0.00000000000E+00 0.  1.
         -6    2    1    2    0  503 -0.30387988987E+03 -0.92551373079E+02  0.51468798430E+02  0.36521357782E+03  0.17269387969E+03 0.  0.
        -24    2    3    3    0    0 -0.25467888796E+03 -0.37481756214E+02 -0.87129114788E+01  0.26983365594E+03  0.80424306188E+02 0.  0.
          6    2    1    2  501    0  0.30387988987E+03  0.92551373079E+02  0.27658285414E+03  0.45453159957E+03  0.17085712065E+03 0.  0.
         24    2    5    5    0    0  0.22284889812E+03  0.10875775461E+03  0.14225286109E+03  0.29674913711E+03  0.79588273680E+02 0.  0.
          5    1    5    5  501    0  0.81030991750E+02 -0.16206381526E+02  0.13432999306E+03  0.15778246246E+03  0.47000000000E+01 0. -1.
        -11    1    6    6    0    0  0.77518476113E+02  0.79166432648E+02  0.75692953959E+02  0.13418592130E+03  0.00000000000E+00 0.  1.
         12    1    6    6    0    0  0.14533042201E+03  0.29591321957E+02  0.66559907128E+02  0.16256321581E+03  0.00000000000E+00 0. -1.
         -5    1    3    3    0  503 -0.49201001906E+02 -0.55069616864E+02  0.60181709909E+02  0.95379921879E+02  0.47000000000E+01 0.  1.
         13    1    4    4    0    0 -0.15741278568E+03 -0.62282573902E+02 -0.35787554800E+01  0.16932427941E+03  0.00000000000E+00 0. -1.
        -14    1    4    4    0    0 -0.97266102285E+02  0.24800817688E+02 -0.51341559988E+01  0.10050937653E+03  0.00000000000E+00 0.  1.
</event>
<event>
12    1  0.1032880E+000  0.3118192E+03  0.7818608E-02  0.1079520E+00
         21   -1    0    0  501  502  0.00000000000E+00  0.00000000000E+00  0.13268870787E+04  0.13268870787E+04  0.00000000000E+00 0. -1.
         21   -1    0    0  502  503 -0.00000000000E+00 -0.00000000000E+00 -0.10004535270E+03  0.10004535270E+03  0.00000000000E+00 0. -1.
         -6    2    1    2    0  503  0.16387230814E+03 -0.20086438436E+03  0.98278829463E+03  0.10309610860E+04  0.17264789196E+03 0.  0.
        -24    2    3    3    0    0  0.98013586753E+02 -0.14048027364E+03  0.85156745396E+03  0.87213850882E+03  0.78211760316E+02 0.  0.
          6    2    1    2  501    0 -0.16387230814E+03  0.20086438436E+03  0.24405343134E+03  0.39597134534E+03  0.17329337754E+03 0.  0.
         24    2    5    5    0    0 -0.75141901563E+02  0.19199255367E+03  0.16675009904E+03  0.27786254119E+03  0.83033428410E+02 0.  0.
          5    1    5    5  501    0 -0.88730406578E+02  0.88718306921E+01  0.77303332303E+02  0.11810880415E+03  0.47000000000E+01 0. -1.
        -11    1    6    6    0    0 -0.66801437478E+02  0.86867639869E+02  0.12000772243E+03  0.16251237598E+03  0.00000000000E+00 0.  1.
         12    1    6    6    0    0 -0.83404640846E+01  0.10512491380E+03  0.46742376614E+02  0.11535016521E+03  0.00000000000E+00 0. -1.
         -5    1    3    3    0  503  0.65858721388E+02 -0.60384110720E+02  0.13122084066E+03  0.15882257722E+03  0.47000000000E+01 0.  1.
         13    1    4    4    0    0  0.90421647593E+02 -0.13620334492E+03  0.64530571569E+03  0.66569279118E+03  0.00000000000E+00 0. -1.
        -14    1    4    4    0    0  0.75919391597E+01 -0.42769287218E+01  0.20626173827E+03  0.20644571765E+03  0.00000000000E+00 0.  1.
</event>
<event>
12    1  0.1032880E+000  0.2407058E+03  0.7818608E-02  0.1119382E+00
         21   -1    0    0  503  502  0.00000000000E+00  0.00000000000E+00  0.83775997676E+02  0.83775997676E+02  0.00000000000E+00 0.  1.
         21   -1    0    0  501  503 -0.00000000000E+00 -0.00000000000E+00 -0.73093039697E+03  0.73093039697E+03  0.00000000000E+00 0.  1.
          6    2    1    2  501    0  0.14518455313E+03 -0.84938837557E+02 -0.41904790596E+03  0.48308637623E+03  0.17169198821E+03 0.  0.
         24    2    3    3    0    0  0.10086946740E+03 -0.81201970615E+02 -0.15631171147E+03  0.21657148191E+03  0.75507921097E+02 0.  0.
         -6    2    1    2    0  502 -0.14518455313E+03  0.84938837557E+02 -0.22810649333E+03  0.33162001841E+03  0.17218043942E+03 0.  0.
        -24    2    5    5    0    0 -0.16248967431E+03  0.86016847137E+02 -0.23833584503E+03  0.31094735627E+03  0.77990326943E+02 0.  0.
          5    1    3    3  501    0  0.44315085731E+02 -0.37368669422E+01 -0.26273619450E+03  0.26651489433E+03  0.47000000000E+01 0. -1.
        -11    1    4    4    0    0 -0.12997890522E+01  0.80511386508E+01  0.16796625730E+01  0.83265570024E+01  0.00000000000E+00 0.  1.
         12    1    4    4    0    0  0.10216925646E+03 -0.89253109265E+02 -0.15799137404E+03  0.20824492491E+03  0.00000000000E+00 0. -1.
         -5    1    5    5    0  502  0.17305121179E+02 -0.10780095803E+01  0.10229351701E+02  0.20672662139E+02  0.47000000000E+01 0.  1.
         13    1    6    6    0    0 -0.94778828744E+02  0.23645331992E+02 -0.17084020656E+03  0.19679559009E+03  0.00000000000E+00 0. -1.
        -14    1    6    6    0    0 -0.67710845570E+02  0.62371515145E+02 -0.67495638471E+02  0.11415176618E+03  0.00000000000E+00 0.  1.
</event>
<event>
12    1  0.1032880E+000  0.2644699E+03  0.7818608E-02  0.1104587E+00
         21   -1    0    0  503  502  0.00000000000E+00  0.00000000000E+00  0.24977208145E+04  0.24977208145E+04  0.00000000000E+00 0. -1.
         21   -1    0    0  501  503 -0.00000000000E+00 -0.00000000000E+00 -0.41835335481E+02  0.41835335481E+02  0.00000000000E+00 0. -1.
          6    2    1    2  501    0 -0.17245464546E+03  0.10203072801E+03  0.19589112980E+04  0.19765928497E+04  0.17156615657E+03 0.  0.
         24    2    3    3    0    0 -0.11482314081E+03  0.11499810704E+03  0.10321151529E+04  0.10479041356E+04  0.80202682350E+02 0.  0.
         -6    2    1    2    0  502  0.17245464546E+03 -0.10203072801E+03  0.49697418104E+03  0.56296330024E+03  0.17260784050E+03 0.  0.
        -24    2    5    5    0    0  0.11214044791E+03 -0.13644060984E+03  0.34867509515E+03  0.39914464664E+03  0.80935819560E+02 0.  0.
          5    1    3    3  501    0 -0.57631504650E+02 -0.12967379030E+02  0.92679614508E+03  0.92868871415E+03  0.47000000000E+01 0. -1.
        -13    1    4    4    0    0 -0.11205223630E+03  0.79171225958E+02  0.66319378483E+03  0.67723687356E+03  0.00000000000E+00 0.  1.
         14    1    4    4    0    0 -0.27709045150E+01  0.35826881080E+02  0.36892136807E+03  0.37066726203E+03  0.00000000000E+00 0. -1.
         -5    1    5    5    0  502  0.60314197556E+02  0.34409881835E+02  0.14829908589E+03  0.16381865361E+03  0.47000000000E+01 0.  1.
         13    1    6    6    0    0  0.31231213915E+02 -0.22658899867E+02  0.23285314461E+02  0.45066842971E+02  0.00000000000E+00 0. -1.
        -14    1    6    6    0    0  0.80909233991E+02 -0.11378170998E+03  0.32538978069E+03  0.35407780367E+03  0.00000000000E+00 0.  1.
</event>
<event>
12    1  0.1032880E+000  0.2352454E+03  0.7818608E-02  0.1123330E+00
         21   -1    0    0  501  502  0.00000000000E+00  0.00000000000E+00  0.14504725360E+03  0.14504725360E+03  0.00000000000E+00 0. -1.
         21   -1    0    0  502  503 -0.00000000000E+00 -0.00000000000E+00 -0.38479397012E+03  0.38479397012E+03  0.00000000000E+00 0. -1.
         -6    2    1    2    0  503 -0.21078200801E+02  0.15816187130E+03 -0.85339827799E+02  0.24844842623E+03  0.17024766137E+03 0.  0.
        -24    2    3    3    0    0 -0.29395960159E+02  0.11079653401E+03 -0.11900685595E+03  0.18955683869E+03  0.92893320041E+02 0.  0.
          6    2    1    2  501    0  0.21078200801E+02 -0.15816187130E+03 -0.15440688873E+03  0.28139279749E+03  0.17286107460E+03 0.  0.
         24    2    5    5    0    0  0.47753003533E+02 -0.13277623576E+03 -0.17527175766E+03  0.23880866490E+03  0.79996945374E+02 0.  0.
          5    1    5    5  501    0 -0.26674802732E+02 -0.25385635549E+02  0.20864868935E+02  0.42584132593E+02  0.47000000000E+01 0. -1.
        -11    1    6    6    0    0  0.30159253021E+01 -0.11234545980E+03 -0.11193597801E+03  0.15861986419E+03  0.00000000000E+00 0.  1.
         12    1    6    6    0    0  0.44737078231E+02 -0.20430775956E+02 -0.63335779655E+02  0.80188800710E+02  0.00000000000E+00 0. -1.
         -5    1    3    3    0  503  0.83177593584E+01  0.47365337290E+02  0.33667028155E+02  0.58891587533E+02  0.47000000000E+01 0.  1.
         11    1    4    4    0    0  0.13155424910E+02 -0.11521243900E+02 -0.19809349395E+02  0.26423750472E+02  0.00000000000E+00 0. -1.
        -12    1    4    4    0    0 -0.42551385069E+02  0.12231777791E+03 -0.99197506558E+02  0.16313308822E+03  0.00000000000E+00 0.  1.
</event>
<event>
12    1  0.1032880E+000  0.3557068E+03  0.7818608E-02  0.1060354E+00
         21   -1    0    0  501  502  0.00000000000E+00  0.00000000000E+00  0.18097780704E+04  0.18097780704E+04  0.00000000000E+00 0.  1.
         21   -1    0    0  502  503 -0.00000000000E+00 -0.00000000000E+00 -0.70256152568E+02  0.70256152568E+02  0.00000000000E+00 0.  1.
         -6    2    1    2    0  503 -0.23040721121E+02  0.31017289532E+03  0.94610785915E+03  0.10107657708E+04  0.17259566180E+03 0.  0.
        -24    2    3    3    0    0  0.36862917611E+02  0.16425698479E+03  0.37847878332E+03  0.42160980113E+03  0.78545548815E+02 0.  0.
          6    2    1    2  501    0  0.23040721121E+02 -0.31017289532E+03  0.79341405872E+03  0.86926845220E+03  0.17141666662E+03 0.  0.
         24    2    5    5    0    0 -0.36137618965E+02 -0.26000919572E+03  0.63142325811E+03  0.68959769170E+03  0.89100707991E+02 0.  0.
          5    1    5    5  501    0  0.59178340086E+02 -0.50163699596E+02  0.16199080062E+03  0.17967076049E+03  0.47000000000E+01 0. -1.
        -11    1    6    6    0    0 -0.43040382531E+02 -0.54774671595E+02  0.20026235140E+03  0.21203242338E+03  0.00000000000E+00 0.  1.
         12    1    6    6    0    0  0.69027635660E+01 -0.20523452413E+03  0.43116090671E+03  0.47756526833E+03  0.00000000000E+00 0. -1.
         -5    1    3    3    0  503 -0.59903638732E+02  0.14591591053E+03  0.56762907583E+03  0.58915596968E+03  0.47000000000E+01 0.  1.
         11    1    4    4    0    0 -0.14519985417E+02  0.10475229801E+03  0.24215413569E+03  0.26423947348E+03  0.00000000000E+00 0. -1.
        -12    1    4    4    0    0  0.51382903028E+02  0.59504686778E+02  0.13632464763E+03  0.15737032765E+03  0.00000000000E+00 0.  1.
</event>
<event>
12    1  0.1032880E+000  0.2390423E+03  0.7818608E-02  0.1120565E+00
         21   -1    0    0  503  502  0.00000000000E+00  0.00000000000E+00  0.21620693039E+03  0.21620693039E+03  0.00000000000E+00 0. -1.
         21   -1    0    0  501  503 -0.00000000000E+00 -0.00000000000E+00 -0.29470446737E+03  0.29470446737E+03  0.00000000000E+00 0. -1.
          6    2    1    2  501    0 -0.14267285864E+03 -0.80549456957E+02  0.44042457962E+02  0.24229036739E+03  0.17297723671E+03 0.  0.
         24    2    3    3    0    0 -0.22897724522E+02 -0.63405834875E+02 -0.16649681468E+02  0.10684439175E+03  0.81202872301E+02 0.  0.
         -6    2    1    2    0  502  0.14267285864E+03  0.80549456957E+02 -0.12253999495E+03  0.26862103037E+03  0.17406162124E+03 0.  0.
        -24    2    5    5    0    0  0.11388293044E+03  0.90330862781E+01 -0.21485800689E+02  0.14143026256E+03  0.80560294460E+02 0.  0.
          5    1    3    3  501    0 -0.11977513411E+03 -0.17143622082E+02  0.60692139431E+02  0.13544597565E+03  0.47000000000E+01 0. -1.
        -13    1    4    4    0    0 -0.19321367438E+02  0.66669496902E+00  0.24047603545E+02  0.30855258192E+02  0.00000000000E+00 0.  1.
         14    1    4    4    0    0 -0.35763570842E+01 -0.64072529844E+02 -0.40697285014E+02  0.75989133553E+02  0.00000000000E+00 0. -1.
         -5    1    5    5    0  502  0.28789928200E+02  0.71516370679E+02 -0.10105419426E+03  0.12719076782E+03  0.47000000000E+01 0.  1.
         11    1    6    6    0    0  0.61998972479E+02 -0.33899961673E+02 -0.22250309217E+02  0.74082091291E+02  0.00000000000E+00 0. -1.
        -12    1    6    6    0    0  0.51883957957E+02  0.42933047951E+02  0.76450852797E+00  0.67348171266E+02  0.00000000000E+00 0.  1.
</event>
<event>
12    1  0.1032880E+000  0.2138332E+03  0.7818608E-02  0.1139603E+00
         21   -1    0    0  503  502  0.00000000000E+00  0.00000000000E+00  0.23304466141E+03  0.23304466141E+03  0.00000000000E+00 0. -1.
         21   -1    0    0  501  503 -0.00000000000E+00 -0.00000000000E+00 -0.31283673318E+03  0.31283673318E+03  0.00000000000E+00 0. -1.
          6    2    1    2  501    0  0.91135848545E+02  0.87523535940E+02 -0.21025937774E+03  0.29988940442E+03  0.17250662806E+03 0.  0.
         24    2    3    3    0    0  0.84381697922E+02  0.12405833447E+03 -0.19198210653E+03  0.25821736707E+03  0.85488818759E+02 0.  0.
         -6    2    1    2    0  502 -0.91135848545E+02 -0.87523535940E+02  0.13046730596E+03  0.24599199016E+03  0.16590427681E+03 0.  0.
        -24    2    5    5    0    0 -0.23349563670E+02  0.37237585850E+01  0.44643930739E+02  0.10348307497E+03  0.90313884596E+02 0.  0.
          5    1    3    3  501    0  0.67541506232E+01 -0.36534798530E+02 -0.18277271204E+02  0.41672037351E+02  0.47000000000E+01 0. -1.
        -13    1    4    4    0    0  0.41351214479E+02  0.12243509780E+02 -0.17454484605E+02  0.46524031462E+02  0.00000000000E+00 0.  1.
         14    1    4    4    0    0  0.43030483443E+02  0.11181482469E+03 -0.17452762193E+03  0.21169333561E+03  0.00000000000E+00 0. -1.
         -5    1    5    5    0  502 -0.67786284875E+02 -0.91247294525E+02  0.85823375225E+02  0.14250891520E+03  0.47000000000E+01 0.  1.
         13    1    6    6    0    0  0.91316171256E+01  0.13530148969E+02  0.62879621834E+02  0.64963822274E+02  0.00000000000E+00 0. -1.
        -14    1    6    6    0    0 -0.32481180796E+02 -0.98063903845E+01 -0.18235691094E+02  0.38519252692E+02  0.00000000000E+00 0.  1.
</event>
<event>
12    1  0.1032880E+000  0.1813966E+03  0.7818608E-02  0.1167254E+00
         21   -1    0    0  501  502  0.00000000000E+00  0.00000000000E+00  0.14929562562E+03  0.14929562562E+03  0.00000000000E+00 0. -1.
         21   -1    0    0  502  503 -0.00000000000E+00 -0.00000000000E+00 -0.21674071920E+03  0.21674071920E+03  0.00000000000E+00 0. -1.
         -6    2    1    2    0  503  0.74137691840E+01  0.53776744372E+02 -0.26383748951E+02  0.18005043816E+03  0.16963241396E+03 0.  0.
        -24    2    3    3    0    0 -0.11493458974E+02 -0.35869913986E+02 -0.55766285900E+02  0.83720639507E+02  0.49804783984E+02 0.  0.
          6    2    1    2  501    0 -0.74137691840E+01 -0.53776744372E+02 -0.41061344629E+02  0.18598590666E+03  0.17308327835E+03 0.  0.
         24    2    5    5    0    0  0.61801772445E+02 -0.44625202582E+02 -0.17970683539E+02  0.11229865844E+03  0.80480901076E+02 0.  0.
          5    1    5    5  501    0 -0.69215541629E+02 -0.91515417900E+01 -0.23090661090E+02  0.73687248216E+02  0.47000000000E+01 0. -1.
        -11    1    6    6    0    0  0.56789988046E+01 -0.34174992744E+02 -0.38351815241E+02  0.51682133168E+02  0.00000000000E+00 0.  1.
         12    1    6    6    0    0  0.56122773640E+02 -0.10450209838E+02  0.20381131703E+02  0.60616525273E+02  0.00000000000E+00 0. -1.
         -5    1    3    3    0  503  0.18907228158E+02  0.89646658358E+02  0.29382536949E+02  0.96329798655E+02  0.47000000000E+01 0.  1.
         13    1    4    4    0    0  0.14476469411E+02 -0.31754544924E+02 -0.39907354875E+02  0.53014302439E+02  0.00000000000E+00 0. -1.
        -14    1    4    4    0    0 -0.25969928385E+02 -0.41153690618E+01 -0.15858931025E+02  0.30706337068E+02  0.00000000000E+00 0.  1.
</event>
<event>
12    1  0.1032880E+000  0.2888332E+03  0.7818608E-02  0.1091271E+00
         21   -1    0    0  503  502  0.00000000000E+00  0.00000000000E+00  0.94690969781E+02  0.94690969781E+02  0.00000000000E+00 0. -1.
         21   -1    0    0  501  503 -0.00000000000E+00 -0.00000000000E+00 -0.97195971827E+03  0.97195971827E+03  0.00000000000E+00 0.  1.
          6    2    1    2  501    0 -0.47201689130E+02 -0.22535723555E+03 -0.27079719242E+03  0.39592393356E+03  0.17438680763E+03 0.  0.
         24    2    3    3    0    0 -0.81438574327E+02 -0.22639783739E+03 -0.22581940847E+03  0.33919353422E+03  0.78546968480E+02 0.  0.
         -6    2    1    2    0  502  0.47201689130E+02  0.22535723555E+03 -0.60647155608E+03  0.67072675449E+03  0.17044866614E+03 0.  0.
        -24    2    5    5    0    0 -0.15215255486E+02  0.15019785784E+03 -0.48968465961E+03  0.51839134751E+03  0.78406777895E+02 0.  0.
          5    1    3    3  501    0  0.34236885197E+02  0.10406018343E+01 -0.44977783949E+02  0.56730399338E+02  0.47000000000E+01 0. -1.
        -13    1    4    4    0    0 -0.82917961501E+02 -0.17724538536E+03 -0.14113963474E+03  0.24127103321E+03  0.00000000000E+00 0.  1.
         14    1    4    4    0    0  0.14793871736E+01 -0.49152452026E+02 -0.84679773729E+02  0.97922501017E+02  0.00000000000E+00 0. -1.
         -5    1    5    5    0  502  0.62416944617E+02  0.75159377713E+02 -0.11678689647E+03  0.15233540698E+03  0.47000000000E+01 0.  1.
         13    1    6    6    0    0  0.15542849925E+02  0.94336567221E+01 -0.12431366804E+03  0.12563622935E+03  0.00000000000E+00 0. -1.
        -14    1    6    6    0    0 -0.30758105411E+02  0.14076420112E+03 -0.36537099157E+03  0.39275511816E+03  0.00000000000E+00 0.  1.
</event>
<event>
12    1  0.1032880E+000  0.1997156E+03  0.7818608E-02  0.1153227E+00
         21   -1    0    0  503  502  0.00000000000E+00  0.00000000000E+00  0.98779996831E+02  0.98779996831E+02  0.00000000000E+00 0.  1.
         21   -1    0    0  501  503 -0.00000000000E+00 -0.00000000000E+00 -0.43262445973E+03  0.43262445973E+03  0.00000000000E+00 0.  1.
          6    2    1    2  501    0  0.53316556731E+02  0.42302231946E+02 -0.25870058501E+03  0.31801999884E+03  0.17198428105E+03 0.  0.
         24    2    3    3    0    0 -0.68148887639E+00  0.26151893827E+02 -0.44170097209E+02  0.96159586538E+02  0.81309794108E+02 0.  0.
         -6    2    1    2    0  502 -0.53316556731E+02 -0.42302231946E+02 -0.75143877887E+02  0.21338445772E+03  0.18776099265E+03 0.  0.
        -24    2    5    5    0    0  0.10457564096E+02 -0.48278244527E+01  0.28980274260E+02  0.85574447294E+02  0.79689781012E+02 0.  0.
          5    1    3    3  501    0  0.53998045608E+02  0.16150338119E+02 -0.21453048780E+03  0.22186041231E+03  0.47000000000E+01 0. -1.
        -11    1    4    4    0    0 -0.16559881461E+02 -0.15979911591E+02 -0.45637251005E+02  0.51111113544E+02  0.00000000000E+00 0.  1.
         12    1    4    4    0    0  0.15878392584E+02  0.42131805418E+02  0.14671537962E+01  0.45048472994E+02  0.00000000000E+00 0. -1.
         -5    1    5    5    0  502 -0.63774120827E+02 -0.37474407493E+02 -0.10412415215E+03  0.12781001042E+03  0.47000000000E+01 0.  1.
         13    1    6    6    0    0 -0.10255989145E+01 -0.20089485303E+02 -0.22787449959E+02  0.30395840974E+02  0.00000000000E+00 0. -1.
        -14    1    6    6    0    0  0.11483163011E+02  0.15261660850E+02  0.51767724219E+02  0.55178606320E+02  0.00000000000E+00 0.  1.
</event>
<event>
12    1  0.1032880E+000  0.1780734E+03  0.7818608E-02  0.1169704E+00
         21   -1    0    0  503  502  0.00000000000E+00  0.00000000000E+00  0.10744415164E+04  0.10744415164E+04  0.00000000000E+00 0.  1.
         21   -1    0    0  501  503 -0.00000000000E+00 -0.00000000000E+00 -0.32106805324E+02  0.32106805324E+02  0.00000000000E+00 0.  1.
          6    2    1    2  501    0  0.34026247917E+01 -0.44475198120E+02  0.67877512034E+03  0.70172030585E+03  0.17229655404E+03 0.  0.
         24    2    3    3    0    0  0.53153432171E+02  0.17446590481E+02  0.34008116094E+03  0.35380488671E+03  0.79956431634E+02 0.  0.
         -6    2    1    2    0  502 -0.34026247917E+01  0.44475198120E+02  0.36355959072E+03  0.40482801586E+03  0.17239641911E+03 0.  0.
        -24    2    5    5    0    0  0.16023308970E+01  0.75435914077E+02  0.13193535909E+03  0.17104287905E+03  0.78457522909E+02 0.  0.
          5    1    3    3  501    0 -0.49750807379E+02 -0.61921788601E+02  0.33869395940E+03  0.34791541914E+03  0.47000000000E+01 0. -1.
        -11    1    4    4    0    0 -0.18830197053E+02 -0.27915287816E+01  0.11666322099E+03  0.11820607466E+03  0.00000000000E+00 0.  1.
         12    1    4    4    0    0  0.71983629224E+02  0.20238119262E+02  0.22341793996E+03  0.23559881205E+03  0.00000000000E+00 0. -1.
         -5    1    5    5    0  502 -0.50049556887E+01 -0.30960715957E+02  0.23162423163E+03  0.23378513681E+03  0.47000000000E+01 0.  1.
         11    1    6    6    0    0 -0.30546267696E+02  0.50463825177E+01  0.30500626837E+02  0.43460656738E+02  0.00000000000E+00 0. -1.
        -12    1    6    6    0    0  0.32148598593E+02  0.70389531559E+02  0.10143473225E+03  0.12758222232E+03  0.00000000000E+00 0.  1.
</event>
<event>
12    1  0.1032880E+000  0.2079082E+03  0.7818608E-02  0.1143254E+00
         21   -1    0    0  501  502  0.00000000000E+00  0.00000000000E+00  0.38337129270E+03  0.38337129270E+03  0.00000000000E+00 0.  1.
         21   -1    0    0  502  503 -0.00000000000E+00 -0.00000000000E+00 -0.30984970018E+03  0.30984970018E+03  0.00000000000E+00 0.  1.
         -6    2    1    2    0  503 -0.11573399248E+03 -0.12429665774E+02  0.31324131191E+03  0.37590199387E+03  0.17214335858E+03 0.  0.
        -24    2    3    3    0    0 -0.15152981478E+03 -0.12737345395E+02  0.24902482192E+03  0.30223189718E+03  0.78785994967E+02 0.  0.
          6    2    1    2  501    0  0.11573399248E+03  0.12429665774E+02 -0.23971971940E+03  0.31731899901E+03  0.17226999058E+03 0.  0.
         24    2    5    5    0    0  0.55833810231E+02  0.57894426219E+02 -0.20551391434E+03  0.23457116897E+03  0.79488900944E+02 0.  0.
          5    1    5    5  501    0  0.59900182248E+02 -0.45464760445E+02 -0.34205805061E+02  0.82747830035E+02  0.47000000000E+01 0. -1.
        -13    1    6    6    0    0  0.12742068180E+02 -0.17685372724E+02 -0.19626300062E+02  0.29331286437E+02  0.00000000000E+00 0.  1.
         14    1    6    6    0    0  0.43091742051E+02  0.75579798943E+02 -0.18588761428E+03  0.20523988253E+03  0.00000000000E+00 0. -1.
         -5    1    3    3    0  503  0.35795822297E+02  0.30767962095E+00  0.64216489989E+02  0.73670096696E+02  0.47000000000E+01 0.  1.
         13    1    4    4    0    0 -0.10592924283E+03 -0.90686357279E+01  0.22863619102E+03  0.25214629183E+03  0.00000000000E+00 0. -1.
        -14    1    4    4    0    0 -0.45600571949E+02 -0.36687096674E+01  0.20388630903E+02  0.50085605345E+02  0.00000000000E+00 0.  1.
</event>
<event>
12    1  0.1032880E+000  0.1951537E+03  0.7818608E-02  0.1153930E+00
         21   -1    0    0  503  502  0.00000000000E+00  0.00000000000E+00  0.19091451696E+03  0.19091451696E+03  0.00000000000E+00 0.  1.
         21   -1    0    0  501  503 -0.00000000000E+00 -0.00000000000E+00 -0.21210904385E+03  0.21210904385E+03  0.00000000000E+00 0.  1.
          6    2    1    2  501    0 -0.90750469832E+02  0.13789101436E+02 -0.60090682810E+02  0.20419567604E+03  0.17221845680E+03 0.  0.
         24    2    3    3    0    0 -0.54609733378E+02  0.72937871611E+02 -0.31864689139E+02  0.12920549960E+03  0.85886824472E+02 0.  0.
         -6    2    1    2    0  502  0.90750469832E+02 -0.13789101436E+02  0.38896155924E+02  0.19882788476E+03  0.17202857240E+03 0.  0.
        -24    2    5    5    0    0  0.20823861215E+02  0.48588546032E+02  0.42286100840E+02  0.10494347060E+03  0.80190633469E+02 0.  0.
          5    1    3    3  501    0 -0.36140736453E+02 -0.59148770175E+02 -0.28225993672E+02  0.74990176446E+02  0.47000000000E+01 0. -1.
        -13    1    4    4    0    0  0.15805654764E+02  0.66921916179E+00 -0.23000183424E+02  0.27915497745E+02  0.00000000000E+00 0.  1.
         14    1    4    4    0    0 -0.70415388142E+02  0.72268652449E+02 -0.88645057144E+01  0.10129000185E+03  0.00000000000E+00 0. -1.
         -5    1    5    5    0  502  0.69926608617E+02 -0.62377647468E+02 -0.33899449159E+01  0.93884414163E+02  0.47000000000E+01 0.  1.
         13    1    6    6    0    0  0.32491994803E+02  0.33309842247E+02 -0.11408869802E+02  0.47910725594E+02  0.00000000000E+00 0. -1.
        -14    1    6    6    0    0 -0.11668133588E+02  0.15278703785E+02  0.53694970642E+02  0.57032745007E+02  0.00000000000E+00 0.  1.
</event>
<event>
12    1  0.1032880E+000  0.2936128E+03  0.7818608E-02  0.1088552E+00
         21   -1    0    0  503  502  0.00000000000E+00  0.00000000000E+00  0.18409232083E+03  0.18409232083E+03  0.00000000000E+00 0. -1.
         21   -1    0    0  501  503 -0.00000000000E+00 -0.00000000000E+00 -0.68488594561E+03  0.68488594561E+03  0.00000000000E+00 0. -1.
          6    2    1    2  501    0 -0.21896547609E+03 -0.92916568944E+02 -0.57082260568E+01  0.29366831400E+03  0.17213113111E+03 0.  0.
         24    2    3    3    0    0 -0.18915415368E+03 -0.39093939295E+02 -0.53324822529E+02  0.21572589509E+03  0.79915550226E+02 0.  0.
         -6    2    1    2    0  502  0.21896547609E+03  0.92916568944E+02 -0.49508539872E+03  0.57530995245E+03  0.17115087161E+03 0.  0.
        -24    2    5    5    0    0  0.21781890428E+03  0.69954700934E+02 -0.33568601467E+03  0.41419255535E+03  0.80818545039E+02 0.  0.
          5    1    3    3  501    0 -0.29811322401E+02 -0.53822629649E+02  0.47616596472E+02  0.77942418908E+02  0.47000000000E+01 0. -1.
        -11    1    4    4    0    0 -0.16111853238E+03 -0.12939706095E+02 -0.16352334306E+02  0.16246235351E+03  0.00000000000E+00 0.  1.
         12    1    4    4    0    0 -0.28035621305E+02 -0.26154233200E+02 -0.36972488223E+02  0.53263541580E+02  0.00000000000E+00 0. -1.
         -5    1    5    5    0  502  0.11465718092E+01  0.22961868010E+02 -0.15939938406E+03  0.16111739710E+03  0.47000000000E+01 0.  1.
         11    1    6    6    0    0  0.11968203512E+02 -0.14712296987E+02 -0.16983847886E+02  0.25458606933E+02  0.00000000000E+00 0. -1.
        -12    1    6    6    0    0  0.20585070076E+03  0.84666997921E+02 -0.31870216678E+03  0.38873394842E+03  0.00000000000E+00 0.  1.
</event>
<event>
12    1  0.1032880E+000  0.1762430E+03  0.7818608E-02  0.1172380E+00
         21   -1    0    0  503  502  0.00000000000E+00  0.00000000000E+00  0.22230130244E+03  0.22230130244E+03  0.00000000000E+00 0. -1.
         21   -1    0    0  501  503 -0.00000000000E+00 -0.00000000000E+00 -0.16904302978E+03  0.16904302978E+03  0.00000000000E+00 0. -1.
          6    2    1    2  501    0  0.21092234256E+02 -0.25990234830E+02 -0.58429845961E+02  0.18567616715E+03  0.17303530708E+03 0.  0.
         24    2    3    3    0    0  0.15121055376E+02  0.42949319176E+02  0.56007253161E+01  0.91281669734E+02  0.78915681407E+02 0.  0.
         -6    2    1    2    0  502 -0.21092234256E+02  0.25990234830E+02  0.11168811862E+03  0.20566816508E+03  0.16942486132E+03 0.  0.
        -24    2    5    5    0    0  0.38974853997E+02 -0.22752266633E+02  0.41365123349E+02  0.10101970496E+03  0.80356720194E+02 0.  0.
          5    1    3    3  501    0  0.59711788800E+01 -0.68939554006E+02 -0.64030571277E+02  0.94394497413E+02  0.47000000000E+01 0. -1.
        -13    1    4    4    0    0  0.28541735721E+02 -0.47101308117E+01  0.24872377355E+02  0.38150375693E+02  0.00000000000E+00 0.  1.
         14    1    4    4    0    0 -0.13420680345E+02  0.47659449988E+02 -0.19271652039E+02  0.53131294040E+02  0.00000000000E+00 0. -1.
         -5    1    5    5    0  502 -0.60067088253E+02  0.48742501463E+02  0.70322995272E+02  0.10464846011E+03  0.47000000000E+01 0.  1.
         11    1    6    6    0    0  0.17832121079E+02 -0.17648189412E+02  0.64535238005E+02  0.69240451155E+02  0.00000000000E+00 0. -1.
        -12    1    6    6    0    0  0.21142732918E+02 -0.51040772216E+01 -0.23170114656E+02  0.31779253809E+02  0.00000000000E+00 0.  1.
</event>
<event>
12    1  0.1032880E+000  0.2297738E+03  0.7818608E-02  0.1127045E+00
         21   -1    0    0  501  502  0.00000000000E+00  0.00000000000E+00  0.61297693080E+02  0.61297693080E+02  0.00000000000E+00 0.  1.
         21   -1    0    0  502  503 -0.00000000000E+00 -0.00000000000E+00 -0.89100872036E+03  0.89100872036E+03  0.00000000000E+00 0.  1.
         -6    2    1    2    0  503  0.54267723731E+00 -0.15197329254E+03 -0.51033305785E+03  0.55967476325E+03  0.17233639936E+03 0.  0.
        -24    2    3    3    0    0 -0.20021892056E+01 -0.13281616544E+01 -0.16658928553E+03  0.18433184962E+03  0.78869943302E+02 0.  0.
          6    2    1    2  501    0 -0.54267723731E+00  0.15197329254E+03 -0.31937796943E+03  0.39263165019E+03  0.17047330943E+03 0.  0.
         24    2    5    5    0    0  0.15787635916E+02  0.81630397922E+01 -0.13364888298E+03  0.15712060697E+03  0.80678228454E+02 0.  0.
          5    1    5    5  501    0 -0.16330313153E+02  0.14381025275E+03 -0.18572908645E+03  0.23551104322E+03  0.47000000000E+01 0. -1.
        -13    1    6    6    0    0 -0.38725505562E+01  0.26738060938E+02 -0.12620960989E+03  0.12906892027E+03  0.00000000000E+00 0.  1.
         14    1    6    6    0    0  0.19660186472E+02 -0.18575021145E+02 -0.74392730880E+01  0.28051686701E+02  0.00000000000E+00 0. -1.
         -5    1    3    3    0  503  0.25448664430E+01 -0.15064513089E+03 -0.34374377232E+03  0.37534291363E+03  0.47000000000E+01 0.  1.
         13    1    4    4    0    0 -0.17969083941E+02 -0.34923617591E+02 -0.10813071556E+03  0.11504259511E+03  0.00000000000E+00 0. -1.
        -14    1    4    4    0    0  0.15966894736E+02  0.33595455937E+02 -0.58458569973E+02  0.69289254509E+02  0.00000000000E+00 0.  1.
</event>
<event>
12    1  0.1032880E+000  0.2490494E+03  0.7818608E-02  0.1113924E+00
         21   -1    0    0  503  502  0.00000000000E+00  0.00000000000E+00  0.88778077844E+02  0.88778077844E+02  0.00000000000E+00 0.  1.
         21   -1    0    0  501  503 -0.00000000000E+00 -0.00000000000E+00 -0.10503646829E+04  0.10503646829E+04  0.00000000000E+00 0.  1.
          6    2    1    2  501    0 -0.17757554180E+03  0.28929941293E+02 -0.15113570720E+03  0.29132044046E+03  0.17220796292E+03 0.  0.
         24    2    3    3    0    0 -0.96819352434E+02  0.63274875965E+00 -0.97516019973E+01  0.12599092577E+03  0.80026447237E+02 0.  0.
         -6    2    1    2    0  502  0.17757554180E+03 -0.28929941293E+02 -0.81045089784E+03  0.84782232027E+03  0.17205235942E+03 0.  0.
        -24    2    5    5    0    0  0.12430715364E+03  0.38781483057E+02 -0.61930504285E+03  0.63810540143E+03  0.81752647443E+02 0.  0.
          5    1    3    3  501    0 -0.80756189363E+02  0.28297192533E+02 -0.14138410520E+03  0.16532951470E+03  0.47000000000E+01 0. -1.
        -11    1    4    4    0    0 -0.33374272699E+02  0.32372462388E+02  0.17940060722E+02  0.49836374045E+02  0.00000000000E+00 0.  1.
         12    1    4    4    0    0 -0.63445079736E+02 -0.31739713628E+02 -0.27691662720E+02  0.76154551722E+02  0.00000000000E+00 0. -1.
         -5    1    5    5    0  502  0.53268388159E+02 -0.67711424350E+02 -0.19114585499E+03  0.20971691884E+03  0.47000000000E+01 0.  1.
         11    1    6    6    0    0  0.39719387787E+02  0.44477929586E+02 -0.15404220047E+03  0.16518146238E+03  0.00000000000E+00 0. -1.
        -12    1    6    6    0    0  0.84587765852E+02 -0.56964465295E+01 -0.46526284238E+03  0.47292393906E+03  0.00000000000E+00 0.  1.
</event>
<event>
12    1  0.1032880E+000  0.2001716E+03  0.7818608E-02  0.1150621E+00
         21   -1    0    0  503  502  0.00000000000E+00  0.00000000000E+00  0.19026559503E+03  0.19026559503E+03  0.00000000000E+00 0. -1.
         21   -1    0    0  501  503 -0.00000000000E+00 -0.00000000000E+00 -0.21027026294E+03  0.21027026294E+03  0.00000000000E+00 0.  1.
          6    2    1    2  501    0 -0.48282366023E+02 -0.78824329432E+02 -0.40079898219E+02  0.20414475969E+03  0.17755062064E+03 0.  0.
         24    2    3    3    0    0 -0.82502359106E+01  0.33797000297E+01  0.34116746406E+02  0.86300345424E+02  0.78767432802E+02 0.  0.
         -6    2    1    2    0  502  0.48282366023E+02  0.78824329432E+02  0.20075230313E+02  0.19639109828E+03  0.17211039141E+03 0.  0.
        -24    2    5    5    0    0  0.45400420234E+02  0.87021013248E+02  0.70124086532E+02  0.14537669594E+03  0.81136559612E+02 0.  0.
          5    1    3    3  501    0 -0.40032130112E+02 -0.82204029462E+02 -0.74196644625E+02  0.11784441427E+03  0.47000000000E+01 0. -1.
        -11    1    4    4    0    0  0.14709175701E+02 -0.26364267394E+02 -0.65921579082E+01  0.30901310504E+02  0.00000000000E+00 0.  1.
         12    1    4    4    0    0 -0.22959411611E+02  0.29743967423E+02  0.40708904314E+02  0.55399034920E+02  0.00000000000E+00 0. -1.
         -5    1    5    5    0  502  0.28819457889E+01 -0.81966838156E+01 -0.50048856219E+02  0.51014402338E+02  0.47000000000E+01 0.  1.
         13    1    6    6    0    0 -0.33479597096E+01 -0.14410150532E+01  0.39731764445E+02  0.39898602287E+02  0.00000000000E+00 0. -1.
        -14    1    6    6    0    0  0.48748379944E+02  0.88462028301E+02  0.30392322087E+02  0.10547809365E+03  0.00000000000E+00 0.  1.
</event>
<event>
12    1  0.1032880E+000  0.4005554E+03  0.7818608E-02  0.1044463E+00
         21   -1    0    0  501  502  0.00000000000E+00  0.00000000000E+00  0.77386108684E+02  0.77386108684E+02  0.00000000000E+00 0.  1.
         21   -1    0    0  502  503 -0.00000000000E+00 -0.00000000000E+00 -0.22331463566E+04  0.22331463566E+04  0.00000000000E+00 0.  1.
         -6    2    1    2    0  503  0.34876126071E+03  0.38559198683E+02 -0.14208509797E+04  0.14735520422E+04  0.17151351435E+03 0.  0.
        -24    2    3    3    0    0  0.23565358809E+03  0.11571509341E+02 -0.69472410997E+03  0.73815826876E+03  0.81052620907E+02 0.  0.
          6    2    1    2  501    0 -0.34876126071E+03 -0.38559198683E+02 -0.73490926817E+03  0.83698042310E+03  0.19319256569E+03 0.  0.
         24    2    5    5    0    0 -0.87819297387E+02 -0.29284574546E+02 -0.36314083016E+03  0.38265610241E+03  0.77360292659E+02 0.  0.
          5    1    5    5  501    0 -0.26094196332E+03 -0.92746241375E+01 -0.37176843801E+03  0.45432432070E+03  0.47000000000E+01 0. -1.
        -13    1    6    6    0    0  0.12426539279E+02 -0.79149240889E+01 -0.22222042992E+02  0.26662409803E+02  0.00000000000E+00 0.  1.
         14    1    6    6    0    0 -0.10024583667E+03 -0.21369650457E+02 -0.34091878717E+03  0.35599369261E+03  0.00000000000E+00 0. -1.
         -5    1    3    3    0  503  0.11310767261E+03  0.26987689342E+02 -0.72612686974E+03  0.73539377339E+03  0.47000000000E+01 0.  1.
         11    1    4    4    0    0  0.93021622535E+02  0.13557377378E+02 -0.39767199762E+03  0.40863167086E+03  0.00000000000E+00 0. -1.
        -12    1    4    4    0    0  0.14263196556E+03 -0.19858680373E+01 -0.29705211235E+03  0.32952659790E+03  0.00000000000E+00 0.  1.
</event>
<event>
12    1  0.1032880E+000  0.1909650E+03  0.7818608E-02  0.1158036E+00
         21   -1    0    0  503  502  0.00000000000E+00  0.00000000000E+00  0.57439287439E+02  0.57439287439E+02  0.00000000000E+00 0.  1.
         21   -1    0    0  501  503 -0.00000000000E+00 -0.00000000000E+00 -0.62916980419E+03  0.62916980419E+03  0.00000000000E+00 0.  1.
          6    2    1    2  501    0 -0.40023441608E+02 -0.68167192990E+02 -0.27224028015E+03  0.33141613692E+03  0.17167773181E+03 0.  0.
         24    2    3    3    0    0 -0.77196124375E+02 -0.39890400256E+02 -0.10322820588E+03  0.15600645475E+03  0.78303676691E+02 0.  0.
         -6    2    1    2    0  502  0.40023441608E+02  0.68167192990E+02 -0.29949023661E+03  0.35519295471E+03  0.17383610435E+03 0.  0.
        -24    2    5    5    0    0  0.81606407748E+02  0.80356953297E+02 -0.17711029836E+03  0.22528270641E+03  0.79166876231E+02 0.  0.
          5    1    3    3  501    0  0.37172682767E+02 -0.28276792734E+02 -0.16901207427E+03  0.17540968217E+03  0.47000000000E+01 0. -1.
        -13    1    4    4    0    0 -0.88930177820E+01 -0.78270025090E+01  0.12902029237E+02  0.17515995318E+02  0.00000000000E+00 0.  1.
         14    1    4    4    0    0 -0.68303106593E+02 -0.32063397747E+02 -0.11613023512E+03  0.13849045943E+03  0.00000000000E+00 0. -1.
         -5    1    5    5    0  502 -0.41582966140E+02 -0.12189760307E+02 -0.12237993824E+03  0.12991024830E+03  0.47000000000E+01 0.  1.
         13    1    6    6    0    0  0.34232783221E+02  0.82580013668E+02 -0.94902007121E+02  0.13037535450E+03  0.00000000000E+00 0. -1.
        -14    1    6    6    0    0  0.47373624527E+02 -0.22230603706E+01 -0.82208291241E+02  0.94907351912E+02  0.00000000000E+00 0.  1.
</event>
<event>
12    1  0.1032880E+000  0.2104804E+03  0.7818608E-02  0.1142005E+00
         21   -1    0    0  501  502  0.00000000000E+00  0.00000000000E+00  0.49525253984E+03  0.49525253984E+03  0.00000000000E+00 0.  1.
         21   -1    0    0  502  503 -0.00000000000E+00 -0.00000000000E+00 -0.10105821333E+03  0.10105821333E+03  0.00000000000E+00 0.  1.
         -6    2    1    2    0  503 -0.75838115664E+02 -0.89701644898E+02  0.90457727176E+02  0.22909520726E+03  0.17465454102E+03 0.  0.
        -24    2    3    3    0    0 -0.10618101195E+03 -0.11035575101E+03  0.63481665327E+02  0.18330130628E+03  0.78209001860E+02 0.  0.
          6    2    1    2  501    0  0.75838115664E+02  0.89701644898E+02  0.30373659933E+03  0.36721554590E+03  0.16968656545E+03 0.  0.
         24    2    5    5    0    0  0.97471554242E+02  0.11093102063E+03  0.21058332105E+03  0.26914253578E+03  0.79284136104E+02 0.  0.
          5    1    5    5  501    0 -0.21633438578E+02 -0.21229375737E+02  0.93153278286E+02  0.98073010122E+02  0.47000000000E+01 0. -1.
        -13    1    6    6    0    0  0.26823126549E+01 -0.18474272355E+01  0.54187531605E+02  0.54285323707E+02  0.00000000000E+00 0.  1.
         14    1    6    6    0    0  0.94789241588E+02  0.11277844787E+03  0.15639578944E+03  0.21485721207E+03  0.00000000000E+00 0. -1.
         -5    1    3    3    0  503  0.30342896288E+02  0.20654106107E+02  0.26976061849E+02  0.45793900982E+02  0.47000000000E+01 0.  1.
         13    1    4    4    0    0 -0.47008358742E+01 -0.20245292679E+02  0.40685392479E+02  0.45686659921E+02  0.00000000000E+00 0. -1.
        -14    1    4    4    0    0 -0.10148017608E+03 -0.90110458326E+02  0.22796272848E+02  0.13761464636E+03  0.00000000000E+00 0.  1.
</event>
<event>
12    1  0.1032880E+000  0.3467957E+03  0.7818608E-02  0.1064033E+00
         21   -1    0    0  501  502  0.00000000000E+00  0.00000000000E+00  0.53806351074E+03  0.53806351074E+03  0.00000000000E+00 0.  1.
         21   -1    0    0  502  503 -0.00000000000E+00 -0.00000000000E+00 -0.46366411084E+03  0.46366411084E+03  0.00000000000E+00 0.  1.
         -6    2    1    2    0  503 -0.28602706148E+03  0.90119452808E+02  0.39807638774E+03  0.52735010496E+03  0.17233782827E+03 0.  0.
        -24    2    3    3    0    0 -0.97797747332E+02  0.90649624608E+02  0.17574354979E+03  0.23600059558E+03  0.83837533336E+02 0.  0.
          6    2    1    2  501    0  0.28602706148E+03 -0.90119452808E+02 -0.32367698784E+03  0.47437751661E+03  0.17416727630E+03 0.  0.
         24    2    5    5    0    0  0.14625082847E+03 -0.94822504911E+02 -0.25325604654E+03  0.31772275930E+03  0.80178016954E+02 0.  0.
          5    1    5    5  501    0  0.13977623301E+03  0.47030521027E+01 -0.70420941300E+02  0.15665475731E+03  0.47000000000E+01 0. -1.
        -11    1    6    6    0    0  0.21517414788E+02 -0.45937585798E+02 -0.35002588942E+02  0.61631502989E+02  0.00000000000E+00 0.  1.
         12    1    6    6    0    0  0.12473341368E+03 -0.48884919113E+02 -0.21825345760E+03  0.25609125631E+03  0.00000000000E+00 0. -1.
         -5    1    3    3    0  503 -0.18822931415E+03 -0.53017180006E+00  0.22233283795E+03  0.29134950938E+03  0.47000000000E+01 0.  1.
         11    1    4    4    0    0 -0.55240985548E+02  0.49433465249E+02  0.32408501775E+02  0.80904542259E+02  0.00000000000E+00 0. -1.
        -12    1    4    4    0    0 -0.42556761784E+02  0.41216159359E+02  0.14333504802E+03  0.15509605332E+03  0.00000000000E+00 0.  1.
</event>
<event>
12    1  0.1032880E+000  0.1842770E+03  0.7818608E-02  0.1163856E+00
         21   -1    0    0  501  502  0.00000000000E+00  0.00000000000E+00  0.15256893499E+03  0.15256893499E+03  0.00000000000E+00 0. -1.
         21   -1    0    0  502  503 -0.00000000000E+00 -0.00000000000E+00 -0.43009713518E+03  0.43009713518E+03  0.00000000000E+00 0. -1.
         -6    2    1    2    0  503 -0.62959562821E+02 -0.44925587806E+01  0.64031952275E+02  0.19456639039E+03  0.17254535555E+03 0.  0.
        -24    2    3    3    0    0 -0.78410249793E+02 -0.53988870880E+02  0.19373971552E+02  0.12597314086E+03  0.80192992166E+02 0.  0.
          6    2    1    2  501    0  0.62959562821E+02  0.44925587806E+01 -0.34156015246E+03  0.38809967977E+03  0.17312981850E+03 0.  0.
         24    2    5    5    0    0  0.19930795703E+01 -0.18763816452E+02 -0.76678707439E+02  0.11525899185E+03  0.83958071993E+02 0.  0.
          5    1    5    5  501    0  0.60966483251E+02  0.23256375233E+02 -0.26488144503E+03  0.27284068793E+03  0.47000000000E+01 0. -1.
        -11    1    6    6    0    0  0.29127713222E+02 -0.24562872285E+02 -0.78699822696E+02  0.87438095044E+02  0.00000000000E+00 0.  1.
         12    1    6    6    0    0 -0.27134633652E+02  0.57990558331E+01  0.20211152575E+01  0.27820896802E+02  0.00000000000E+00 0. -1.
         -5    1    3    3    0  503  0.15450686972E+02  0.49496312099E+02  0.44657980723E+02  0.68593249534E+02  0.47000000000E+01 0.  1.
         11    1    4    4    0    0 -0.33409236041E+01  0.70744518176E+00 -0.23447752622E+02  0.23695133514E+02  0.00000000000E+00 0. -1.
        -12    1    4    4    0    0 -0.75069326189E+02 -0.54696316062E+02  0.42821724173E+02  0.10227800734E+03  0.00000000000E+00 0.  1.
</event>
<event>
12    1  0.1032880E+000  0.2584625E+03  0.7818608E-02  0.1108127E+00
         21   -1    0    0  501  502  0.00000000000E+00  0.00000000000E+00  0.29352770537E+03  0.29352770537E+03  0.00000000000E+00 0.  1.
         21   -1    0    0  502  503 -0.00000000000E+00 -0.00000000000E+00 -0.28021882467E+03  0.28021882467E+03  0.00000000000E+00 0.  1.
         -6    2    1    2    0  503  0.14506116036E+03 -0.12639282180E+03 -0.11805330673E+03  0.28414689851E+03  0.17258328730E+03 0.  0.
        -24    2    3    3    0    0  0.10184171175E+03 -0.24241123409E+02 -0.11162787353E+03  0.17294318268E+03  0.80555545870E+02 0.  0.
          6    2    1    2  501    0 -0.14506116036E+03  0.12639282180E+03  0.13136218743E+03  0.28959963153E+03  0.17202917383E+03 0.  0.
         24    2    5    5    0    0 -0.10849065845E+03  0.14488666079E+03  0.58077772187E+02  0.20550373860E+03  0.78079392365E+02 0.  0.
          5    1    5    5  501    0 -0.36570501919E+02 -0.18493838984E+02  0.73284415239E+02  0.84095892931E+02  0.47000000000E+01 0. -1.
        -13    1    6    6    0    0 -0.10870509933E+03  0.10983641094E+03  0.68355237849E+02  0.16897714144E+03  0.00000000000E+00 0.  1.
         14    1    6    6    0    0  0.21444088824E+00  0.35050249847E+02 -0.10277465662E+02  0.36526597155E+02  0.00000000000E+00 0. -1.
         -5    1    3    3    0  503  0.43219448613E+02 -0.10215169839E+03 -0.64254332007E+01  0.11120371583E+03  0.47000000000E+01 0.  1.
         13    1    4    4    0    0 -0.85794680985E+01  0.12113581470E+02 -0.64935721834E+01  0.16202240850E+02  0.00000000000E+00 0. -1.
        -14    1    4    4    0    0  0.11042117985E+03 -0.36354704879E+02 -0.10513430135E+03  0.15674094183E+03  0.00000000000E+00 0.  1.
</event>
<event>
12    1  0.1032880E+000  0.2646443E+03  0.7818608E-02  0.1104779E+00
         21   -1    0    0  503  502  0.00000000000E+00  0.00000000000E+00  0.33057787611E+02  0.33057787611E+02  0.00000000000E+00 0.  1.
         21   -1    0    0  501  503 -0.00000000000E+00 -0.00000000000E+00 -0.23349100832E+04  0.23349100832E+04  0.00000000000E+00 0.  1.
          6    2    1    2  501    0  0.19442622004E+03 -0.19572525508E+02 -0.15338648112E+04  0.15565274966E+04  0.17847114573E+03 0.  0.
         24    2    3    3    0    0  0.12840655753E+03  0.36831033943E+02 -0.12505623967E+04  0.12601792127E+04  0.79376135000E+02 0.  0.
         -6    2    1    2    0  502 -0.19442622004E+03  0.19572525508E+02 -0.76798748439E+03  0.81144037421E+03  0.17448801081E+03 0.  0.
        -24    2    5    5    0    0 -0.21823210249E+03  0.19638899120E+02 -0.64120776657E+03  0.68235934812E+03  0.80348883861E+02 0.  0.
          5    1    3    3  501    0  0.66019662510E+02 -0.56403559451E+02 -0.28330241442E+03  0.29634828390E+03  0.47000000000E+01 0. -1.
        -13    1    4    4    0    0  0.23735701083E+02  0.44452563355E+02 -0.42034840911E+03  0.42335823948E+03  0.00000000000E+00 0.  1.
         14    1    4    4    0    0  0.10467085645E+03 -0.76215294118E+01 -0.83021398762E+03  0.83682097318E+03  0.00000000000E+00 0. -1.
         -5    1    5    5    0  502  0.23805882453E+02 -0.66373611676E-01 -0.12677971782E+03  0.12908102609E+03  0.47000000000E+01 0.  1.
         11    1    6    6    0    0 -0.14061298729E+03  0.54658453454E+01 -0.28922148668E+03  0.32163792689E+03  0.00000000000E+00 0. -1.
        -12    1    6    6    0    0 -0.77619115203E+02  0.14173053774E+02 -0.35198627989E+03  0.36072142123E+03  0.00000000000E+00 0.  1.
</event>
<event>
12    1  0.1032880E+000  0.2436805E+03  0.7818608E-02  0.1117604E+00
         21   -1    0    0  501  502  0.00000000000E+00  0.00000000000E+00  0.82367605813E+03  0.82367605813E+03  0.00000000000E+00 0.  1.
         21   -1    0    0  502  503 -0.00000000000E+00 -0.00000000000E+00 -0.16711334824E+03  0.16711334824E+03  0.00000000000E+00 0.  1.
         -6    2    1    2    0  503 -0.13751106526E+03  0.10015957084E+03  0.70226111770E+03  0.74286088936E+03  0.17242502953E+03 0.  0.
        -24    2    3    3    0    0 -0.12814379111E+03  0.42518856452E+02  0.32641756962E+03  0.36247863371E+03  0.81324324691E+02 0.  0.
          6    2    1    2  501    0  0.13751106526E+03 -0.10015957084E+03 -0.45698407810E+02  0.24792851701E+03  0.17446768289E+03 0.  0.
         24    2    5    5    0    0  0.13960705007E+03 -0.13379125475E+03 -0.45213813141E+02  0.21390193701E+03  0.79495417975E+02 0.  0.
          5    1    5    5  501    0 -0.20959848134E+01  0.33631683912E+02 -0.48459466883E+00  0.34026580008E+02  0.47000000000E+01 0. -1.
        -13    1    6    6    0    0  0.31537048258E+02 -0.96312078320E+01 -0.36321109566E+02  0.49056789308E+02  0.00000000000E+00 0.  1.
         14    1    6    6    0    0  0.10807000181E+03 -0.12416004692E+03 -0.88927035753E+01  0.16484514770E+03  0.00000000000E+00 0. -1.
         -5    1    3    3    0  503 -0.93672741505E+01  0.57640714389E+02  0.37584354808E+03  0.38038225565E+03  0.47000000000E+01 0.  1.
         13    1    4    4    0    0  0.38043744728E+00  0.28093180900E+02  0.65277966888E+02  0.71067464474E+02  0.00000000000E+00 0. -1.
        -14    1    4    4    0    0 -0.12852422855E+03  0.14425675552E+02  0.26113960273E+03  0.29141116923E+03  0.00000000000E+00 0.  1.
</event>
<event>
12    1  0.1032880E+000  0.1753224E+03  0.7818608E-02  0.1175311E+00
         21   -1    0    0  503  502  0.00000000000E+00  0.00000000000E+00  0.37870922518E+03  0.37870922518E+03  0.00000000000E+00 0. -1.
         21   -1    0    0  501  503 -0.00000000000E+00 -0.00000000000E+00 -0.77122369967E+02  0.77122369967E+02  0.00000000000E+00 0. -1.
          6    2    1    2  501    0 -0.24520593662E+02 -0.57519968576E+01  0.12905775808E+03  0.21770128919E+03  0.17350389451E+03 0.  0.
         24    2    3    3    0    0 -0.57089283769E+02  0.32976170509E+02  0.13071931276E+03  0.16685405439E+03  0.80038257075E+02 0.  0.
         -6    2    1    2    0  502  0.24520593662E+02  0.57519968576E+01  0.17252909714E+03  0.23813030596E+03  0.16218942098E+03 0.  0.
        -24    2    5    5    0    0 -0.29539575305E+02  0.24323283909E+02  0.47823847717E+02  0.10086820703E+03  0.80144033648E+02 0.  0.
          5    1    3    3  501    0  0.32568690107E+02 -0.38728167366E+02 -0.16615546749E+01  0.50847234800E+02  0.47000000000E+01 0. -1.
        -13    1    4    4    0    0  0.88337755667E+01 -0.70705309037E+01  0.63623448900E+02  0.64621755222E+02  0.00000000000E+00 0.  1.
         14    1    4    4    0    0 -0.65923059336E+02  0.40046701412E+02  0.67095863855E+02  0.10223229917E+03  0.00000000000E+00 0. -1.
         -5    1    5    5    0  502  0.54060168967E+02 -0.18571287051E+02  0.12470524942E+03  0.13726209894E+03  0.47000000000E+01 0.  1.
         11    1    6    6    0    0 -0.12312816298E+02 -0.16075623938E+02  0.52913578105E+02  0.56655784153E+02  0.00000000000E+00 0. -1.
        -12    1    6    6    0    0 -0.17226759008E+02  0.40398907846E+02 -0.50897303877E+01  0.44212422875E+02  0.00000000000E+00 0.  1.
</event>
<event>
12    1  0.1032880E+000  0.2046990E+03  0.7818608E-02  0.1145918E+00
         21   -1    0    0  501  502  0.00000000000E+00  0.00000000000E+00  0.41708090171E+03  0.41708090171E+03  0.00000000000E+00 0. -1.
         21   -1    0    0  502  503 -0.00000000000E+00 -0.00000000000E+00 -0.10447488441E+03  0.10447488441E+03  0.00000000000E+00 0. -1.
         -6    2    1    2    0  503  0.10069263233E+03 -0.43910758549E+02  0.20881135465E+03  0.29241043810E+03  0.17272672508E+03 0.  0.
        -24    2    3    3    0    0  0.24763296096E+02  0.33066950266E+02  0.49698089772E+02  0.99978754597E+02  0.76283728346E+02 0.  0.
          6    2    1    2  501    0 -0.10069263233E+03  0.43910758549E+02  0.10379466265E+03  0.22914534802E+03  0.17224139340E+03 0.  0.
         24    2    5    5    0    0 -0.12780580311E+03  0.61845286542E+02  0.58065700809E+02  0.17284260141E+03  0.79647827828E+02 0.  0.
          5    1    5    5  501    0  0.27113170775E+02 -0.17934527992E+02  0.45728961844E+02  0.56302746604E+02  0.47000000000E+01 0. -1.
        -11    1    6    6    0    0 -0.92377295032E+02  0.54921042787E+01  0.51626708434E+02  0.10596718771E+03  0.00000000000E+00 0.  1.
         12    1    6    6    0    0 -0.35428508074E+02  0.56353182263E+02  0.64389923754E+01  0.66875413706E+02  0.00000000000E+00 0. -1.
         -5    1    3    3    0  503  0.75929336235E+02 -0.76977708816E+02  0.15911326488E+03  0.19243168350E+03  0.47000000000E+01 0.  1.
         11    1    4    4    0    0 -0.25099302375E+02  0.29397650384E+01  0.28237575186E+02  0.37894298392E+02  0.00000000000E+00 0. -1.
        -12    1    4    4    0    0  0.49862598471E+02  0.30127185228E+02  0.21460514586E+02  0.62084456206E+02  0.00000000000E+00 0.  1.
</event>
<event>
12    1  0.1032880E+000  0.3250785E+03  0.7818608E-02  0.1073647E+00
         21   -1    0    0  501  502  0.00000000000E+00  0.00000000000E+00  0.19617688220E+03  0.19617688220E+03  0.00000000000E+00 0.  1.
         21   -1    0    0  502  503 -0.00000000000E+00 -0.00000000000E+00 -0.56210847823E+03  0.56210847823E+03  0.00000000000E+00 0.  1.
         -6    2    1    2    0  503 -0.25516008160E+03 -0.10878969332E+03 -0.26680637120E+03  0.41842972207E+03  0.16418260560E+03 0.  0.
        -24    2    3    3    0    0 -0.92236137469E+02 -0.29438355005E+02 -0.48831661733E+02  0.13492326635E+03  0.80284710969E+02 0.  0.
          6    2    1    2  501    0  0.25516008160E+03  0.10878969332E+03 -0.99125224829E+02  0.33985563835E+03  0.16951159285E+03 0.  0.
         24    2    5    5    0    0  0.13911396886E+03 -0.52358424762E+01 -0.71082576491E+02  0.17469812802E+03  0.78016619214E+02 0.  0.
          5    1    5    5  501    0  0.11604611273E+03  0.11402553580E+03 -0.28042648337E+02  0.16515751034E+03  0.47000000000E+01 0. -1.
        -13    1    6    6    0    0 -0.69326640305E+01 -0.96690194075E+01 -0.12558806149E+02  0.17299577415E+02  0.00000000000E+00 0.  1.
         14    1    6    6    0    0  0.14604663289E+03  0.44331769312E+01 -0.58523770343E+02  0.15739855060E+03  0.00000000000E+00 0. -1.
         -5    1    3    3    0  503 -0.16292394413E+03 -0.79351338317E+02 -0.21797470947E+03  0.28350645571E+03  0.47000000000E+01 0.  1.
         11    1    4    4    0    0 -0.10706913728E+03 -0.23582122293E+02 -0.40075419731E+02  0.11673026993E+03  0.00000000000E+00 0. -1.
        -12    1    4    4    0    0  0.14832999814E+02 -0.58562327113E+01 -0.87562420026E+01  0.18192996428E+02  0.00000000000E+00 0.  1.
</event>
<event>
12    1  0.1032880E+000  0.1740635E+03  0.7818608E-02  0.1173959E+00
         21   -1    0    0  501  502  0.00000000000E+00  0.00000000000E+00  0.60624880449E+03  0.60624880449E+03  0.00000000000E+00 0. -1.
         21   -1    0    0  502  503 -0.00000000000E+00 -0.00000000000E+00 -0.52001373330E+02  0.52001373330E+02  0.00000000000E+00 0. -1.
         -6    2    1    2    0  503 -0.19168036453E+02 -0.36022982465E+01  0.34617755269E+03  0.38697324271E+03  0.17184004891E+03 0.  0.
        -24    2    3    3    0    0 -0.78591225262E+02 -0.75077465710E+01  0.22434892327E+03  0.25128730813E+03  0.81116736300E+02 0.  0.
          6    2    1    2  501    0  0.19168036453E+02  0.36022982465E+01  0.20806987847E+03  0.27127693512E+03  0.17296736983E+03 0.  0.
         24    2    5    5    0    0  0.10553389145E+02 -0.10047068408E+02  0.23345277952E+02  0.85788969483E+02  0.81255323988E+02 0.  0.
          5    1    5    5  501    0  0.86146473083E+01  0.13649366655E+02  0.18472460052E+03  0.18548796563E+03  0.47000000000E+01 0. -1.
        -13    1    6    6    0    0 -0.48806980031E+01 -0.44107761111E+02  0.67887355134E+01  0.44893237053E+02  0.00000000000E+00 0.  1.
         14    1    6    6    0    0  0.15434087148E+02  0.34060692703E+02  0.16556542438E+02  0.40895732430E+02  0.00000000000E+00 0. -1.
         -5    1    3    3    0  503  0.59423188808E+02  0.39054483245E+01  0.12182862942E+03  0.13568593458E+03  0.47000000000E+01 0.  1.
         13    1    4    4    0    0  0.14102406786E+02 -0.14498286561E+02  0.38738119365E+02  0.43700344190E+02  0.00000000000E+00 0. -1.
        -14    1    4    4    0    0 -0.92693632048E+02  0.69905399901E+01  0.18561080391E+03  0.20758696394E+03  0.00000000000E+00 0.  1.
</event>
<event>
12    1  0.1032880E+000  0.2773574E+03  0.7818608E-02  0.1097263E+00
         21   -1    0    0  501  502  0.00000000000E+00  0.00000000000E+00  0.46588186648E+03  0.46588186648E+03  0.00000000000E+00 0. -1.
         21   -1    0    0  502  503 -0.00000000000E+00 -0.00000000000E+00 -0.16461981133E+03  0.16461981133E+03  0.00000000000E+00 0. -1.
         -6    2    1    2    0  503  0.78105252634E+02 -0.20351678544E+03  0.14727654299E+03  0.31403428422E+03  0.17148655663E+03 0.  0.
        -24    2    3    3    0    0  0.41477150335E+02 -0.33195964341E+02  0.87314769787E+02  0.12972936236E+03  0.79896885960E+02 0.  0.
          6    2    1    2  501    0 -0.78105252634E+02  0.20351678544E+03  0.15398551217E+03  0.31646739359E+03  0.17006046221E+03 0.  0.
         24    2    5    5    0    0 -0.65644156373E+02  0.21941372350E+03  0.16478896363E+03  0.29308372144E+03  0.79316630747E+02 0.  0.
          5    1    5    5  501    0 -0.12461096261E+02 -0.15896938065E+02 -0.10803451462E+02  0.23383672153E+02  0.47000000000E+01 0. -1.
        -11    1    6    6    0    0 -0.16901653351E+02  0.16816016804E+03  0.95756729206E+02  0.19424947668E+03  0.00000000000E+00 0.  1.
         12    1    6    6    0    0 -0.48742503022E+02  0.51253555458E+02  0.69032234424E+02  0.98834244761E+02  0.00000000000E+00 0. -1.
         -5    1    3    3    0  503  0.36628102299E+02 -0.17032082109E+03  0.59961773201E+02  0.18430492186E+03  0.47000000000E+01 0.  1.
         11    1    4    4    0    0  0.41954497272E+02 -0.10815514462E+02  0.40581278878E+01  0.43515785600E+02  0.00000000000E+00 0. -1.
        -12    1    4    4    0    0 -0.47734693694E+00 -0.22380449879E+02  0.83256641899E+02  0.86213576757E+02  0.00000000000E+00 0.  1.
</event>
<event>
12    1  0.1032880E+000  0.2218282E+03  0.7818608E-02  0.1132730E+00
         21   -1    0    0  501  502  0.00000000000E+00  0.00000000000E+00  0.48946933767E+02  0.48946933767E+02  0.00000000000E+00 0. -1.
         21   -1    0    0  502  503 -0.00000000000E+00 -0.00000000000E+00 -0.12963353005E+04  0.12963353005E+04  0.00000000000E+00 0. -1.
         -6    2    1    2    0  503 -0.12931170518E+03 -0.55337265234E+02 -0.30348275685E+03  0.37591159435E+03  0.17153429116E+03 0.  0.
        -24    2    3    3    0    0 -0.14625112478E+02 -0.63095355191E+02 -0.17719597208E+03  0.20507938277E+03  0.80400391521E+02 0.  0.
          6    2    1    2  501    0  0.12931170518E+03  0.55337265234E+02 -0.94390560986E+03  0.96937063989E+03  0.17011145502E+03 0.  0.
         24    2    5    5    0    0  0.85634942013E+02  0.48691982036E+01 -0.29995825894E+03  0.32195657904E+03  0.79523765588E+02 0.  0.
          5    1    5    5  501    0  0.43676763170E+02  0.50468067031E+02 -0.64394735092E+03  0.64741406085E+03  0.47000000000E+01 0. -1.
        -11    1    6    6    0    0  0.60047049045E+02 -0.35064655460E+02 -0.17733112044E+03  0.19047704438E+03  0.00000000000E+00 0.  1.
         12    1    6    6    0    0  0.25587892969E+02  0.39933853664E+02 -0.12262713850E+03  0.13147953465E+03  0.00000000000E+00 0. -1.
         -5    1    3    3    0  503 -0.11468659270E+03  0.77580899566E+01 -0.12628678477E+03  0.17083221158E+03  0.47000000000E+01 0.  1.
         13    1    4    4    0    0 -0.43465641148E+01 -0.25147352252E+02 -0.20806081437E+01  0.25604899436E+02  0.00000000000E+00 0. -1.
        -14    1    4    4    0    0 -0.10278548363E+02 -0.37948002939E+02 -0.17511536393E+03  0.17947448334E+03  0.00000000000E+00 0.  1.
</event>
<event>
12    1  0.1032880E+000  0.3492412E+03  0.7818608E-02  0.1063029E+00
         21   -1    0    0  501  502  0.00000000000E+00  0.00000000000E+00  0.54870864242E+03  0.54870864242E+03  0.00000000000E+00 0.  1.
         21   -1    0    0  502  503 -0.00000000000E+00 -0.00000000000E+00 -0.35962888766E+03  0.35962888766E+03  0.00000000000E+00 0.  1.
         -6    2    1    2    0  503  0.25432704749E+03  0.16596408885E+03  0.37577222584E+03  0.51232808660E+03  0.17043760361E+03 0.  0.
        -24    2    3    3    0    0  0.98615231583E+02  0.13909490186E+03  0.17859635325E+03  0.25960583281E+03  0.80163429404E+02 0.  0.
          6    2    1    2  501    0 -0.25432704749E+03 -0.16596408885E+03 -0.18669247108E+03  0.39600944348E+03  0.17246180647E+03 0.  0.
         24    2    5    5    0    0 -0.65774745683E+02 -0.24185014934E+02 -0.21648628373E+02  0.10806007929E+03  0.79354177645E+02 0.  0.
          5    1    5    5  501    0 -0.18855230181E+03 -0.14177907392E+03 -0.16504384271E+03  0.28794936419E+03  0.47000000000E+01 0. -1.
        -11    1    6    6    0    0 -0.58019458219E+02  0.13342765937E+02  0.73747265089E+01  0.59988945031E+02  0.00000000000E+00 0.  1.
         12    1    6    6    0    0 -0.77552874635E+01 -0.37527780871E+02 -0.29023354882E+02  0.48071134263E+02  0.00000000000E+00 0. -1.
         -5    1    3    3    0  503  0.15571181591E+03  0.26869186997E+02  0.19717587260E+03  0.25272225378E+03  0.47000000000E+01 0.  1.
         13    1    4    4    0    0  0.37610682796E+02  0.17277395870E+02  0.84312960277E+02  0.93924156313E+02  0.00000000000E+00 0. -1.
        -14    1    4    4    0    0  0.61004548786E+02  0.12181750599E+03  0.94283392971E+02  0.16568167650E+03  0.00000000000E+00 0.  1.
</event>
<event>
12    1  0.1032880E+000  0.2855691E+03  0.7818608E-02  0.1092738E+00
         21   -1    0    0  503  502  0.00000000000E+00  0.00000000000E+00  0.85743076970E+02  0.85743076970E+02  0.00000000000E+00 0.  1.
         21   -1    0    0  501  503 -0.00000000000E+00 -0.00000000000E+00 -0.96189476105E+03  0.96189476105E+03  0.00000000000E+00 0.  1.
          6    2    1    2  501    0 -0.20749826550E+03  0.93272652270E+02 -0.37897741646E+03  0.47428632850E+03  0.17195441655E+03 0.  0.
         24    2    3    3    0    0 -0.13123869031E+03 -0.10661683133E+02 -0.23748693032E+03  0.28281957799E+03  0.79054451482E+02 0.  0.
         -6    2    1    2    0  502  0.20749826550E+03 -0.93272652270E+02 -0.49717426762E+03  0.57335150952E+03  0.17261049573E+03 0.  0.
        -24    2    5    5    0    0  0.42239883064E+02  0.42372614501E+01 -0.19967997947E+03  0.21931272955E+03  0.80148718248E+02 0.  0.
          5    1    3    3  501    0 -0.76259575183E+02  0.10393433540E+03 -0.14149048614E+03  0.19146675051E+03  0.47000000000E+01 0. -1.
        -13    1    4    4    0    0 -0.87362652672E+02  0.22158290699E+02 -0.98970023954E+02  0.13385921175E+03  0.00000000000E+00 0.  1.
         14    1    4    4    0    0 -0.43876037642E+02 -0.32819973833E+02 -0.13851690636E+03  0.14896036624E+03  0.00000000000E+00 0. -1.
         -5    1    5    5    0  502  0.16525838243E+03 -0.97509913721E+02 -0.29749428816E+03  0.35403877997E+03  0.47000000000E+01 0.  1.
         11    1    6    6    0    0  0.35588902038E+02 -0.24595960000E+02 -0.47356662608E+02  0.64141910558E+02  0.00000000000E+00 0. -1.
        -12    1    6    6    0    0  0.66509810265E+01  0.28833221451E+02 -0.15232331686E+03  0.15517081899E+03  0.00000000000E+00 0.  1.
</event>
<event>
12    1  0.1032880E+000  0.2220103E+03  0.7818608E-02  0.1132492E+00
         21   -1    0    0  501  502  0.00000000000E+00  0.00000000000E+00  0.97781346886E+03  0.97781346886E+03  0.00000000000E+00 0. -1.
         21   -1    0    0  502  503 -0.00000000000E+00 -0.00000000000E+00 -0.52197041747E+02  0.52197041747E+02  0.00000000000E+00 0. -1.
         -6    2    1    2    0  503  0.80122311660E+02  0.11511347416E+03  0.56191834780E+03  0.60418608295E+03  0.17209850806E+03 0.  0.
        -24    2    3    3    0    0  0.43624728883E+02  0.88770734640E+02  0.17747308985E+03  0.21708627691E+03  0.76461713977E+02 0.  0.
          6    2    1    2  501    0 -0.80122311660E+02 -0.11511347416E+03  0.36369807932E+03  0.42582442766E+03  0.17140435682E+03 0.  0.
         24    2    5    5    0    0 -0.59423049266E+02 -0.51677963377E+01  0.11204140801E+03  0.15037991102E+03  0.80641401440E+02 0.  0.
          5    1    5    5  501    0 -0.20699262394E+02 -0.10994567782E+03  0.25165667131E+03  0.27544451664E+03  0.47000000000E+01 0. -1.
        -13    1    6    6    0    0 -0.83003754487E+01 -0.27357838119E+02  0.40750918958E+01  0.28878260216E+02  0.00000000000E+00 0.  1.
         14    1    6    6    0    0 -0.51122673817E+02  0.22190041782E+02  0.10796631612E+03  0.12150165080E+03  0.00000000000E+00 0. -1.
         -5    1    3    3    0  503  0.36497582777E+02  0.26342739521E+02  0.38444525794E+03  0.38709980603E+03  0.47000000000E+01 0.  1.
         11    1    4    4    0    0  0.34432714694E+02  0.24930496985E+02  0.20128363190E+02  0.47035013828E+02  0.00000000000E+00 0. -1.
        -12    1    4    4    0    0  0.91920141890E+01  0.63840237655E+02  0.15734472666E+03  0.17005126309E+03  0.00000000000E+00 0.  1.
</event>
<event>
12    1  0.1032880E+000  0.2175631E+03  0.7818608E-02  0.1138602E+00
         21   -1    0    0  501  502  0.00000000000E+00  0.00000000000E+00  0.55963949909E+03  0.55963949909E+03  0.00000000000E+00 0. -1.
         21   -1    0    0  502  503 -0.00000000000E+00 -0.00000000000E+00 -0.37895190931E+03  0.37895190931E+03  0.00000000000E+00 0.  1.
         -6    2    1    2    0  503 -0.50567016471E+02  0.95676304466E+02  0.50718592058E+03  0.54624607653E+03  0.17156992655E+03 0.  0.
        -24    2    3    3    0    0 -0.94025452231E+02  0.99347327306E+02  0.40085438483E+03  0.43122174196E+03  0.80977007797E+02 0.  0.
          6    2    1    2  501    0  0.50567016471E+02 -0.95676304466E+02 -0.32649833080E+03  0.39234533188E+03  0.18873982366E+03 0.  0.
         24    2    5    5    0    0  0.24208294606E+02 -0.38870232447E+02 -0.31427770486E+03  0.32836763471E+03  0.83413975180E+02 0.  0.
          5    1    5    5  501    0  0.26358721865E+02 -0.56806072019E+02 -0.12220625948E+02  0.63977697170E+02  0.47000000000E+01 0. -1.
        -13    1    6    6    0    0  0.26516139507E+02  0.52297171219E+01 -0.24314114643E+03  0.24463865738E+03  0.00000000000E+00 0.  1.
         14    1    6    6    0    0 -0.23078449007E+01 -0.44099949569E+02 -0.71136558422E+02  0.83728977327E+02  0.00000000000E+00 0. -1.
         -5    1    3    3    0  503  0.43458435760E+02 -0.36710228401E+01  0.10633153576E+03  0.11502433457E+03  0.47000000000E+01 0.  1.
         13    1    4    4    0    0 -0.60293800198E+02  0.10194023779E+03  0.35501633456E+03  0.37425092148E+03  0.00000000000E+00 0. -1.
        -14    1    4    4    0    0 -0.33731652033E+02 -0.25929104862E+01  0.45838050264E+02  0.56970820476E+02  0.00000000000E+00 0.  1.
</event>
<event>
12    1  0.1032880E+000  0.1887421E+03  0.7818608E-02  0.1159682E+00
         21   -1    0    0  501  502  0.00000000000E+00  0.00000000000E+00  0.60599210223E+03  0.60599210223E+03  0.00000000000E+00 0. -1.
         21   -1    0    0  502  503 -0.00000000000E+00 -0.00000000000E+00 -0.58677522083E+02  0.58677522083E+02  0.00000000000E+00 0. -1.
         -6    2    1    2    0  503  0.23106279387E+02 -0.74815440170E+02  0.27613807485E+03  0.33447840098E+03  0.17173326441E+03 0.  0.
        -24    2    3    3    0    0  0.61725261304E+02 -0.38514067272E+01  0.10492470211E+03  0.14510198003E+03  0.78870465188E+02 0.  0.
          6    2    1    2  501    0 -0.23106279387E+02  0.74815440170E+02  0.27117650529E+03  0.33019122333E+03  0.17134262956E+03 0.  0.
         24    2    5    5    0    0 -0.25912471569E+00  0.52510731436E+02  0.51759331588E+02  0.10841322932E+03  0.79479279214E+02 0.  0.
          5    1    5    5  501    0 -0.22847154671E+02  0.22304708734E+02  0.21941717370E+03  0.22177799400E+03  0.47000000000E+01 0. -1.
        -13    1    6    6    0    0 -0.24162418456E+01  0.71602588376E+02  0.25864987912E+02  0.76169327727E+02  0.00000000000E+00 0.  1.
         14    1    6    6    0    0  0.21571171299E+01 -0.19091856940E+02  0.25894343676E+02  0.32243901596E+02  0.00000000000E+00 0. -1.
         -5    1    3    3    0  503 -0.38618981917E+02 -0.70964033443E+02  0.17121337274E+03  0.18937642095E+03  0.47000000000E+01 0.  1.
         11    1    4    4    0    0  0.45730490661E+02 -0.14055438125E+02  0.10749282279E+02  0.49034479568E+02  0.00000000000E+00 0. -1.
        -12    1    4    4    0    0  0.15994770643E+02  0.10204031398E+02  0.94175419833E+02  0.96067500464E+02  0.00000000000E+00 0.  1.
</event>
<event>
12    1  0.1032880E+000  0.2460639E+03  0.7818608E-02  0.1116024E+00
         21   -1    0    0  501  502  0.00000000000E+00  0.00000000000E+00  0.37378778505E+03  0.37378778505E+03  0.00000000000E+00 0.  1.
         21   -1    0    0  502  503 -0.00000000000E+00 -0.00000000000E+00 -0.57833093058E+03  0.57833093058E+03  0.00000000000E+00 0.  1.
         -6    2    1    2    0  503  0.15845399178E+03 -0.76082297603E+02  0.30198525850E+03  0.38954146419E+03  0.17219544842E+03 0.  0.
        -24    2    3    3    0    0  0.26971240354E+02 -0.32226178170E+02  0.19291221668E+03  0.21310424707E+03  0.80201760639E+02 0.  0.
          6    2    1    2  501    0 -0.15845399178E+03  0.76082297603E+02 -0.50652840403E+03  0.56257725144E+03  0.17037005672E+03 0.  0.
         24    2    5    5    0    0 -0.16732102185E+03  0.58842579789E+02 -0.33947015622E+03  0.39433225076E+03  0.93803856397E+02 0.  0.
          5    1    5    5  501    0  0.88670300715E+01  0.17239717814E+02 -0.16705824780E+03  0.16824500067E+03  0.47000000000E+01 0. -1.
        -11    1    6    6    0    0 -0.33713759763E+02  0.35348495676E+02 -0.32358414022E+02  0.58593520989E+02  0.00000000000E+00 0.  1.
         12    1    6    6    0    0 -0.13360726209E+03  0.23494084113E+02 -0.30711174220E+03  0.33573872977E+03  0.00000000000E+00 0. -1.
         -5    1    3    3    0  503  0.13148275143E+03 -0.43856119433E+02  0.10907304182E+03  0.17643721712E+03  0.47000000000E+01 0.  1.
         13    1    4    4    0    0  0.12627865121E+02  0.83279006635E+01  0.15508786656E+03  0.15582382122E+03  0.00000000000E+00 0. -1.
        -14    1    4    4    0    0  0.14343375233E+02 -0.40554078834E+02  0.37824350121E+02  0.57280425847E+02  0.00000000000E+00 0.  1.
</event>
<event>
12    1  0.1032880E+000  0.2917186E+03  0.7818608E-02  0.1089715E+00
         21   -1    0    0  503  502  0.00000000000E+00  0.00000000000E+00  0.14776171338E+03  0.14776171338E+03  0.00000000000E+00 0. -1.
         21   -1    0    0  501  503 -0.00000000000E+00 -0.00000000000E+00 -0.84198184380E+03  0.84198184380E+03  0.00000000000E+00 0. -1.
          6    2    1    2  501    0 -0.22889244694E+03  0.52943302257E+02 -0.66065511344E+02  0.29715568794E+03  0.16953496855E+03 0.  0.
         24    2    3    3    0    0 -0.44461396008E+02  0.49666456191E+02 -0.15845445539E+02  0.10592364230E+03  0.80778507341E+02 0.  0.
         -6    2    1    2    0  502  0.22889244694E+03 -0.52943302257E+02 -0.62815461907E+03  0.69258786924E+03  0.17293058041E+03 0.  0.
        -24    2    5    5    0    0  0.14427779498E+03 -0.10099720587E+03 -0.41251948395E+03  0.45596703653E+03  0.81957891854E+02 0.  0.
          5    1    3    3  501    0 -0.18443105093E+03  0.32768460660E+01 -0.50220065805E+02  0.19123204564E+03  0.47000000000E+01 0. -1.
        -11    1    4    4    0    0 -0.64539068574E+02  0.37759592980E+02  0.45695716183E+01  0.74913011014E+02  0.00000000000E+00 0.  1.
         12    1    4    4    0    0  0.20077672566E+02  0.11906863211E+02 -0.20415017158E+02  0.31010631286E+02  0.00000000000E+00 0. -1.
         -5    1    5    5    0  502  0.84614651964E+02  0.48053903618E+02 -0.21563513512E+03  0.23662083272E+03  0.47000000000E+01 0.  1.
         11    1    6    6    0    0  0.18421571829E+02 -0.41676791400E+02 -0.49918894548E+02  0.67588499635E+02  0.00000000000E+00 0. -1.
        -12    1    6    6    0    0  0.12585622315E+03 -0.59320414475E+02 -0.36260058941E+03  0.38837853689E+03  0.00000000000E+00 0.  1.
</event>
<event>
12    1  0.1032880E+000  0.2506969E+03  0.7818608E-02  0.1112878E+00
         21   -1    0    0  503  502  0.00000000000E+00  0.00000000000E+00  0.27848709551E+03  0.27848709551E+03  0.00000000000E+00 0.  1.
         21   -1    0    0  501  503 -0.00000000000E+00 -0.00000000000E+00 -0.22611640309E+03  0.22611640309E+03  0.00000000000E+00 0.  1.
          6    2    1    2  501    0  0.18144162537E+03 -0.90792294793E+01  0.38151751160E+02  0.25350369033E+03  0.17264144655E+03 0.  0.
         24    2    3    3    0    0  0.72129331353E+02  0.57752242227E+02  0.23966282830E+02  0.12451167218E+03  0.79942553574E+02 0.  0.
         -6    2    1    2    0  502 -0.18144162537E+03  0.90792294793E+01  0.14218941260E+02  0.25109980828E+03  0.17275832715E+03 0.  0.
        -24    2    5    5    0    0 -0.25955788449E+02  0.55557718091E+01  0.40269693559E+02  0.93337354144E+02  0.79910224032E+02 0.  0.
          5    1    3    3  501    0  0.10931229402E+03 -0.66831471707E+02  0.14185468329E+02  0.12899201815E+03  0.47000000000E+01 0. -1.
        -11    1    4    4    0    0 -0.15904605668E+02  0.19353234821E+02  0.11833128182E+02  0.27704279490E+02  0.00000000000E+00 0.  1.
         12    1    4    4    0    0  0.88033937020E+02  0.38399007406E+02  0.12133154648E+02  0.96807392687E+02  0.00000000000E+00 0. -1.
         -5    1    5    5    0  502 -0.15548583692E+03  0.35234576702E+01 -0.26050752300E+02  0.15776245413E+03  0.47000000000E+01 0.  1.
         11    1    6    6    0    0 -0.25846392441E+02  0.15256531588E+02  0.62362168539E+02  0.69208654251E+02  0.00000000000E+00 0. -1.
        -12    1    6    6    0    0 -0.10939600839E+00 -0.97007597792E+01 -0.22092474980E+02  0.24128699893E+02  0.00000000000E+00 0.  1.
</event>
<event>
12    1  0.1032880E+000  0.3007147E+03  0.7818608E-02  0.1085143E+00
         21   -1    0    0  501  502  0.00000000000E+00  0.00000000000E+00  0.50302180356E+02  0.50302180356E+02  0.00000000000E+00 0. -1.
         21   -1    0    0  502  503 -0.00000000000E+00 -0.00000000000E+00 -0.24132194293E+04  0.24132194293E+04  0.00000000000E+00 0. -1.
         -6    2    1    2    0  503  0.10729978712E+03  0.22157177850E+03 -0.55619489419E+03  0.63228323816E+03  0.17269057762E+03 0.  0.
        -24    2    3    3    0    0  0.56879680041E+02  0.12258795201E+03 -0.45666899476E+03  0.48306031848E+03  0.80855405073E+02 0.  0.
          6    2    1    2  501    0 -0.10729978712E+03 -0.22157177850E+03 -0.18067223548E+04  0.18312383715E+04  0.16905918700E+03 0.  0.
         24    2    5    5    0    0 -0.82186323164E+02 -0.18367216310E+03 -0.99743057693E+03  0.10206568897E+04  0.79891648781E+02 0.  0.
          5    1    5    5  501    0 -0.25113463957E+02 -0.37899615399E+02 -0.80929177785E+03  0.81058148179E+03  0.47000000000E+01 0. -1.
        -11    1    6    6    0    0 -0.89653219854E+02 -0.12894151892E+03 -0.81712499801E+03  0.83207985043E+03  0.00000000000E+00 0.  1.
         12    1    6    6    0    0  0.74668966899E+01 -0.54730644180E+02 -0.18030557892E+03  0.18857703930E+03  0.00000000000E+00 0. -1.
         -5    1    3    3    0  503  0.50420107081E+02  0.98983826483E+02 -0.99525899422E+02  0.14922291968E+03  0.47000000000E+01 0.  1.
         13    1    4    4    0    0  0.16382056813E+02 -0.75113728878E+01 -0.92409799817E+02  0.94150749388E+02  0.00000000000E+00 0. -1.
        -14    1    4    4    0    0  0.40497623228E+02  0.13009932490E+03 -0.36425919495E+03  0.38890956909E+03  0.00000000000E+00 0.  1.
</event>
<event>
12    1  0.1032880E+000  0.2012517E+03  0.7818608E-02  0.1148737E+00
         21   -1    0    0  503  502  0.00000000000E+00  0.00000000000E+00  0.51720201200E+03  0.51720201200E+03  0.00000000000E+00 0. -1.
         21   -1    0    0  501  503 -0.00000000000E+00 -0.00000000000E+00 -0.87618982656E+02  0.87618982656E+02  0.00000000000E+00 0. -1.
          6    2    1    2  501    0 -0.20696565738E+02  0.10311727639E+03  0.31373875105E+03  0.37260955668E+03  0.17130194773E+03 0.  0.
         24    2    3    3    0    0  0.41585907430E+02  0.10156602477E+03  0.24493941589E+03  0.27967435687E+03  0.78596331653E+02 0.  0.
         -6    2    1    2    0  502  0.20696565738E+02 -0.10311727639E+03  0.11584427829E+03  0.23221143797E+03  0.17158302535E+03 0.  0.
        -24    2    5    5    0    0  0.79723228527E+01  0.86437463098E+01  0.82644927974E+02  0.11483716731E+03  0.78861388492E+02 0.  0.
          5    1    3    3  501    0 -0.62282473169E+02  0.15512516163E+01  0.68799335162E+02  0.92935199813E+02  0.47000000000E+01 0. -1.
        -11    1    4    4    0    0  0.22229722135E+02  0.11108891381E+03  0.20114825767E+03  0.23085824413E+03  0.00000000000E+00 0.  1.
         12    1    4    4    0    0  0.19356185295E+02 -0.95228890421E+01  0.43791158224E+02  0.48816112745E+02  0.00000000000E+00 0. -1.
         -5    1    5    5    0  502  0.12724242886E+02 -0.11176102270E+03  0.33199350319E+02  0.11737427066E+03  0.47000000000E+01 0.  1.
         11    1    6    6    0    0 -0.35262280905E+02  0.64432535922E+01  0.44473286115E+02  0.57121074476E+02  0.00000000000E+00 0. -1.
        -12    1    6    6    0    0  0.43234603757E+02  0.22004927177E+01  0.38171641859E+02  0.57716092838E+02  0.00000000000E+00 0.  1.
</event>
<event>
12    1  0.1032880E+000  0.3604177E+03  0.7818608E-02  0.1058459E+00
         21   -1    0    0  501  502  0.00000000000E+00  0.00000000000E+00  0.12629110071E+03  0.12629110071E+03  0.00000000000E+00 0. -1.
         21   -1    0    0  502  503 -0.00000000000E+00 -0.00000000000E+00 -0.10320691975E+04  0.10320691975E+04  0.00000000000E+00 0. -1.
         -6    2    1    2    0  503  0.26385201010E+03  0.17417647595E+03 -0.41381317980E+03  0.54849931435E+03  0.17220575501E+03 0.  0.
        -24    2    3    3    0    0  0.11720466341E+03  0.11348411920E+03 -0.12933856969E+03  0.22271272737E+03  0.79100663010E+02 0.  0.
          6    2    1    2  501    0 -0.26385201010E+03 -0.17417647595E+03 -0.49196491699E+03  0.60986098386E+03  0.17304800510E+03 0.  0.
         24    2    5    5    0    0 -0.12328385183E+03 -0.11071597718E+03 -0.16015504750E+03  0.24392858365E+03  0.79966111324E+02 0.  0.
          5    1    5    5  501    0 -0.14056815827E+03 -0.63460498777E+02 -0.33180986949E+03  0.36593240020E+03  0.47000000000E+01 0. -1.
        -13    1    6    6    0    0 -0.13292929920E+03 -0.11249706781E+03 -0.15267639444E+03  0.23159419309E+03  0.00000000000E+00 0.  1.
         14    1    6    6    0    0  0.96454473792E+01  0.17810906356E+01 -0.74786530595E+01  0.12334390564E+02  0.00000000000E+00 0. -1.
         -5    1    3    3    0  503  0.14664734669E+03  0.60692356755E+02 -0.28447461011E+03  0.32578658698E+03  0.47000000000E+01 0.  1.
         13    1    4    4    0    0  0.11047006986E+03  0.11626774306E+03 -0.13786867477E+03  0.21149372542E+03  0.00000000000E+00 0. -1.
        -14    1    4    4    0    0  0.67345935510E+01 -0.27836238592E+01  0.85301050790E+01  0.11219001950E+02  0.00000000000E+00 0.  1.
</event>
<event>
12    1  0.1032880E+000  0.1803283E+03  0.7818608E-02  0.1168061E+00
         21   -1    0    0  503  502  0.00000000000E+00  0.00000000000E+00  0.39106049869E+03  0.39106049869E+03  0.00000000000E+00 0. -1.
         21   -1    0    0  501  503 -0.00000000000E+00 -0.00000000000E+00 -0.82068759416E+02  0.82068759416E+02  0.00000000000E+00 0. -1.
          6    2    1    2  501    0  0.45959018420E+02 -0.13567743512E+02  0.15665319471E+03  0.23886922481E+03  0.17384466662E+03 0.  0.
         24    2    3    3    0    0  0.99327443352E+02 -0.21055445077E+02  0.11351030366E+03  0.16967635305E+03  0.74807773511E+02 0.  0.
         -6    2    1    2    0  502 -0.45959018420E+02  0.13567743512E+02  0.15233854456E+03  0.23426003329E+03  0.17138966130E+03 0.  0.
        -24    2    5    5    0    0  0.34582705023E+02 -0.60003478795E+01  0.44634916997E+02  0.98274589927E+02  0.80210046433E+02 0.  0.
          5    1    3    3  501    0 -0.53368424932E+02  0.74877015648E+01  0.43142891047E+02  0.69192871760E+02  0.47000000000E+01 0. -1.
        -11    1    4    4    0    0  0.19388684430E+02  0.39255770992E+01 -0.86279393007E+01  0.21581764897E+02  0.00000000000E+00 0.  1.
         12    1    4    4    0    0  0.79938758923E+02 -0.24981022176E+02  0.12213824297E+03  0.14809458816E+03  0.00000000000E+00 0. -1.
         -5    1    5    5    0  502 -0.80541723443E+02  0.19568091391E+02  0.10770362756E+03  0.13598544336E+03  0.47000000000E+01 0.  1.
         11    1    6    6    0    0  0.18967146288E+02  0.22243249035E+02 -0.13176876010E+02  0.32064697525E+02  0.00000000000E+00 0. -1.
        -12    1    6    6    0    0  0.15615558735E+02 -0.28243596915E+02  0.57811793007E+02  0.66209892403E+02  0.00000000000E+00 0.  1.
</event>
<event>
12    1  0.1032880E+000  0.2199265E+03  0.7818608E-02  0.1134024E+00
         21   -1    0    0  501  502  0.00000000000E+00  0.00000000000E+00  0.13843945621E+03  0.13843945621E+03  0.00000000000E+00 0. -1.
         21   -1    0    0  502  503 -0.00000000000E+00 -0.00000000000E+00 -0.35351391100E+03  0.35351391100E+03  0.00000000000E+00 0. -1.
         -6    2    1    2    0  503 -0.87519441329E+02  0.10610006305E+03 -0.13629719976E+03  0.25834361647E+03  0.17101936008E+03 0.  0.
        -24    2    3    3    0    0 -0.19683012788E+02  0.24831603824E+02 -0.12735589764E+03  0.15200274764E+03  0.76689510912E+02 0.  0.
          6    2    1    2  501    0  0.87519441329E+02 -0.10610006305E+03 -0.78777255032E+02  0.23360975073E+03  0.17161230649E+03 0.  0.
         24    2    5    5    0    0  0.11899216510E+03 -0.99945156029E+02 -0.32376408871E+02  0.17700989432E+03  0.78333270501E+02 0.  0.
          5    1    5    5  501    0 -0.31472723767E+02 -0.61549070168E+01 -0.46400846161E+02  0.56599856415E+02  0.47000000000E+01 0. -1.
        -13    1    6    6    0    0  0.54148756091E+02 -0.39027585094E+02  0.24851685063E+02  0.71223917576E+02  0.00000000000E+00 0.  1.
         14    1    6    6    0    0  0.64843409005E+02 -0.60917570935E+02 -0.57228093933E+02  0.10578597674E+03  0.00000000000E+00 0. -1.
         -5    1    3    3    0  503 -0.67836428541E+02  0.81268459222E+02 -0.89413021199E+01  0.10634086884E+03  0.47000000000E+01 0.  1.
         11    1    4    4    0    0 -0.43837087227E+02  0.72357267122E+01 -0.10696373199E+03  0.11582437532E+03  0.00000000000E+00 0. -1.
        -12    1    4    4    0    0  0.24154074439E+02  0.17595877112E+02 -0.20392165653E+02  0.36178372315E+02  0.00000000000E+00 0.  1.
</event>
<event>
12    1  0.1032880E+000  0.2577247E+03  0.7818608E-02  0.1108745E+00
         21   -1    0    0  503  502  0.00000000000E+00  0.00000000000E+00  0.57298183604E+02  0.57298183604E+02  0.00000000000E+00 0.  1.
         21   -1    0    0  501  503 -0.00000000000E+00 -0.00000000000E+00 -0.12414331033E+04  0.12414331033E+04  0.00000000000E+00 0.  1.
          6    2    1    2  501    0 -0.13139149421E+03  0.14278238458E+03 -0.76422497034E+03  0.80603826984E+03  0.16735397537E+03 0.  0.
         24    2    3    3    0    0 -0.79952475651E+02  0.10840556986E+03 -0.69753600597E+03  0.71494904991E+03  0.80321220110E+02 0.  0.
         -6    2    1    2    0  502  0.13139149421E+03 -0.14278238458E+03 -0.41990994937E+03  0.49269301707E+03  0.16962166546E+03 0.  0.
        -24    2    5    5    0    0  0.10272287669E+03 -0.11935524974E+03 -0.17690144538E+03  0.24683544999E+03  0.69541016385E+02 0.  0.
          5    1    3    3  501    0 -0.51439018555E+02  0.34376814720E+02 -0.66688964362E+02  0.91089219932E+02  0.47000000000E+01 0. -1.
        -11    1    4    4    0    0 -0.60318718685E+01  0.32395712894E+02 -0.58202977465E+02  0.66883871583E+02  0.00000000000E+00 0.  1.
         12    1    4    4    0    0 -0.73920603782E+02  0.76009856969E+02 -0.63933302851E+03  0.64806517833E+03  0.00000000000E+00 0. -1.
         -5    1    5    5    0  502  0.28668617514E+02 -0.23427134847E+02 -0.24300850400E+03  0.24585756708E+03  0.47000000000E+01 0.  1.
         13    1    6    6    0    0  0.78586555629E+02 -0.39311246104E+02 -0.10150816192E+03  0.13425769152E+03  0.00000000000E+00 0. -1.
        -14    1    6    6    0    0  0.24136321063E+02 -0.80044003631E+02 -0.75393283464E+02  0.11257775848E+03  0.00000000000E+00 0.  1.
</event>
<event>
12    1  0.1032880E+000  0.1795303E+03  0.7818608E-02  0.1168362E+00
         21   -1    0    0  503  502  0.00000000000E+00  0.00000000000E+00  0.17578777393E+03  0.17578777393E+03  0.00000000000E+00 0. -1.
         21   -1    0    0  501  503 -0.00000000000E+00 -0.00000000000E+00 -0.18586944022E+03  0.18586944022E+03  0.00000000000E+00 0. -1.
          6    2    1    2  501    0 -0.35318528104E+02  0.37923960905E+02  0.17740504235E+02  0.18040471493E+03  0.17188807533E+03 0.  0.
         24    2    3    3    0    0 -0.24868377142E+02 -0.45617471360E+02  0.69448257059E+01  0.95392873200E+02  0.79700563225E+02 0.  0.
         -6    2    1    2    0  502  0.35318528104E+02 -0.37923960905E+02 -0.27822170526E+02  0.18125249922E+03  0.17144319777E+03 0.  0.
        -24    2    5    5    0    0 -0.18807379553E+02 -0.66959185001E+02 -0.47978729879E+02  0.11643710750E+03  0.80114864420E+02 0.  0.
          5    1    3    3  501    0 -0.10450150962E+02  0.83541432265E+02  0.10795678529E+02  0.85011841734E+02  0.47000000000E+01 0. -1.
        -11    1    4    4    0    0  0.25224572800E+02 -0.18524991622E+02 -0.14560686228E+02  0.34517647239E+02  0.00000000000E+00 0.  1.
         12    1    4    4    0    0 -0.50092949942E+02 -0.27092479738E+02  0.21505511934E+02  0.60875225961E+02  0.00000000000E+00 0. -1.
         -5    1    5    5    0  502  0.54125907657E+02  0.29035224096E+02  0.20156559353E+02  0.64815391713E+02  0.47000000000E+01 0.  1.
         11    1    6    6    0    0 -0.42315795500E+02 -0.19899072195E+02 -0.43120706697E+02  0.63608136029E+02  0.00000000000E+00 0. -1.
        -12    1    6    6    0    0  0.23508415947E+02 -0.47060112806E+02 -0.48580231818E+01  0.52828971473E+02  0.00000000000E+00 0.  1.
</event>
<event>
12    1  0.1032880E+000  0.2817691E+03  0.7818608E-02  0.1094740E+00
         21   -1    0    0  501  502  0.00000000000E+00  0.00000000000E+00  0.93467749615E+02  0.93467749615E+02  0.00000000000E+00 0.  1.
         21   -1    0    0  502  503 -0.00000000000E+00 -0.00000000000E+00 -0.10786231437E+04  0.10786231437E+04  0.00000000000E+00 0. -1.
         -6    2    1    2    0  503  0.17738028230E+03 -0.13458698166E+03 -0.76296276749E+03  0.81333021015E+03  0.17267433507E+03 0.  0.
        -24    2    3    3    0    0  0.10114048380E+03 -0.15262892436E+03 -0.48449045546E+03  0.52400869844E+03  0.79555820631E+02 0.  0.
          6    2    1    2  501    0 -0.17738028230E+03  0.13458698166E+03 -0.22219262664E+03  0.35876068320E+03  0.17251737390E+03 0.  0.
         24    2    5    5    0    0 -0.20278188525E+03  0.10356490328E+03 -0.19649186886E+03  0.31090433849E+03  0.78779889484E+02 0.  0.
          5    1    5    5  501    0  0.25401602944E+02  0.31022078379E+02 -0.25700757775E+02  0.47856344712E+02  0.47000000000E+01 0. -1.
        -13    1    6    6    0    0 -0.57386837102E+02  0.24637651621E+02 -0.12900212755E+02  0.63770513869E+02  0.00000000000E+00 0.  1.
         14    1    6    6    0    0 -0.14539504814E+03  0.78927251662E+02 -0.18359165611E+03  0.24713382462E+03  0.00000000000E+00 0. -1.
         -5    1    3    3    0  503  0.76239798498E+02  0.18041942698E+02 -0.27847231203E+03  0.28932151171E+03  0.47000000000E+01 0.  1.
         11    1    4    4    0    0  0.33066158429E+02 -0.90974359282E+01 -0.14776270510E+03  0.15169031344E+03  0.00000000000E+00 0. -1.
        -12    1    4    4    0    0  0.68074325375E+02 -0.14353148843E+03 -0.33672775036E+03  0.37231838500E+03  0.00000000000E+00 0.  1.
</event>
<event>
12    1  0.1032880E+000  0.1811171E+03  0.7818608E-02  0.1166913E+00
         21   -1    0    0  503  502  0.00000000000E+00  0.00000000000E+00  0.12199041834E+04  0.12199041834E+04  0.00000000000E+00 0. -1.
         21   -1    0    0  501  503 -0.00000000000E+00 -0.00000000000E+00 -0.30578722756E+02  0.30578722756E+02  0.00000000000E+00 0. -1.
          6    2    1    2  501    0 -0.12934134010E+02 -0.53565117047E+02  0.81406053451E+03  0.83379696920E+03  0.17171580713E+03 0.  0.
         24    2    3    3    0    0 -0.38092611436E+02 -0.83850522265E+02  0.73985717073E+03  0.74966383690E+03  0.78264156154E+02 0.  0.
         -6    2    1    2    0  502  0.12934134010E+02  0.53565117047E+02  0.37526492611E+03  0.41668593693E+03  0.17253084269E+03 0.  0.
        -24    2    5    5    0    0  0.16099400001E+02  0.10317636436E+03  0.25926181999E+03  0.29039221025E+03  0.78780655162E+02 0.  0.
          5    1    3    3  501    0  0.25158477426E+02  0.30285405218E+02  0.74203363778E+02  0.84133132305E+02  0.47000000000E+01 0. -1.
        -13    1    4    4    0    0 -0.36211691251E+02 -0.31413683065E+02  0.14992264106E+03  0.15740045860E+03  0.00000000000E+00 0.  1.
         14    1    4    4    0    0 -0.18809201848E+01 -0.52436839199E+02  0.58993452968E+03  0.59226337830E+03  0.00000000000E+00 0. -1.
         -5    1    5    5    0  502 -0.31652659910E+01 -0.49611247310E+02  0.11600310612E+03  0.12629372667E+03  0.47000000000E+01 0.  1.
         11    1    6    6    0    0  0.24795347279E+02  0.71158757306E+02  0.24103099269E+03  0.25253577455E+03  0.00000000000E+00 0. -1.
        -12    1    6    6    0    0 -0.86959472775E+01  0.32017607051E+02  0.18230827300E+02  0.37856435706E+02  0.00000000000E+00 0.  1.
</event>
<event>
12    1  0.1032880E+000  0.2032075E+03  0.7818608E-02  0.1147193E+00
         21   -1    0    0  501  502  0.00000000000E+00  0.00000000000E+00  0.10939256722E+03  0.10939256722E+03  0.00000000000E+00 0. -1.
         21   -1    0    0  502  503 -0.00000000000E+00 -0.00000000000E+00 -0.46632168901E+03  0.46632168901E+03  0.00000000000E+00 0. -1.
         -6    2    1    2    0  503 -0.25413187980E+02 -0.10473052532E+03 -0.52210466356E+02  0.20980759867E+03  0.17227589096E+03 0.  0.
        -24    2    3    3    0    0  0.35988105186E+02 -0.98157515607E+01 -0.26126131488E+02  0.93698100327E+02  0.81885692064E+02 0.  0.
          6    2    1    2  501    0  0.25413187980E+02  0.10473052532E+03 -0.30471865543E+03  0.36590665756E+03  0.17152233097E+03 0.  0.
         24    2    5    5    0    0  0.44002090647E+02  0.65060451515E+02 -0.85257296626E+02  0.14206599980E+03  0.82127311768E+02 0.  0.
          5    1    5    5  501    0 -0.18588902668E+02  0.39670073800E+02 -0.21946135881E+03  0.22384065776E+03  0.47000000000E+01 0. -1.
        -13    1    6    6    0    0  0.55405664120E+02  0.88389479437E+01 -0.38308642967E+02  0.67937226491E+02  0.00000000000E+00 0.  1.
         14    1    6    6    0    0 -0.11403573472E+02  0.56221503571E+02 -0.46948653659E+02  0.74128773308E+02  0.00000000000E+00 0. -1.
         -5    1    3    3    0  503 -0.61401293166E+02 -0.94914773755E+02 -0.26084334868E+02  0.11610949834E+03  0.47000000000E+01 0.  1.
         13    1    4    4    0    0  0.12272757890E+02  0.17055835343E+02 -0.47520061802E+02  0.51958429337E+02  0.00000000000E+00 0. -1.
        -14    1    4    4    0    0  0.23715347296E+02 -0.26871586903E+02  0.21393930314E+02  0.41739670990E+02  0.00000000000E+00 0.  1.
</event>
<event>
12    1  0.1032880E+000  0.5919898E+03  0.7818608E-02  0.9923848E-01
         21   -1    0    0  501  502  0.00000000000E+00  0.00000000000E+00  0.56429020283E+03  0.56429020283E+03  0.00000000000E+00 0. -1.
         21   -1    0    0  502  503 -0.00000000000E+00 -0.00000000000E+00 -0.62171596493E+03  0.62171596493E+03  0.00000000000E+00 0. -1.
         -6    2    1    2    0  503  0.18485688308E+03 -0.53566191480E+03  0.18772577060E+02  0.59228741926E+03  0.17130739382E+03 0.  0.
        -24    2    3    3    0    0  0.91664515109E+02 -0.36259590968E+03 -0.46418064255E+02  0.38514358206E+03  0.79389955699E+02 0.  0.
          6    2    1    2  501    0 -0.18485688308E+03  0.53566191480E+03 -0.76198339157E+02  0.59371874850E+03  0.15996878210E+03 0.  0.
         24    2    5    5    0    0 -0.94076201003E+02  0.23246373848E+03 -0.85943262939E+02  0.27703701568E+03  0.80458326550E+02 0.  0.
          5    1    5    5  501    0 -0.90780682076E+02  0.30319817632E+03  0.97449237827E+01  0.31668173282E+03  0.47000000000E+01 0. -1.
        -13    1    6    6    0    0 -0.63218423808E+02  0.19221802636E+03 -0.35368433452E+02  0.20541486035E+03  0.00000000000E+00 0.  1.
         14    1    6    6    0    0 -0.30857777195E+02  0.40245712120E+02 -0.50574829487E+02  0.71622155337E+02  0.00000000000E+00 0. -1.
         -5    1    3    3    0  503  0.93192367969E+02 -0.17306600512E+03  0.65190641316E+02  0.20714383720E+03  0.47000000000E+01 0.  1.
         13    1    4    4    0    0  0.86444935155E+02 -0.18295291518E+03 -0.31803446727E+02  0.20483152885E+03  0.00000000000E+00 0. -1.
        -14    1    4    4    0    0  0.52195799544E+01 -0.17964299450E+03 -0.14614617528E+02  0.18031205321E+03  0.00000000000E+00 0.  1.
</event>
<event>
12    1  0.1032880E+000  0.3279481E+03  0.7818608E-02  0.1072148E+00
         21   -1    0    0  503  502  0.00000000000E+00  0.00000000000E+00  0.14089826234E+03  0.14089826234E+03  0.00000000000E+00 0. -1.
         21   -1    0    0  501  503 -0.00000000000E+00 -0.00000000000E+00 -0.76626243394E+03  0.76626243394E+03  0.00000000000E+00 0. -1.
          6    2    1    2  501    0 -0.21719697352E+03 -0.17524553497E+03 -0.34981368867E+03  0.47949932134E+03  0.17223373524E+03 0.  0.
         24    2    3    3    0    0 -0.49419084245E+01 -0.14706263565E+01 -0.60880374301E+02  0.81059261014E+02  0.53269115069E+02 0.  0.
         -6    2    1    2    0  502  0.21719697352E+03  0.17524553497E+03 -0.27555048293E+03  0.42766137494E+03  0.17053052553E+03 0.  0.
        -24    2    5    5    0    0  0.16679882947E+03  0.74045090047E+02 -0.11152945868E+03  0.22839650253E+03  0.80134994511E+02 0.  0.
          5    1    3    3  501    0 -0.21225506509E+03 -0.17377490862E+03 -0.28893331437E+03  0.39844006033E+03  0.47000000000E+01 0. -1.
        -11    1    4    4    0    0  0.34448468020E+01 -0.15655033101E+02 -0.62480011624E+02  0.64503479622E+02  0.00000000000E+00 0.  1.
         12    1    4    4    0    0 -0.83867552265E+01  0.14184406744E+02  0.15996373228E+01  0.16555781391E+02  0.00000000000E+00 0. -1.
         -5    1    5    5    0  502  0.50398144051E+02  0.10120044493E+03 -0.16402102425E+03  0.19926487240E+03  0.47000000000E+01 0.  1.
         11    1    6    6    0    0  0.15068865558E+03  0.58498874645E+02 -0.12311278902E+03  0.20318943889E+03  0.00000000000E+00 0. -1.
        -12    1    6    6    0    0  0.16110173881E+02  0.15546215402E+02  0.11583330339E+02  0.25207063644E+02  0.00000000000E+00 0.  1.
</event>
<event>
12    1  0.1032880E+000  0.1756921E+03  0.7818608E-02  0.1172979E+00
         21   -1    0    0  503  502  0.00000000000E+00  0.00000000000E+00  0.72071686130E+02  0.72071686130E+02  0.00000000000E+00 0.  1.
         21   -1    0    0  501  503 -0.00000000000E+00 -0.00000000000E+00 -0.80701214596E+03  0.80701214596E+03  0.00000000000E+00 0.  1.
          6    2    1    2  501    0 -0.25346703670E+02  0.11261217399E+02 -0.67417710303E+03  0.69669395671E+03  0.17348899865E+03 0.  0.
         24    2    3    3    0    0 -0.73614791496E+01  0.11896686144E+02 -0.67306359679E+03  0.67806059905E+03  0.80968192137E+02 0.  0.
         -6    2    1    2    0  502  0.25346703670E+02 -0.11261217399E+02 -0.60763356792E+02  0.18238987538E+03  0.16971921137E+03 0.  0.
        -24    2    5    5    0    0 -0.40581257527E+02 -0.30072193187E+02 -0.52521699472E+01  0.94050016071E+02  0.79162143530E+02 0.  0.
          5    1    3    3  501    0 -0.17985224520E+02 -0.63546874518E+00 -0.11135062437E+01  0.18633357661E+02  0.47000000000E+01 0. -1.
        -13    1    4    4    0    0 -0.22879541267E+01  0.44149802124E+02 -0.26211763675E+03  0.26581966680E+03  0.00000000000E+00 0.  1.
         14    1    4    4    0    0 -0.50735250229E+01 -0.32253115980E+02 -0.41094596004E+03  0.41224093225E+03  0.00000000000E+00 0. -1.
         -5    1    5    5    0  502  0.65927961197E+02  0.18810975788E+02 -0.55511186845E+02  0.88339859308E+02  0.47000000000E+01 0.  1.
         11    1    6    6    0    0 -0.55522250953E+01  0.26287355415E+02 -0.66457140900E+01  0.27677026105E+02  0.00000000000E+00 0. -1.
        -12    1    6    6    0    0 -0.35029032432E+02 -0.56359548602E+02  0.13935441428E+01  0.66372989966E+02  0.00000000000E+00 0.  1.
</event>
<event>
12    1  0.1032880E+000  0.2025150E+03  0.7818608E-02  0.1149063E+00
         21   -1    0    0  503  502  0.00000000000E+00  0.00000000000E+00  0.56766048544E+03  0.56766048544E+03  0.00000000000E+00 0. -1.
         21   -1    0    0  501  503 -0.00000000000E+00 -0.00000000000E+00 -0.51013557225E+03  0.51013557225E+03  0.00000000000E+00 0. -1.
          6    2    1    2  501    0  0.33489515441E+02 -0.86257745791E+02  0.52932831275E+03  0.56436566920E+03  0.17250565074E+03 0.  0.
         24    2    3    3    0    0  0.73216686685E+02 -0.50099291653E+02  0.46663098940E+03  0.48166907740E+03  0.79937460653E+02 0.  0.
         -6    2    1    2    0  502 -0.33489515441E+02  0.86257745791E+02 -0.47180339956E+03  0.51343038849E+03  0.18013986132E+03 0.  0.
        -24    2    5    5    0    0 -0.30312386386E+02  0.12321848577E+03 -0.43748331945E+03  0.46267461692E+03  0.81083354263E+02 0.  0.
          5    1    3    3  501    0 -0.39727171244E+02 -0.36158454138E+02  0.62697323346E+02  0.82696591801E+02  0.47000000000E+01 0. -1.
        -11    1    4    4    0    0  0.87169704475E+02 -0.53796634549E+02  0.36811210023E+03  0.38209835593E+03  0.00000000000E+00 0.  1.
         12    1    4    4    0    0 -0.13953017790E+02  0.36973428958E+01  0.98518889169E+02  0.99570721465E+02  0.00000000000E+00 0. -1.
         -5    1    5    5    0  502 -0.31771290550E+01 -0.36960739982E+02 -0.34320080107E+02  0.50755771569E+02  0.47000000000E+01 0.  1.
         11    1    6    6    0    0  0.23035633371E+02  0.23203897184E+02 -0.15269819201E+03  0.15615953090E+03  0.00000000000E+00 0. -1.
        -12    1    6    6    0    0 -0.53348019757E+02  0.10001458859E+03 -0.28478512744E+03  0.30651508602E+03  0.00000000000E+00 0.  1.
</event>
<event>
12    1  0.1032880E+000  0.2131413E+03  0.7818608E-02  0.1139221E+00
         21   -1    0    0  503  502  0.00000000000E+00  0.00000000000E+00  0.42263803881E+03  0.42263803881E+03  0.00000000000E+00 0. -1.
         21   -1    0    0  501  503 -0.00000000000E+00 -0.00000000000E+00 -0.18659286486E+03  0.18659286486E+03  0.00000000000E+00 0.  1.
          6    2    1    2  501    0 -0.53020123595E+02  0.11373886660E+03 -0.80602465088E+02  0.22787267743E+03  0.17228330290E+03 0.  0.
         24    2    3    3    0    0  0.18742078224E+02  0.87574959625E+02 -0.63166597332E+01  0.12121980820E+03  0.81447545451E+02 0.  0.
         -6    2    1    2    0  502  0.53020123595E+02 -0.11373886660E+03  0.31664763903E+03  0.38135822624E+03  0.17152465169E+03 0.  0.
        -24    2    5    5    0    0 -0.23242389633E+02 -0.47861987496E+02  0.22600155948E+03  0.24573176916E+03  0.80476201210E+02 0.  0.
          5    1    3    3  501    0 -0.71762201819E+02  0.26163906970E+02 -0.74285805354E+02  0.10665286923E+03  0.47000000000E+01 0. -1.
        -13    1    4    4    0    0  0.41184695268E+01 -0.15187366108E+02 -0.74628652827E+01  0.17415861700E+02  0.00000000000E+00 0.  1.
         14    1    4    4    0    0  0.14623608697E+02  0.10276232573E+03  0.11462055494E+01  0.10380394650E+03  0.00000000000E+00 0. -1.
         -5    1    5    5    0  502  0.76262513228E+02 -0.65876879099E+02  0.90646079551E+02  0.13562645709E+03  0.47000000000E+01 0.  1.
         13    1    6    6    0    0 -0.79153092614E+01  0.22218914653E+02  0.40879187847E+02  0.47195765573E+02  0.00000000000E+00 0. -1.
        -14    1    6    6    0    0 -0.15327080371E+02 -0.70080902149E+02  0.18512237164E+03  0.19853600358E+03  0.00000000000E+00 0.  1.
</event>
<event>
12    1  0.1032880E+000  0.3318386E+03  0.7818608E-02  0.1070597E+00
         21   -1    0    0  503  502  0.00000000000E+00  0.00000000000E+00  0.76866140576E+03  0.76866140576E+03  0.00000000000E+00 0.  1.
         21   -1    0    0  501  503 -0.00000000000E+00 -0.00000000000E+00 -0.14234363550E+03  0.14234363550E+03  0.00000000000E+00 0.  1.
          6    2    1    2  501    0 -0.24347121874E+03  0.14628424167E+03  0.29978122465E+03  0.44719751530E+03  0.17157948980E+03 0.  0.
         24    2    3    3    0    0 -0.80798046339E+02  0.87780595566E+01  0.68014518266E+02  0.13238263743E+03  0.79333532486E+02 0.  0.
         -6    2    1    2    0  502  0.24347121874E+03 -0.14628424167E+03  0.32653654562E+03  0.46380752596E+03  0.16677527335E+03 0.  0.
        -24    2    5    5    0    0  0.94525759050E+02 -0.42014731081E+02  0.90559535213E+02  0.16587444583E+03  0.92805956753E+02 0.  0.
          5    1    3    3  501    0 -0.16267317240E+03  0.13750618211E+03  0.23176670639E+03  0.31481487787E+03  0.47000000000E+01 0. -1.
        -13    1    4    4    0    0 -0.37823633824E+02  0.95726399319E+01 -0.12621170876E+02  0.41006788038E+02  0.00000000000E+00 0.  1.
         14    1    4    4    0    0 -0.42974412515E+02 -0.79458037536E+00  0.80635689143E+02  0.91375849395E+02  0.00000000000E+00 0. -1.
         -5    1    5    5    0  502  0.14894545969E+03 -0.10426951058E+03  0.23597701040E+03  0.29793308013E+03  0.47000000000E+01 0.  1.
         13    1    6    6    0    0  0.77335769829E+02 -0.62896622909E+02  0.95878307820E+02  0.13830927799E+03  0.00000000000E+00 0. -1.
        -14    1    6    6    0    0  0.17189989222E+02  0.20881891828E+02 -0.53187726063E+01  0.27565167836E+02  0.00000000000E+00 0.  1.
</event>
<event>
12    1  0.1032880E+000  0.1946492E+03  0.7818608E-02  0.1154388E+00
         21   -1    0    0  503  502  0.00000000000E+00  0.00000000000E+00  0.35914165400E+02  0.35914165400E+02  0.00000000000E+00 0. -1.
         21   -1    0    0  501  503 -0.00000000000E+00 -0.00000000000E+00 -0.10541045403E+04  0.10541045403E+04  0.00000000000E+00 0. -1.
          6    2    1    2  501    0 -0.31996462846E+01 -0.91855633677E+02 -0.52103206304E+03  0.55620386472E+03  0.17158273001E+03 0.  0.
         24    2    3    3    0    0  0.52728934448E+02 -0.89291073270E+02 -0.29095916101E+03  0.31937013958E+03  0.81159203961E+02 0.  0.
         -6    2    1    2    0  502  0.31996462846E+01  0.91855633677E+02 -0.49715831187E+03  0.53381484099E+03  0.17130149511E+03 0.  0.
        -24    2    5    5    0    0  0.34578708956E+02 -0.10404429663E+02 -0.20897970664E+03  0.22638880982E+03  0.79217650534E+02 0.  0.
          5    1    3    3  501    0 -0.55928580732E+02 -0.25645604069E+01 -0.23007290204E+03  0.23683372514E+03  0.47000000000E+01 0. -1.
        -11    1    4    4    0    0  0.20206921821E+02 -0.60499727462E+01 -0.78766515942E+01  0.22515849974E+02  0.00000000000E+00 0.  1.
         12    1    4    4    0    0  0.32522012626E+02 -0.83241100524E+02 -0.28308250941E+03  0.29685428961E+03  0.00000000000E+00 0. -1.
         -5    1    5    5    0  502 -0.31379062672E+02  0.10226006334E+03 -0.28817860523E+03  0.30742603117E+03  0.47000000000E+01 0.  1.
         11    1    6    6    0    0  0.20879892601E+02 -0.25973293875E+02 -0.26080034815E+02  0.42317255650E+02  0.00000000000E+00 0. -1.
        -12    1    6    6    0    0  0.13698816355E+02  0.15568864212E+02 -0.18289967182E+03  0.18407155417E+03  0.00000000000E+00 0.  1.
</event>
<event>
12    1  0.1032880E+000  0.3169326E+03  0.7818608E-02  0.1077183E+00
         21   -1    0    0  501  502  0.00000000000E+00  0.00000000000E+00  0.72603127852E+03  0.72603127852E+03  0.00000000000E+00 0. -1.
         21   -1    0    0  502  503 -0.00000000000E+00 -0.00000000000E+00 -0.13885021592E+03  0.13885021592E+03  0.00000000000E+00 0. -1.
         -6    2    1    2    0  503 -0.20062930487E+03  0.17498826109E+03  0.32928286380E+03  0.45702677876E+03  0.17196878386E+03 0.  0.
        -24    2    3    3    0    0 -0.29997021410E+02  0.49703957016E+02  0.60436289958E+02  0.11481032201E+03  0.78476494951E+02 0.  0.
          6    2    1    2  501    0  0.20062930487E+03 -0.17498826109E+03  0.25789819879E+03  0.40785471568E+03  0.17017925453E+03 0.  0.
         24    2    5    5    0    0  0.12470621937E+03 -0.46414993478E+02  0.76222782983E+02  0.17264534774E+03  0.79312739724E+02 0.  0.
          5    1    5    5  501    0  0.75923085495E+02 -0.12857326761E+03  0.18167541581E+03  0.23520936794E+03  0.47000000000E+01 0. -1.
        -11    1    6    6    0    0  0.48807629058E+02 -0.23224609960E+02 -0.10530345639E+02  0.55067734122E+02  0.00000000000E+00 0.  1.
         12    1    6    6    0    0  0.75898590315E+02 -0.23190383518E+02  0.86753128622E+02  0.11757761362E+03  0.00000000000E+00 0. -1.
         -5    1    3    3    0  503 -0.17063228346E+03  0.12528430407E+03  0.26884657384E+03  0.34221645675E+03  0.47000000000E+01 0.  1.
         11    1    4    4    0    0 -0.14060615395E+02  0.39724353853E+01  0.64572864932E+02  0.66205256844E+02  0.00000000000E+00 0. -1.
        -12    1    4    4    0    0 -0.15936406015E+02  0.45731521631E+02 -0.41365749746E+01  0.48605065167E+02  0.00000000000E+00 0.  1.
</event>
<event>
12    1  0.1032880E+000  0.4310222E+03  0.7818608E-02  0.1033781E+00
         21   -1    0    0  501  502  0.00000000000E+00  0.00000000000E+00  0.13866825215E+04  0.13866825215E+04  0.00000000000E+00 0. -1.
         21   -1    0    0  502  503 -0.00000000000E+00 -0.00000000000E+00 -0.13302281133E+03  0.13302281133E+03  0.00000000000E+00 0. -1.
         -6    2    1    2    0  503  0.28731742040E+03 -0.26647940832E+03  0.62140665564E+03  0.75450991824E+03  0.17197793444E+03 0.  0.
        -24    2    3    3    0    0  0.17199484702E+03 -0.76024882695E+02  0.27700670176E+03  0.34438110861E+03  0.80645055375E+02 0.  0.
          6    2    1    2  501    0 -0.28731742040E+03  0.26647940832E+03  0.63225305452E+03  0.76519541458E+03  0.17949240212E+03 0.  0.
         24    2    5    5    0    0 -0.28582323913E+03  0.24111918795E+03  0.49471959197E+03  0.62525643975E+03  0.79779408045E+02 0.  0.
          5    1    5    5  501    0 -0.14941812740E+01  0.25360220370E+02  0.13753346255E+03  0.13993897483E+03  0.47000000000E+01 0. -1.
        -13    1    6    6    0    0 -0.16392948397E+03  0.15012941629E+03  0.35420319406E+03  0.41817654171E+03  0.00000000000E+00 0.  1.
         14    1    6    6    0    0 -0.12189375516E+03  0.90989771657E+02  0.14051639791E+03  0.20707989805E+03  0.00000000000E+00 0. -1.
         -5    1    3    3    0  503  0.11532257339E+03 -0.19045452562E+03  0.34439995387E+03  0.41012880963E+03  0.47000000000E+01 0.  1.
         13    1    4    4    0    0  0.84981819439E+02  0.51484364553E+01  0.10406084372E+03  0.13445101424E+03  0.00000000000E+00 0. -1.
        -14    1    4    4    0    0  0.87013027580E+02 -0.81173319150E+02  0.17294585804E+03  0.20993009437E+03  0.00000000000E+00 0.  1.
</event>
<event>
12    1  0.1032880E+000  0.2864196E+03  0.7818608E-02  0.1092489E+00
         21   -1    0    0  503  502  0.00000000000E+00  0.00000000000E+00  0.51155193364E+03  0.51155193364E+03  0.00000000000E+00 0.  1.
         21   -1    0    0  501  503 -0.00000000000E+00 -0.00000000000E+00 -0.16369488394E+03  0.16369488394E+03  0.00000000000E+00 0. -1.
          6    2    1    2  501    0  0.12167327617E+03  0.19155835012E+03  0.22985275374E+03  0.36724440200E+03  0.17474889061E+03 0.  0.
         24    2    3    3    0    0  0.51197780322E+02  0.19166030348E+03  0.14812284011E+03  0.25922276208E+03  0.76819138115E+02 0.  0.
         -6    2    1    2    0  502 -0.12167327617E+03 -0.19155835012E+03  0.11800429596E+03  0.30800241558E+03  0.17158521645E+03 0.  0.
        -24    2    5    5    0    0 -0.85527954161E+02 -0.17881365876E+03  0.35467689523E+02  0.21688000965E+03  0.80558215479E+02 0.  0.
          5    1    3    3  501    0  0.70475495845E+02 -0.10195336288E+00  0.81729913629E+02  0.10802163992E+03  0.47000000000E+01 0. -1.
        -13    1    4    4    0    0 -0.64186167909E+01 -0.45346043544E+01  0.87543364402E+01  0.11764339534E+02  0.00000000000E+00 0.  1.
         14    1    4    4    0    0  0.57616397112E+02  0.19619490783E+03  0.13936850367E+03  0.24745842255E+03  0.00000000000E+00 0. -1.
         -5    1    5    5    0  502 -0.36145322005E+02 -0.12744691354E+02  0.82536606441E+02  0.91122405935E+02  0.47000000000E+01 0.  1.
         13    1    6    6    0    0 -0.98421343478E+02 -0.16313772496E+03  0.42842100608E+02  0.19528472480E+03  0.00000000000E+00 0. -1.
        -14    1    6    6    0    0  0.12893389316E+02 -0.15675933807E+02 -0.73744110843E+01  0.21595284847E+02  0.00000000000E+00 0.  1.
</event>
<event>
12    1  0.1032880E+000  0.2120086E+03  0.7818608E-02  0.1140047E+00
         21   -1    0    0  503  502  0.00000000000E+00  0.00000000000E+00  0.28483720117E+03  0.28483720117E+03  0.00000000000E+00 0.  1.
         21   -1    0    0  501  503 -0.00000000000E+00 -0.00000000000E+00 -0.15958696196E+03  0.15958696196E+03  0.00000000000E+00 0.  1.
          6    2    1    2  501    0  0.10172623167E+03  0.69520370206E+02  0.87677102424E+02  0.22942305853E+03  0.17252929437E+03 0.  0.
         24    2    3    3    0    0  0.81232300546E+02 -0.19737827853E+02  0.34880186457E+02  0.12360892210E+03  0.84108678003E+02 0.  0.
         -6    2    1    2    0  502 -0.10172623167E+03 -0.69520370206E+02  0.37573136787E+02  0.21500110460E+03  0.17214071653E+03 0.  0.
        -24    2    5    5    0    0 -0.70591189643E+02 -0.11534186071E+02 -0.38675260171E+02  0.11416610853E+03  0.80137201630E+02 0.  0.
          5    1    3    3  501    0  0.20493931120E+02  0.89258198059E+02  0.52796915967E+02  0.10581413643E+03  0.47000000000E+01 0. -1.
        -11    1    4    4    0    0  0.31421999446E+02 -0.44814648036E+02 -0.51319995161E+01  0.54973012895E+02  0.00000000000E+00 0.  1.
         12    1    4    4    0    0  0.49810301100E+02  0.25076820183E+02  0.40012185973E+02  0.68635909206E+02  0.00000000000E+00 0. -1.
         -5    1    5    5    0  502 -0.31135042023E+02 -0.57986184135E+02  0.76248396958E+02  0.10083499606E+03  0.47000000000E+01 0.  1.
         11    1    6    6    0    0 -0.78314601423E+02 -0.54300582875E+01 -0.45334905537E+01  0.78633420793E+02  0.00000000000E+00 0. -1.
        -12    1    6    6    0    0  0.77234117799E+01 -0.61041277837E+01 -0.34141769617E+02  0.35532687741E+02  0.00000000000E+00 0.  1.
</event>
<event>
12    1  0.1032880E+000  0.2384887E+03  0.7818608E-02  0.1121340E+00
         21   -1    0    0  501  502  0.00000000000E+00  0.00000000000E+00  0.57616082232E+03  0.57616082232E+03  0.00000000000E+00 0.  1.
         21   -1    0    0  502  503 -0.00000000000E+00 -0.00000000000E+00 -0.10517378577E+03  0.10517378577E+03  0.00000000000E+00 0.  1.
         -6    2    1    2    0  503  0.13867087824E+02 -0.16136522295E+03  0.14439367663E+03  0.27879454908E+03  0.17505951972E+03 0.  0.
        -24    2    3    3    0    0  0.43759626977E+02 -0.12300062283E+03  0.16568367593E+03  0.22549576382E+03  0.79706968724E+02 0.  0.
          6    2    1    2  501    0 -0.13867087824E+02  0.16136522295E+03  0.32659335992E+03  0.40254005902E+03  0.17071685642E+03 0.  0.
         24    2    5    5    0    0 -0.37238437512E+02  0.25651121940E+02  0.90924897875E+02  0.12954509349E+03  0.80435768839E+02 0.  0.
          5    1    5    5  501    0  0.23371349688E+02  0.13571410101E+03  0.23566846205E+03  0.27299496553E+03  0.47000000000E+01 0. -1.
        -11    1    6    6    0    0 -0.40624782534E+02 -0.16094581754E+02  0.70508903618E+02  0.82951274898E+02  0.00000000000E+00 0.  1.
         12    1    6    6    0    0  0.33863450216E+01  0.41745703694E+02  0.20415994257E+02  0.46593818592E+02  0.00000000000E+00 0. -1.
         -5    1    3    3    0  503 -0.29892539153E+02 -0.38364600117E+02 -0.21289999304E+02  0.53298785254E+02  0.47000000000E+01 0.  1.
         13    1    4    4    0    0 -0.12943740183E+02 -0.29928961917E+02  0.81509308294E+02  0.87789808690E+02  0.00000000000E+00 0. -1.
        -14    1    4    4    0    0  0.56703367161E+02 -0.93071660912E+02  0.84174367638E+02  0.13770595513E+03  0.00000000000E+00 0.  1.
</event>
<event>
12    1  0.1032880E+000  0.2444146E+03  0.7818608E-02  0.1116930E+00
         21   -1    0    0  503  502  0.00000000000E+00  0.00000000000E+00  0.34812523968E+03  0.34812523968E+03  0.00000000000E+00 0. -1.
         21   -1    0    0  501  503 -0.00000000000E+00 -0.00000000000E+00 -0.18753079428E+03  0.18753079428E+03  0.00000000000E+00 0. -1.
          6    2    1    2  501    0  0.49851546570E+02  0.16636928488E+03  0.17328668617E+01  0.24415047319E+03  0.17158827200E+03 0.  0.
         24    2    3    3    0    0 -0.76789663904E+01  0.13695857674E+03  0.46305348424E+02  0.16551494822E+03  0.80214677747E+02 0.  0.
         -6    2    1    2    0  502 -0.49851546570E+02 -0.16636928488E+03  0.15886157853E+03  0.29150556076E+03  0.17197260007E+03 0.  0.
        -24    2    5    5    0    0 -0.95668927815E+02 -0.15507250115E+03  0.12801575661E+03  0.23493344327E+03  0.74870985491E+02 0.  0.
          5    1    3    3  501    0  0.57530512960E+02  0.29410708139E+02 -0.44572481563E+02  0.78635524970E+02  0.47000000000E+01 0. -1.
        -11    1    4    4    0    0  0.18460278968E+02  0.57861386532E+02 -0.14424204340E+02  0.62424190999E+02  0.00000000000E+00 0.  1.
         12    1    4    4    0    0 -0.26139245358E+02  0.79097190206E+02  0.60729552764E+02  0.10309075723E+03  0.00000000000E+00 0. -1.
         -5    1    5    5    0  502  0.45817381245E+02 -0.11296783731E+02  0.30845821925E+02  0.56572117488E+02  0.47000000000E+01 0.  1.
         13    1    6    6    0    0 -0.48014675064E+02 -0.17019439289E+02  0.32512854648E+02  0.60433070852E+02  0.00000000000E+00 0. -1.
        -14    1    6    6    0    0 -0.47654252752E+02 -0.13805306186E+03  0.95502901958E+02  0.17450037242E+03  0.00000000000E+00 0.  1.
</event>
<event>
12    1  0.1032880E+000  0.1899340E+03  0.7818608E-02  0.1158531E+00
         21   -1    0    0  503  502  0.00000000000E+00  0.00000000000E+00  0.92474629863E+02  0.92474629863E+02  0.00000000000E+00 0.  1.
         21   -1    0    0  501  503 -0.00000000000E+00 -0.00000000000E+00 -0.56788769464E+03  0.56788769464E+03  0.00000000000E+00 0.  1.
          6    2    1    2  501    0 -0.15556648110E+02  0.78752884104E+02 -0.42251674300E+03  0.46324433550E+03  0.17213625474E+03 0.  0.
         24    2    3    3    0    0 -0.74633560347E+02  0.64073292201E+02 -0.25086386169E+03  0.28105659266E+03  0.79903542283E+02 0.  0.
         -6    2    1    2    0  502  0.15556648110E+02 -0.78752884104E+02 -0.52896321772E+02  0.19711798901E+03  0.17208560276E+03 0.  0.
        -24    2    5    5    0    0 -0.17137797064E+02 -0.10641939596E+03 -0.86199684821E+01  0.13533734411E+03  0.81382436241E+02 0.  0.
          5    1    3    3  501    0  0.59076912237E+02  0.14679591903E+02 -0.17165288131E+03  0.18218774284E+03  0.47000000000E+01 0. -1.
        -13    1    4    4    0    0 -0.14215257466E+02  0.62796407163E+02 -0.10498208660E+03  0.12315315995E+03  0.00000000000E+00 0.  1.
         14    1    4    4    0    0 -0.60418302882E+02  0.12768850383E+01 -0.14588177509E+03  0.15790343271E+03  0.00000000000E+00 0. -1.
         -5    1    5    5    0  502  0.32694445174E+02  0.27666511856E+02 -0.44276353290E+02  0.61780644900E+02  0.47000000000E+01 0.  1.
         11    1    6    6    0    0  0.30856478743E+02 -0.45426858282E+02  0.92653429554E+01  0.55691725722E+02  0.00000000000E+00 0. -1.
        -12    1    6    6    0    0 -0.47994275807E+02 -0.60992537679E+02 -0.17885311438E+02  0.79645618386E+02  0.00000000000E+00 0.  1.
</event>
<event>
12    1  0.1032880E+000  0.2344765E+03  0.7818608E-02  0.1123732E+00
         21   -1    0    0  501  502  0.00000000000E+00  0.00000000000E+00  0.21982566907E+03  0.21982566907E+03  0.00000000000E+00 0. -1.
         21   -1    0    0  502  503 -0.00000000000E+00 -0.00000000000E+00 -0.24940463652E+03  0.24940463652E+03  0.00000000000E+00 0. -1.
         -6    2    1    2    0  503  0.61755566193E+02 -0.14708811237E+03 -0.36714415470E+01  0.23450527361E+03  0.17184464237E+03 0.  0.
        -24    2    3    3    0    0  0.34561248045E+02 -0.77517847346E+02  0.64626369405E+02  0.13318284916E+03  0.79734604568E+02 0.  0.
          6    2    1    2  501    0 -0.61755566193E+02  0.14708811237E+03 -0.25907525904E+02  0.23472503197E+03  0.17022331797E+03 0.  0.
         24    2    5    5    0    0  0.14165870486E+01  0.79832266076E+01 -0.15790979754E+02  0.81541074935E+02  0.79585508945E+02 0.  0.
          5    1    5    5  501    0 -0.63172153242E+02  0.13910488576E+03 -0.10116546150E+02  0.15318395704E+03  0.47000000000E+01 0. -1.
        -13    1    6    6    0    0  0.47726578256E+00  0.39254936267E+02 -0.27720148222E+02  0.48058135850E+02  0.00000000000E+00 0.  1.
         14    1    6    6    0    0  0.93932126603E+00 -0.31271709659E+02  0.11929168468E+02  0.33482939085E+02  0.00000000000E+00 0. -1.
         -5    1    3    3    0  503  0.27194318149E+02 -0.69570265022E+02 -0.68297810952E+02  0.10132242445E+03  0.47000000000E+01 0.  1.
         11    1    4    4    0    0 -0.14439893640E+02  0.87111787420E+01  0.56094632620E+01  0.17772485518E+02  0.00000000000E+00 0. -1.
        -12    1    4    4    0    0  0.49001141684E+02 -0.86229026088E+02  0.59016906143E+02  0.11541036365E+03  0.00000000000E+00 0.  1.
</event>
<event>
12    1  0.1032880E+000  0.1821268E+03  0.7818608E-02  0.1165908E+00
         21   -1    0    0  503  502  0.00000000000E+00  0.00000000000E+00  0.81379731104E+02  0.81379731104E+02  0.00000000000E+00 0. -1.
         21   -1    0    0  501  503 -0.00000000000E+00 -0.00000000000E+00 -0.44986085656E+03  0.44986085656E+03  0.00000000000E+00 0. -1.
          6    2    1    2  501    0 -0.36516602655E+02 -0.54572317991E+02 -0.10178529932E+03  0.20863946179E+03  0.16987812601E+03 0.  0.
         24    2    3    3    0    0  0.14459569657E+02 -0.10713663514E+02  0.54259159930E+01  0.81996315881E+02  0.79812865586E+02 0.  0.
         -6    2    1    2    0  502  0.36516602655E+02  0.54572317991E+02 -0.26669582613E+03  0.32260112587E+03  0.16921354135E+03 0.  0.
        -24    2    5    5    0    0  0.18949438931E+02 -0.15417865678E+02 -0.22506316756E+03  0.23915893444E+03  0.77115333832E+02 0.  0.
          5    1    3    3  501    0 -0.50976172313E+02 -0.43858654477E+02 -0.10721121531E+03  0.12664314591E+03  0.47000000000E+01 0. -1.
        -11    1    4    4    0    0  0.25663188338E+02 -0.26781087442E+02 -0.25766586604E+02  0.45163512546E+02  0.00000000000E+00 0.  1.
         12    1    4    4    0    0 -0.11203618681E+02  0.16067423928E+02  0.31192502597E+02  0.36832803335E+02  0.00000000000E+00 0. -1.
         -5    1    5    5    0  502  0.17567163724E+02  0.69990183669E+02 -0.41632658569E+02  0.83442191431E+02  0.47000000000E+01 0.  1.
         13    1    6    6    0    0 -0.26284814844E+02 -0.22940307809E+02 -0.90110401097E+02  0.96628327108E+02  0.00000000000E+00 0. -1.
        -14    1    6    6    0    0  0.45234253776E+02  0.75224421308E+01 -0.13495276646E+03  0.14253060733E+03  0.00000000000E+00 0.  1.
</event>
<event>
12    1  0.1032880E+000  0.2628139E+03  0.7818608E-02  0.1105517E+00
         21   -1    0    0  501  502  0.00000000000E+00  0.00000000000E+00  0.15239749359E+03  0.15239749359E+03  0.00000000000E+00 0. -1.
         21   -1    0    0  502  503 -0.00000000000E+00 -0.00000000000E+00 -0.84014983219E+03  0.84014983219E+03  0.00000000000E+00 0. -1.
         -6    2    1    2    0  503 -0.18451396633E+03 -0.72296552127E+02 -0.69484848561E+01  0.26290573002E+03  0.17262371278E+03 0.  0.
        -24    2    3    3    0    0 -0.23765169756E+02 -0.54802127537E+02  0.24318887580E+02  0.98145391737E+02  0.73980086171E+02 0.  0.
          6    2    1    2  501    0  0.18451396633E+03  0.72296552127E+02 -0.68080385374E+03  0.72964159577E+03  0.17207781896E+03 0.  0.
         24    2    5    5    0    0  0.93328107881E+02 -0.19797222687E+02 -0.23746250152E+03  0.26772193962E+03  0.78641792831E+02 0.  0.
          5    1    5    5  501    0  0.91185858447E+02  0.92093774813E+02 -0.44334135223E+03  0.46191965615E+03  0.47000000000E+01 0. -1.
        -11    1    6    6    0    0  0.10187701006E+03 -0.24027125521E+02 -0.17037409754E+03  0.19995889840E+03  0.00000000000E+00 0.  1.
         12    1    6    6    0    0 -0.85489021744E+01  0.42299028346E+01 -0.67088403977E+02  0.67763041214E+02  0.00000000000E+00 0. -1.
         -5    1    3    3    0  503 -0.16074879657E+03 -0.17494424590E+02 -0.31267372436E+02  0.16476033828E+03  0.47000000000E+01 0.  1.
         11    1    4    4    0    0  0.19208473505E+02 -0.22501638569E+01  0.23262287502E+02  0.30251656345E+02  0.00000000000E+00 0. -1.
        -12    1    4    4    0    0 -0.42973643260E+02 -0.52551963680E+02  0.10566000777E+01  0.67893735392E+02  0.00000000000E+00 0.  1.
</event>
<event>
12    1  0.1032880E+000  0.2105122E+03  0.7818608E-02  0.1141249E+00
         21   -1    0    0  503  502  0.00000000000E+00  0.00000000000E+00  0.58615146587E+02  0.58615146587E+02  0.00000000000E+00 0. -1.
         21   -1    0    0  501  503 -0.00000000000E+00 -0.00000000000E+00 -0.75681047025E+03  0.75681047025E+03  0.00000000000E+00 0. -1.
          6    2    1    2  501    0  0.78272325825E+02 -0.91083979274E+02 -0.37230194086E+03  0.42769628041E+03  0.17289454833E+03 0.  0.
         24    2    3    3    0    0  0.29502220233E+02  0.11659066682E+01 -0.77631945662E+02  0.11506061270E+03  0.79627164151E+02 0.  0.
         -6    2    1    2    0  502 -0.78272325825E+02  0.91083979274E+02 -0.32589338281E+03  0.38772933643E+03  0.17235049492E+03 0.  0.
        -24    2    5    5    0    0 -0.29115431159E+02 -0.17319245888E+02 -0.97922538544E+02  0.13051258862E+03  0.79353938930E+02 0.  0.
          5    1    3    3  501    0  0.48770105592E+02 -0.92249885942E+02 -0.29466999520E+03  0.31263566771E+03  0.47000000000E+01 0. -1.
        -11    1    4    4    0    0  0.40726859033E+02  0.69717160980E+01 -0.53288833233E+01  0.41661479444E+02  0.00000000000E+00 0.  1.
         12    1    4    4    0    0 -0.11224638799E+02 -0.58058094298E+01 -0.72303062338E+02  0.73399133256E+02  0.00000000000E+00 0. -1.
         -5    1    5    5    0  502 -0.49156894667E+02  0.10840322516E+03 -0.22797084426E+03  0.25721674781E+03  0.47000000000E+01 0.  1.
         13    1    6    6    0    0 -0.45309834182E+02  0.42662060008E+01 -0.92354819510E+02  0.10295918742E+03  0.00000000000E+00 0. -1.
        -14    1    6    6    0    0  0.16194403023E+02 -0.21585451888E+02 -0.55677190342E+01  0.27553401201E+02  0.00000000000E+00 0.  1.
</event>
<event>
12    1  0.1032880E+000  0.2613379E+03  0.7818608E-02  0.1106413E+00
         21   -1    0    0  501  502  0.00000000000E+00  0.00000000000E+00  0.23921581769E+03  0.23921581769E+03  0.00000000000E+00 0.  1.
         21   -1    0    0  502  503 -0.00000000000E+00 -0.00000000000E+00 -0.28505744283E+03  0.28505744283E+03  0.00000000000E+00 0.  1.
         -6    2    1    2    0  503  0.15902872222E+03 -0.11494910718E+03 -0.18786767579E+02  0.26201232431E+03  0.17260962813E+03 0.  0.
        -24    2    3    3    0    0  0.29217796255E+02 -0.97712653042E+02 -0.13752944983E+02  0.13088108768E+03  0.80865774185E+02 0.  0.
          6    2    1    2  501    0 -0.15902872222E+03  0.11494910718E+03 -0.27054857560E+02  0.26226093620E+03  0.17188775875E+03 0.  0.
         24    2    5    5    0    0 -0.13335239931E+03  0.14978147878E+03 -0.12093459563E+02  0.21623375837E+03  0.79958943879E+02 0.  0.
          5    1    5    5  501    0 -0.25676322905E+02 -0.34832371599E+02 -0.14961397998E+02  0.46027177832E+02  0.47000000000E+01 0. -1.
        -13    1    6    6    0    0 -0.71580315573E+02  0.11532457790E+03  0.22349854967E+02  0.13756095326E+03  0.00000000000E+00 0.  1.
         14    1    6    6    0    0 -0.61772083740E+02  0.34456900883E+02 -0.34443314530E+02  0.78672805109E+02  0.00000000000E+00 0. -1.
         -5    1    3    3    0  503  0.12981092596E+03 -0.17236454139E+02 -0.50338225959E+01  0.13113123663E+03  0.47000000000E+01 0.  1.
         13    1    4    4    0    0  0.27882938683E+02  0.14099034741E+01  0.86920455123E+01  0.29240344604E+02  0.00000000000E+00 0. -1.
        -14    1    4    4    0    0  0.13348575722E+01 -0.99122556517E+02 -0.22444990495E+02  0.10164074308E+03  0.00000000000E+00 0.  1.
</event>
<event>
12    1  0.1032880E+000  0.1804887E+03  0.7818608E-02  0.1167806E+00
         21   -1    0    0  501  502  0.00000000000E+00  0.00000000000E+00  0.55691242878E+02  0.55691242878E+02  0.00000000000E+00 0. -1.
         21   -1    0    0  502  503 -0.00000000000E+00 -0.00000000000E+00 -0.78231705205E+03  0.78231705205E+03  0.00000000000E+00 0. -1.
         -6    2    1    2    0  503  0.40092838344E+02 -0.30907779265E+02 -0.57858323962E+03  0.60608146940E+03  0.17324392017E+03 0.  0.
        -24    2    3    3    0    0 -0.23771386707E+02  0.15080067969E+02 -0.18288710337E+03  0.20260774835E+03  0.82521026633E+02 0.  0.
          6    2    1    2  501    0 -0.40092838344E+02  0.30907779265E+02 -0.14804256956E+03  0.23192682553E+03  0.17120374848E+03 0.  0.
         24    2    5    5    0    0 -0.47583353288E+02 -0.11499443043E+02 -0.17695108727E+02  0.94569514613E+02  0.78954819491E+02 0.  0.
          5    1    5    5  501    0  0.74905149441E+01  0.42407222308E+02 -0.13034746083E+03  0.13735731092E+03  0.47000000000E+01 0. -1.
        -13    1    6    6    0    0 -0.60929796330E+02 -0.29582304851E+02 -0.22903446818E+02  0.71499095919E+02  0.00000000000E+00 0.  1.
         14    1    6    6    0    0  0.13346443043E+02  0.18082861808E+02  0.52083380910E+01  0.23070418694E+02  0.00000000000E+00 0. -1.
         -5    1    3    3    0  503  0.63864225050E+02 -0.45987847234E+02 -0.39569613625E+03  0.40347372105E+03  0.47000000000E+01 0.  1.
         13    1    4    4    0    0 -0.31912613477E+02 -0.24375656183E+02 -0.13039150243E+03  0.13643508134E+03  0.00000000000E+00 0. -1.
        -14    1    4    4    0    0  0.81412267707E+01  0.39455724152E+02 -0.52495600941E+02  0.66172667015E+02  0.00000000000E+00 0.  1.
</event>
<event>
12    1  0.1032880E+000  0.2193903E+03  0.7818608E-02  0.1134372E+00
         21   -1    0    0  503  502  0.00000000000E+00  0.00000000000E+00  0.11289670419E+04  0.11289670419E+04  0.00000000000E+00 0. -1.
         21   -1    0    0  501  503 -0.00000000000E+00 -0.00000000000E+00 -0.55809735776E+02  0.55809735776E+02  0.00000000000E+00 0. -1.
          6    2    1    2  501    0 -0.36683305670E+02 -0.13102986256E+03  0.82462335168E+03  0.85326323218E+03  0.17187199147E+03 0.  0.
         24    2    3    3    0    0  0.53590226389E+01 -0.27826093787E+02  0.55640883773E+03  0.56278140701E+03  0.79555683353E+02 0.  0.
         -6    2    1    2    0  502  0.36683305670E+02  0.13102986256E+03  0.24853395446E+03  0.33151354551E+03  0.17209768895E+03 0.  0.
        -24    2    5    5    0    0 -0.14419134634E+02  0.12024271372E+03  0.23786394866E+03  0.27799942580E+03  0.77705862225E+02 0.  0.
          5    1    3    3  501    0 -0.42042328309E+02 -0.10320376877E+03  0.26821451395E+03  0.29048182516E+03  0.47000000000E+01 0. -1.
        -11    1    4    4    0    0  0.10121490116E+01 -0.53535841728E+02  0.45223526446E+03  0.45539416467E+03  0.00000000000E+00 0.  1.
         12    1    4    4    0    0  0.43468736273E+01  0.25709747941E+02  0.10417357327E+03  0.10738724234E+03  0.00000000000E+00 0. -1.
         -5    1    5    5    0  502  0.51102440304E+02  0.10787148842E+02  0.10670005793E+02  0.53514119714E+02  0.47000000000E+01 0.  1.
         11    1    6    6    0    0 -0.37548181419E+02  0.55024323144E+02  0.71008160561E+02  0.97363755739E+02  0.00000000000E+00 0. -1.
        -12    1    6    6    0    0  0.23129046785E+02  0.65218390575E+02  0.16685578810E+03  0.18063567006E+03  0.00000000000E+00 0.  1.
</event>
<event>
12    1  0.1032880E+000  0.2939773E+03  0.7818608E-02  0.1088368E+00
         21   -1    0    0  503  502  0.00000000000E+00  0.00000000000E+00  0.53942162917E+03  0.53942162917E+03  0.00000000000E+00 0.  1.
         21   -1    0    0  501  503 -0.00000000000E+00 -0.00000000000E+00 -0.17293834613E+03  0.17293834613E+03  0.00000000000E+00 0.  1.
          6    2    1    2  501    0 -0.77023453527E+02  0.22527360955E+03  0.28126293052E+03  0.40685563855E+03  0.17245829348E+03 0.  0.
         24    2    3    3    0    0 -0.78302607008E+02  0.74585440612E+02  0.85924810086E+02  0.16010144551E+03  0.80963656360E+02 0.  0.
         -6    2    1    2    0  502  0.77023453527E+02 -0.22527360955E+03  0.85220352524E+02  0.30550433674E+03  0.17143389318E+03 0.  0.
        -24    2    5    5    0    0  0.78000534699E+02 -0.70618856420E+02  0.90575288257E+01  0.13304589808E+03  0.80920120316E+02 0.  0.
          5    1    3    3  501    0  0.12791534812E+01  0.15068816893E+03  0.19533812043E+03  0.24675419304E+03  0.47000000000E+01 0. -1.
        -13    1    4    4    0    0 -0.20420626325E+02 -0.16853903934E+02  0.21901575504E+02  0.34361825721E+02  0.00000000000E+00 0.  1.
         14    1    4    4    0    0 -0.57881980683E+02  0.91439344546E+02  0.64023234582E+02  0.12573961979E+03  0.00000000000E+00 0. -1.
         -5    1    5    5    0  502 -0.97708117173E+00 -0.15465475313E+03  0.76162823699E+02  0.17245843866E+03  0.47000000000E+01 0.  1.
         11    1    6    6    0    0  0.44300798115E+02 -0.64168425715E+02  0.39290615682E+02  0.87314947478E+02  0.00000000000E+00 0. -1.
        -12    1    6    6    0    0  0.33699736584E+02 -0.64504307052E+01 -0.30233086856E+02  0.45730950602E+02  0.00000000000E+00 0.  1.
</event>
<event>
12    1  0.1032880E+000  0.2516806E+03  0.7818608E-02  0.1112546E+00
         21   -1    0    0  501  502  0.00000000000E+00  0.00000000000E+00  0.99615124850E+02  0.99615124850E+02  0.00000000000E+00 0.  1.
         21   -1    0    0  502  503 -0.00000000000E+00 -0.00000000000E+00 -0.63326942796E+03  0.63326942796E+03  0.00000000000E+00 0.  1.
         -6    2    1    2    0  503 -0.13125151041E+03 -0.12539343123E+03 -0.24635555932E+03  0.35218485022E+03  0.17433483741E+03 0.  0.
        -24    2    3    3    0    0 -0.94013803143E+02 -0.14773579942E+03 -0.24067010889E+03  0.30813666518E+03  0.79759899077E+02 0.  0.
          6    2    1    2  501    0  0.13125151041E+03  0.12539343123E+03 -0.28729874379E+03  0.38069970258E+03  0.17158445089E+03 0.  0.
         24    2    5    5    0    0  0.57021807345E+02  0.96914778729E+02 -0.84677522557E+02  0.16298766397E+03  0.82162856152E+02 0.  0.
          5    1    5    5  501    0  0.74229703067E+02  0.28478652503E+02 -0.20262122123E+03  0.21771203862E+03  0.47000000000E+01 0. -1.
        -13    1    6    6    0    0 -0.45685946903E-01 -0.85411800645E+01 -0.30019093541E+02  0.31210572265E+02  0.00000000000E+00 0.  1.
         14    1    6    6    0    0  0.57067493292E+02  0.10545595879E+03 -0.54658429016E+02  0.13177709170E+03  0.00000000000E+00 0. -1.
         -5    1    3    3    0  503 -0.37237707269E+02  0.22342368189E+02 -0.56854504293E+01  0.44048185043E+02  0.47000000000E+01 0.  1.
         13    1    4    4    0    0 -0.27244385004E+02  0.14207878370E+01 -0.50489945868E+02  0.57389108601E+02  0.00000000000E+00 0. -1.
        -14    1    4    4    0    0 -0.66769418139E+02 -0.14915658726E+03 -0.19018016302E+03  0.25074755658E+03  0.00000000000E+00 0.  1.
</event>
<event>
12    1  0.1032880E+000  0.2287592E+03  0.7818608E-02  0.1127698E+00
         21   -1    0    0  503  502  0.00000000000E+00  0.00000000000E+00  0.36611427808E+03  0.36611427808E+03  0.00000000000E+00 0.  1.
         21   -1    0    0  501  503 -0.00000000000E+00 -0.00000000000E+00 -0.14261762847E+03  0.14261762847E+03  0.00000000000E+00 0.  1.
          6    2    1    2  501    0  0.13836728566E+03  0.58204307009E+02  0.12356320901E+03  0.25909720076E+03  0.17126075360E+03 0.  0.
         24    2    3    3    0    0  0.12571027747E+03  0.14040221164E+02  0.14457266233E+03  0.20836108479E+03  0.80702449110E+02 0.  0.
         -6    2    1    2    0  502 -0.13836728566E+03 -0.58204307009E+02  0.99933440603E+02  0.24963470579E+03  0.17261965905E+03 0.  0.
        -24    2    5    5    0    0 -0.13232683603E+03 -0.10091032720E+03  0.72198657128E+02  0.19814102262E+03  0.79711561816E+02 0.  0.
          5    1    3    3  501    0  0.12657008195E+02  0.44164085845E+02 -0.21009453315E+02  0.50736115969E+02  0.47000000000E+01 0. -1.
        -11    1    4    4    0    0 -0.71522867068E+01  0.14926008016E+02  0.10473906514E+02  0.19586823073E+02  0.00000000000E+00 0.  1.
         12    1    4    4    0    0  0.13286256417E+03 -0.88578685163E+00  0.13409875581E+03  0.18877426172E+03  0.00000000000E+00 0. -1.
         -5    1    5    5    0  502 -0.60404496376E+01  0.42706020187E+02  0.27734783476E+02  0.51493683170E+02  0.47000000000E+01 0.  1.
         13    1    6    6    0    0 -0.10837302995E+03 -0.53142527193E+02  0.18012833727E+02  0.12203812517E+03  0.00000000000E+00 0. -1.
        -14    1    6    6    0    0 -0.23953806079E+02 -0.47767800003E+02  0.54185823401E+02  0.76102897451E+02  0.00000000000E+00 0.  1.
</event>
<event>
12    1  0.1032880E+000  0.1828213E+03  0.7818608E-02  0.1165216E+00
         21   -1    0    0  503  502  0.00000000000E+00  0.00000000000E+00  0.10004518760E+04  0.10004518760E+04  0.00000000000E+00 0. -1.
         21   -1    0    0  501  503 -0.00000000000E+00 -0.00000000000E+00 -0.49603148676E+02  0.49603148676E+02  0.00000000000E+00 0. -1.
          6    2    1    2  501    0  0.15470804208E+02 -0.58187558558E+02  0.17503144412E+03  0.25310001304E+03  0.17262234043E+03 0.  0.
         24    2    3    3    0    0 -0.38431250683E+02 -0.47430753012E+02  0.16631713844E+03  0.19725048743E+03  0.86716358844E+02 0.  0.
         -6    2    1    2    0  502 -0.15470804208E+02  0.58187558558E+02  0.77581728326E+03  0.79695501169E+03  0.17210373589E+03 0.  0.
        -24    2    5    5    0    0 -0.52666059341E+02  0.22917948481E+02  0.21156462931E+03  0.23035940645E+03  0.70759575983E+02 0.  0.
          5    1    3    3  501    0  0.53902054892E+02 -0.10756805546E+02  0.87143056772E+01  0.55849525607E+02  0.47000000000E+01 0. -1.
        -11    1    4    4    0    0 -0.35276808236E+02 -0.46653247458E+02  0.39924892614E+02  0.70816493474E+02  0.00000000000E+00 0.  1.
         12    1    4    4    0    0 -0.31544424476E+01 -0.77750555333E+00  0.12639224583E+03  0.12643399395E+03  0.00000000000E+00 0. -1.
         -5    1    5    5    0  502  0.37195255132E+02  0.35269610077E+02  0.56425265394E+03  0.56659560524E+03  0.47000000000E+01 0.  1.
         11    1    6    6    0    0 -0.86951395262E+01  0.38685625027E+02  0.61339154945E+02  0.73038859277E+02  0.00000000000E+00 0. -1.
        -12    1    6    6    0    0 -0.43970919814E+02 -0.15767676545E+02  0.15022547437E+03  0.15732054717E+03  0.00000000000E+00 0.  1.
</event>
<event>
12    1  0.1032880E+000  0.4019739E+03  0.7818608E-02  0.1043217E+00
         21   -1    0    0  503  502  0.00000000000E+00  0.00000000000E+00  0.25585028008E+03  0.25585028008E+03  0.00000000000E+00 0.  1.
         21   -1    0    0  501  503 -0.00000000000E+00 -0.00000000000E+00 -0.63119589786E+03  0.63119589786E+03  0.00000000000E+00 0. -1.
          6    2    1    2  501    0  0.26266246808E+03 -0.25038113111E+03 -0.21175070359E+03  0.45433618587E+03  0.17291826498E+03 0.  0.
         24    2    3    3    0    0  0.25192447840E+03 -0.15401559269E+03 -0.16771451090E+03  0.34773929247E+03  0.74884662968E+02 0.  0.
         -6    2    1    2    0  502 -0.26266246808E+03  0.25038113111E+03 -0.16359491420E+03  0.43270999207E+03  0.16968311151E+03 0.  0.
        -24    2    5    5    0    0 -0.36481357020E+02  0.10548229478E+03 -0.31451736851E+02  0.13331480659E+03  0.65774022091E+02 0.  0.
          5    1    3    3  501    0  0.10737989682E+02 -0.96365538417E+02 -0.44036192686E+02  0.10659689340E+03  0.47000000000E+01 0. -1.
        -13    1    4    4    0    0  0.10780269771E+03 -0.61350032298E+02 -0.29240837911E+02  0.12743733636E+03  0.00000000000E+00 0.  1.
         14    1    4    4    0    0  0.14412178069E+03 -0.92665560396E+02 -0.13847367299E+03  0.22030195610E+03  0.00000000000E+00 0. -1.
         -5    1    5    5    0  502 -0.22618111106E+03  0.14489883633E+03 -0.13214317735E+03  0.29939518548E+03  0.47000000000E+01 0.  1.
         13    1    6    6    0    0 -0.22206300264E+02  0.11537853728E+02  0.13234741864E+02  0.28309013270E+02  0.00000000000E+00 0. -1.
        -14    1    6    6    0    0 -0.14275056755E+02  0.93944441053E+02 -0.44686478715E+02  0.10500579332E+03  0.00000000000E+00 0.  1.
</event>
<event>
12    1  0.1032880E+000  0.1996302E+03  0.7818608E-02  0.1150108E+00
         21   -1    0    0  503  502  0.00000000000E+00  0.00000000000E+00  0.13999483064E+03  0.13999483064E+03  0.00000000000E+00 0.  1.
         21   -1    0    0  501  503 -0.00000000000E+00 -0.00000000000E+00 -0.60652999537E+03  0.60652999537E+03  0.00000000000E+00 0.  1.
          6    2    1    2  501    0  0.96985788314E+02 -0.29539898486E+02 -0.50541160737E+03  0.54340878301E+03  0.17196907817E+03 0.  0.
         24    2    3    3    0    0  0.28101631553E+02 -0.17576559260E+02 -0.43753329994E+03  0.44585006655E+03  0.79045911661E+02 0.  0.
         -6    2    1    2    0  502 -0.96985788314E+02  0.29539898486E+02  0.38876442650E+02  0.20311604300E+03  0.17165634388E+03 0.  0.
        -24    2    5    5    0    0 -0.80957641645E+02  0.15273681570E+02 -0.38628304508E+02  0.12255859603E+03  0.82103827326E+02 0.  0.
          5    1    3    3  501    0  0.68884156761E+02 -0.11963339226E+02 -0.67878307427E+02  0.97558716460E+02  0.47000000000E+01 0. -1.
        -13    1    4    4    0    0 -0.12930314218E+02  0.23391736875E+02 -0.10825885278E+03  0.11150939684E+03  0.00000000000E+00 0.  1.
         14    1    4    4    0    0  0.41031945770E+02 -0.40968296135E+02 -0.32927444717E+03  0.33434066970E+03  0.00000000000E+00 0. -1.
         -5    1    5    5    0  502 -0.16028146668E+02  0.14266216916E+02  0.77504747158E+02  0.80557446973E+02  0.47000000000E+01 0.  1.
         11    1    6    6    0    0  0.10919894301E+02  0.20052738802E+02 -0.14802661716E+00  0.22833710537E+02  0.00000000000E+00 0. -1.
        -12    1    6    6    0    0 -0.91877535946E+02 -0.47790572322E+01 -0.38480277891E+02  0.99724885491E+02  0.00000000000E+00 0.  1.
</event>
<event>
12    1  0.1032880E+000  0.2272736E+03  0.7818608E-02  0.1128761E+00
         21   -1    0    0  501  502  0.00000000000E+00  0.00000000000E+00  0.79730468813E+03  0.79730468813E+03  0.00000000000E+00 0. -1.
         21   -1    0    0  502  503 -0.00000000000E+00 -0.00000000000E+00 -0.99783308187E+02  0.99783308187E+02  0.00000000000E+00 0. -1.
         -6    2    1    2    0  503 -0.10952540723E+03 -0.10061936294E+03  0.61501249010E+03  0.65530085113E+03  0.17046633532E+03 0.  0.
        -24    2    3    3    0    0 -0.14053313264E+03 -0.60714567540E+02  0.41888518213E+03  0.45271288835E+03  0.77771096095E+02 0.  0.
          6    2    1    2  501    0  0.10952540723E+03  0.10061936294E+03  0.82508889841E+02  0.24178714519E+03  0.17185236585E+03 0.  0.
         24    2    5    5    0    0  0.86268510959E+02  0.11662381692E+03  0.12366861891E+02  0.16603082627E+03  0.79811812056E+02 0.  0.
          5    1    5    5  501    0  0.23256896272E+02 -0.16004453978E+02  0.70142027950E+02  0.75756318920E+02  0.47000000000E+01 0. -1.
        -11    1    6    6    0    0  0.64262426757E+02  0.36840938471E+02 -0.20693269283E+02  0.76909853945E+02  0.00000000000E+00 0.  1.
         12    1    6    6    0    0  0.22006084202E+02  0.79782878446E+02  0.33060131175E+02  0.89120972326E+02  0.00000000000E+00 0. -1.
         -5    1    3    3    0  503  0.31007725405E+02 -0.39904795399E+02  0.19612730797E+03  0.20258796278E+03  0.47000000000E+01 0.  1.
         11    1    4    4    0    0 -0.28220019525E+02 -0.33175792448E+02  0.50929690337E+02  0.67013700572E+02  0.00000000000E+00 0. -1.
        -12    1    4    4    0    0 -0.11231311311E+03 -0.27538775092E+02  0.36795549179E+03  0.38569918777E+03  0.00000000000E+00 0.  1.
</event>
<event>
12    1  0.1032880E+000  0.2006499E+03  0.7818608E-02  0.1149233E+00
         21   -1    0    0  503  502  0.00000000000E+00  0.00000000000E+00  0.15617132756E+03  0.15617132756E+03  0.00000000000E+00 0. -1.
         21   -1    0    0  501  503 -0.00000000000E+00 -0.00000000000E+00 -0.36276794857E+03  0.36276794857E+03  0.00000000000E+00 0. -1.
          6    2    1    2  501    0  0.99426136062E+02  0.25913252042E+02  0.36482025190E+02  0.20374473983E+03  0.17211602970E+03 0.  0.
         24    2    3    3    0    0  0.61588061570E+02 -0.31163937376E+01  0.88221905868E+02  0.13322137158E+03  0.78498585554E+02 0.  0.
         -6    2    1    2    0  502 -0.99426136062E+02 -0.25913252042E+02 -0.24307864620E+03  0.31519453630E+03  0.17234649492E+03 0.  0.
        -24    2    5    5    0    0 -0.65368225144E+01  0.36122973503E+02 -0.11759139846E+03  0.14712890270E+03  0.80446117091E+02 0.  0.
          5    1    3    3  501    0  0.37838074492E+02  0.29029645779E+02 -0.51739880679E+02  0.70523368241E+02  0.47000000000E+01 0. -1.
        -13    1    4    4    0    0  0.44995483808E+02 -0.27502382314E+02  0.89297242724E+02  0.10370618185E+03  0.00000000000E+00 0.  1.
         14    1    4    4    0    0  0.16592577762E+02  0.24385988576E+02 -0.10753368554E+01  0.29515189733E+02  0.00000000000E+00 0. -1.
         -5    1    5    5    0  502 -0.92889313548E+02 -0.62036225545E+02 -0.12548724774E+03  0.16806563360E+03  0.47000000000E+01 0.  1.
         11    1    6    6    0    0  0.51521656935E+01 -0.12941181560E+02 -0.87066994659E+02  0.88174148992E+02  0.00000000000E+00 0. -1.
        -12    1    6    6    0    0 -0.11688988208E+02  0.49064155063E+02 -0.30524403799E+02  0.58954753707E+02  0.00000000000E+00 0.  1.
</event>
<event>
12    1  0.1032880E+000  0.1747333E+03  0.7818608E-02  0.1177140E+00
         21   -1    0    0  501  502  0.00000000000E+00  0.00000000000E+00  0.66277226110E+03  0.66277226110E+03  0.00000000000E+00 0.  1.
         21   -1    0    0  502  503 -0.00000000000E+00 -0.00000000000E+00 -0.68977911137E+02  0.68977911137E+02  0.00000000000E+00 0.  1.
         -6    2    1    2    0  503 -0.11377521181E+02 -0.27585347479E+02  0.51693812764E+03  0.54086115838E+03  0.15625416938E+03 0.  0.
        -24    2    3    3    0    0 -0.56476158891E+02  0.88112371137E+01  0.38139975709E+03  0.39337780886E+03  0.77544383239E+02 0.  0.
          6    2    1    2  501    0  0.11377521181E+02  0.27585347479E+02  0.76856222317E+02  0.19088901386E+03  0.17216659757E+03 0.  0.
         24    2    5    5    0    0  0.64907746560E+00  0.18656809034E+02  0.11835688748E+03  0.14685251181E+03  0.84904708865E+02 0.  0.
          5    1    5    5  501    0  0.10728443715E+02  0.89285384449E+01 -0.41500665162E+02  0.44036502043E+02  0.47000000000E+01 0. -1.
        -13    1    6    6    0    0 -0.17717126406E+02 -0.29133418795E+02  0.61662910431E+02  0.70462523241E+02  0.00000000000E+00 0.  1.
         14    1    6    6    0    0  0.18366203871E+02  0.47790227828E+02  0.56693977048E+02  0.76389988572E+02  0.00000000000E+00 0. -1.
         -5    1    3    3    0  503  0.45098637711E+02 -0.36396584592E+02  0.13553837056E+03  0.14748334952E+03  0.47000000000E+01 0.  1.
         13    1    4    4    0    0 -0.21001897973E+02 -0.23219735999E+02  0.27449984119E+03  0.27627956615E+03  0.00000000000E+00 0. -1.
        -14    1    4    4    0    0 -0.35474260919E+02  0.32030973113E+02  0.10689991590E+03  0.11709824271E+03  0.00000000000E+00 0.  1.
</event>
<event>
12    1  0.1032880E+000  0.2137014E+03  0.7818608E-02  0.1139338E+00
         21   -1    0    0  501  502  0.00000000000E+00  0.00000000000E+00  0.48756489957E+03  0.48756489957E+03  0.00000000000E+00 0.  1.
         21   -1    0    0  502  503 -0.00000000000E+00 -0.00000000000E+00 -0.10050440812E+03  0.10050440812E+03  0.00000000000E+00 0.  1.
         -6    2    1    2    0  503 -0.35332151361E+02  0.11732700220E+03  0.11028844539E+03  0.24048250661E+03  0.17508371835E+03 0.  0.
        -24    2    3    3    0    0 -0.89914681683E+02  0.76349752582E+02  0.59906829326E+02  0.15551907423E+03  0.81752183759E+02 0.  0.
          6    2    1    2  501    0  0.35332151361E+02 -0.11732700220E+03  0.27677204606E+03  0.34758680108E+03  0.17087958462E+03 0.  0.
         24    2    5    5    0    0  0.52844329115E+02 -0.81916882081E+02  0.89071985780E+02  0.15571716929E+03  0.82529506665E+02 0.  0.
          5    1    5    5  501    0 -0.17512177754E+02 -0.35410120122E+02  0.18770006028E+03  0.19186963179E+03  0.47000000000E+01 0. -1.
        -11    1    6    6    0    0  0.21953081828E+01 -0.31481577162E+02 -0.10399968297E+02  0.33227525024E+02  0.00000000000E+00 0.  1.
         12    1    6    6    0    0  0.50649020933E+02 -0.50435304919E+02  0.99471954078E+02  0.12248964426E+03  0.00000000000E+00 0. -1.
         -5    1    3    3    0  503  0.54582530322E+02  0.40977249621E+02  0.50381616066E+02  0.84963432371E+02  0.47000000000E+01 0.  1.
         11    1    4    4    0    0 -0.73521225940E+02  0.26966267319E+02  0.66928001670E+02  0.10301411381E+03  0.00000000000E+00 0. -1.
        -12    1    4    4    0    0 -0.16393455744E+02  0.49383485264E+02 -0.70211723436E+01  0.52504960424E+02  0.00000000000E+00 0.  1.
</event>
<event>
12    1  0.1032880E+000  0.1887105E+03  0.7818608E-02  0.1159987E+00
         21   -1    0    0  503  502  0.00000000000E+00  0.00000000000E+00  0.37755476921E+03  0.37755476921E+03  0.00000000000E+00 0.  1.
         21   -1    0    0  501  503 -0.00000000000E+00 -0.00000000000E+00 -0.10953693184E+03  0.10953693184E+03  0.00000000000E+00 0.  1.
          6    2    1    2  501    0  0.52520090751E+02  0.55522117258E+02  0.22755111775E+03  0.29561993566E+03  0.17254150148E+03 0.  0.
         24    2    3    3    0    0 -0.23081040998E+02  0.52584883629E+02  0.77689084657E+02  0.12767685772E+03  0.83473838317E+02 0.  0.
         -6    2    1    2    0  502 -0.52520090751E+02 -0.55522117258E+02  0.40466719629E+02  0.19147176539E+03  0.17082978695E+03 0.  0.
        -24    2    5    5    0    0  0.28655122566E+02 -0.38585433970E+02 -0.11078176485E+02  0.93720894229E+02  0.79692711442E+02 0.  0.
          5    1    3    3  501    0  0.75601131750E+02  0.29372336285E+01  0.14986203309E+03  0.16794307793E+03  0.47000000000E+01 0. -1.
        -11    1    4    4    0    0 -0.40441499149E+01  0.42229841946E+01  0.75427579495E+02  0.75653872951E+02  0.00000000000E+00 0.  1.
         12    1    4    4    0    0 -0.19036891083E+02  0.48361899435E+02  0.22615051625E+01  0.52022984773E+02  0.00000000000E+00 0. -1.
         -5    1    5    5    0  502 -0.81175213318E+02 -0.16936683288E+02  0.51544896114E+02  0.97750871164E+02  0.47000000000E+01 0.  1.
         11    1    6    6    0    0 -0.83915727188E+01 -0.47966828424E+01  0.28338456274E+02  0.29941522389E+02  0.00000000000E+00 0. -1.
        -12    1    6    6    0    0  0.37046695285E+02 -0.33788751127E+02 -0.39416632759E+02  0.63779371840E+02  0.00000000000E+00 0.  1.
</event>
<event>
12    1  0.1032880E+000  0.2170464E+03  0.7818608E-02  0.1136249E+00
         21   -1    0    0  503  502  0.00000000000E+00  0.00000000000E+00  0.11293496086E+03  0.11293496086E+03  0.00000000000E+00 0.  1.
         21   -1    0    0  501  503 -0.00000000000E+00 -0.00000000000E+00 -0.50280252805E+03  0.50280252805E+03  0.00000000000E+00 0.  1.
          6    2    1    2  501    0 -0.64679718888E+02 -0.11478706188E+03 -0.66492526809E+02  0.22627561438E+03  0.17152219078E+03 0.  0.
         24    2    3    3    0    0 -0.19890006295E+02 -0.46099681178E+02 -0.98843263604E+02  0.13799914643E+03  0.82176521593E+02 0.  0.
         -6    2    1    2    0  502  0.64679718888E+02  0.11478706188E+03 -0.32337504038E+03  0.38946187453E+03  0.17248072172E+03 0.  0.
        -24    2    5    5    0    0  0.10844957917E+03  0.10790898229E+03 -0.24926064074E+03  0.30298561836E+03  0.79143908357E+02 0.  0.
          5    1    3    3  501    0 -0.44789712593E+02 -0.68687380703E+02  0.32350736795E+02  0.88276467947E+02  0.47000000000E+01 0. -1.
        -11    1    4    4    0    0 -0.17186411023E+02  0.18068624293E+02 -0.69514438963E+01  0.25887651109E+02  0.00000000000E+00 0.  1.
         12    1    4    4    0    0 -0.27035952721E+01 -0.64168305471E+02 -0.91891819708E+02  0.11211149532E+03  0.00000000000E+00 0. -1.
         -5    1    5    5    0  502 -0.43769860284E+02  0.68780795957E+01 -0.74114399639E+02  0.86476256175E+02  0.47000000000E+01 0.  1.
         13    1    6    6    0    0  0.35219169702E+02  0.77122714462E-01 -0.93304768693E+02  0.99730515506E+02  0.00000000000E+00 0. -1.
        -14    1    6    6    0    0  0.73230409470E+02  0.10783185957E+03 -0.15595587205E+03  0.20325510285E+03  0.00000000000E+00 0.  1.
</event>
<event>
12    1  0.1032880E+000  0.2754535E+03  0.7818608E-02  0.1098222E+00
         21   -1    0    0  503  502  0.00000000000E+00  0.00000000000E+00  0.18650110796E+03  0.18650110796E+03  0.00000000000E+00 0. -1.
         21   -1    0    0  501  503 -0.00000000000E+00 -0.00000000000E+00 -0.79819601290E+03  0.79819601290E+03  0.00000000000E+00 0. -1.
          6    2    1    2  501    0  0.21446579729E+03 -0.15967736929E+02  0.39064336119E+02  0.27804147718E+03  0.17184438847E+03 0.  0.
         24    2    3    3    0    0  0.60168293587E+02  0.26724575744E+02 -0.25467869911E+02  0.10536591775E+03  0.78223639164E+02 0.  0.
         -6    2    1    2    0  502 -0.21446579729E+03  0.15967736929E+02 -0.65075924106E+03  0.70665564367E+03  0.17211642014E+03 0.  0.
        -24    2    5    5    0    0 -0.11120489259E+03 -0.63302116604E+02 -0.28133432639E+03  0.31493714565E+03  0.60520380040E+02 0.  0.
          5    1    3    3  501    0  0.15429750370E+03 -0.42692312674E+02  0.64532206030E+02  0.17267555943E+03  0.47000000000E+01 0. -1.
        -13    1    4    4    0    0  0.34499882925E+02 -0.18203031006E+02 -0.35402555953E+02  0.52677634985E+02  0.00000000000E+00 0.  1.
         14    1    4    4    0    0  0.25668410663E+02  0.44927606750E+02  0.99346860421E+01  0.52688282768E+02  0.00000000000E+00 0. -1.
         -5    1    5    5    0  502 -0.10326090470E+03  0.79269853533E+02 -0.36942491467E+03  0.39171849803E+03  0.47000000000E+01 0.  1.
         11    1    6    6    0    0 -0.51457783731E+01 -0.26706712736E+02 -0.79385034246E+02  0.83914904531E+02  0.00000000000E+00 0. -1.
        -12    1    6    6    0    0 -0.10605911421E+03 -0.36595403868E+02 -0.20194929215E+03  0.23102224112E+03  0.00000000000E+00 0.  1.
</event>
<event>
12    1  0.1032880E+000  0.2181939E+03  0.7818608E-02  0.1135720E+00
         21   -1    0    0  501  502  0.00000000000E+00  0.00000000000E+00  0.31814062396E+03  0.31814062396E+03  0.00000000000E+00 0. -1.
         21   -1    0    0  502  503 -0.00000000000E+00 -0.00000000000E+00 -0.14802498528E+03  0.14802498528E+03  0.00000000000E+00 0. -1.
         -6    2    1    2    0  503 -0.12912895054E+03 -0.19719530194E+02  0.77922102170E+02  0.22929390170E+03  0.17158290594E+03 0.  0.
        -24    2    3    3    0    0 -0.12443184849E+03 -0.62419523473E+02  0.90233226968E+02  0.18436055120E+03  0.80419498626E+02 0.  0.
          6    2    1    2  501    0  0.12912895054E+03  0.19719530194E+02  0.92193536511E+02  0.23687170754E+03  0.17477245755E+03 0.  0.
         24    2    5    5    0    0  0.13897266567E+03 -0.33624659792E+02  0.71910091015E+02  0.17876826965E+03  0.79643037968E+02 0.  0.
          5    1    5    5  501    0 -0.98437151269E+01  0.53344189985E+02  0.20283445496E+02  0.58103437883E+02  0.47000000000E+01 0. -1.
        -13    1    6    6    0    0  0.11392330817E+01 -0.18381118455E+02  0.27613614285E+02  0.33191490801E+02  0.00000000000E+00 0.  1.
         14    1    6    6    0    0  0.13783343259E+03 -0.15243541336E+02  0.44296476730E+02  0.14557677885E+03  0.00000000000E+00 0. -1.
         -5    1    3    3    0  503 -0.46971020482E+01  0.42699993279E+02 -0.12311124798E+02  0.44933350504E+02  0.47000000000E+01 0.  1.
         11    1    4    4    0    0  0.10417082399E+02 -0.10994047125E+02  0.16129265219E+02  0.22125502805E+02  0.00000000000E+00 0. -1.
        -12    1    4    4    0    0 -0.13484893089E+03 -0.51425476348E+02  0.74103961749E+02  0.16223504839E+03  0.00000000000E+00 0.  1.
</event>
<event>
12    1  0.1032880E+000  0.3808707E+03  0.7818608E-02  0.1050699E+00
         21   -1    0    0  503  502  0.00000000000E+00  0.00000000000E+00  0.47997337964E+03  0.47997337964E+03  0.00000000000E+00 0. -1.
         21   -1    0    0  501  503 -0.00000000000E+00 -0.00000000000E+00 -0.30153622961E+03  0.30153622961E+03  0.00000000000E+00 0.  1.
          6    2    1    2  501    0 -0.28665282663E+03 -0.18124738639E+03  0.94394200604E+02  0.39239359219E+03  0.17332630498E+03 0.  0.
         24    2    3    3    0    0 -0.28183580260E+03 -0.16909336497E+03  0.12383559526E+03  0.35983887400E+03  0.78260941007E+02 0.  0.
         -6    2    1    2    0  502  0.28665282663E+03  0.18124738639E+03  0.84042949421E+02  0.38911601706E+03  0.17125302712E+03 0.  0.
        -24    2    5    5    0    0  0.23391031723E+03  0.19369646546E+03  0.10556646336E+03  0.33061726904E+03  0.77013915385E+02 0.  0.
          5    1    3    3  501    0 -0.48170240328E+01 -0.12154021419E+02 -0.29441394656E+02  0.32554718190E+02  0.47000000000E+01 0. -1.
        -13    1    4    4    0    0 -0.13056434327E+02  0.75230729561E+01 -0.37212747720E+00  0.15073340138E+02  0.00000000000E+00 0.  1.
         14    1    4    4    0    0 -0.26877936827E+03 -0.17661643793E+03  0.12420772274E+03  0.34476553386E+03  0.00000000000E+00 0. -1.
         -5    1    5    5    0  502  0.52742509396E+02 -0.12449079070E+02 -0.21523513941E+02  0.58498748016E+02  0.47000000000E+01 0.  1.
         11    1    6    6    0    0  0.11065659875E+03  0.10178602328E+03  0.12442615611E+02  0.15086449571E+03  0.00000000000E+00 0. -1.
        -12    1    6    6    0    0  0.12325371849E+03  0.91910442180E+02  0.93123847751E+02  0.17975277334E+03  0.00000000000E+00 0.  1.
</event>
<event>
12    1  0.1032880E+000  0.3245027E+03  0.7818608E-02  0.1073680E+00
         21   -1    0    0  503  502  0.00000000000E+00  0.00000000000E+00  0.40128728830E+03  0.40128728830E+03  0.00000000000E+00 0.  1.
         21   -1    0    0  501  503 -0.00000000000E+00 -0.00000000000E+00 -0.34898860380E+03  0.34898860380E+03  0.00000000000E+00 0.  1.
          6    2    1    2  501    0  0.27453644642E+03  0.17911030383E+02  0.21367004255E+03  0.38853170613E+03  0.17207827918E+03 0.  0.
         24    2    3    3    0    0  0.57620765598E+02  0.40420504254E+02  0.80162349562E+02  0.13278674902E+03  0.79071794188E+02 0.  0.
         -6    2    1    2    0  502 -0.27453644642E+03 -0.17911030383E+02 -0.16137135804E+03  0.36174418597E+03  0.17066656224E+03 0.  0.
        -24    2    5    5    0    0 -0.20796858645E+03  0.48691194454E+02 -0.10577440305E+03  0.25228986793E+03  0.82705427578E+02 0.  0.
          5    1    3    3  501    0  0.21691568082E+03 -0.22509473871E+02  0.13350769298E+03  0.25574495711E+03  0.47000000000E+01 0. -1.
        -13    1    4    4    0    0  0.21000975784E+02  0.39498551549E+02  0.84787032101E+02  0.95864578291E+02  0.00000000000E+00 0.  1.
         14    1    4    4    0    0  0.36619789815E+02  0.92195270480E+00 -0.46246825396E+01  0.36922170731E+02  0.00000000000E+00 0. -1.
         -5    1    5    5    0  502 -0.66567859968E+02 -0.66602224837E+02 -0.55596954986E+02  0.10945431804E+03  0.47000000000E+01 0.  1.
         11    1    6    6    0    0 -0.84299494661E+02 -0.14614005776E+02 -0.16455585835E+02  0.87124969269E+02  0.00000000000E+00 0. -1.
        -12    1    6    6    0    0 -0.12366909179E+03  0.63305200231E+02 -0.89318817220E+02  0.16516489866E+03  0.00000000000E+00 0.  1.
</event>
<event>
12    1  0.1032880E+000  0.2592072E+03  0.7818608E-02  0.1108519E+00
         21   -1    0    0  501  502  0.00000000000E+00  0.00000000000E+00  0.22147629505E+04  0.22147629505E+04  0.00000000000E+00 0.  1.
         21   -1    0    0  502  503 -0.00000000000E+00 -0.00000000000E+00 -0.30395747645E+02  0.30395747645E+02  0.00000000000E+00 0.  1.
         -6    2    1    2    0  503  0.11567825374E+03 -0.14416913108E+03  0.12555591210E+04  0.12808595687E+04  0.17322335763E+03 0.  0.
        -24    2    3    3    0    0  0.77691520345E+01 -0.12954713519E+02  0.51347781504E+03  0.51956570147E+03  0.77851572115E+02 0.  0.
          6    2    1    2  501    0 -0.11567825374E+03  0.14416913108E+03  0.92880808189E+03  0.96429912949E+03  0.18172000828E+03 0.  0.
         24    2    5    5    0    0 -0.57320207400E+02  0.66002802859E+02  0.75955255010E+03  0.76888889056E+03  0.81412981100E+02 0.  0.
          5    1    5    5  501    0 -0.58358046336E+02  0.78166328225E+02  0.16925553179E+03  0.19541023894E+03  0.47000000000E+01 0. -1.
        -11    1    6    6    0    0  0.12693257699E+02  0.13324966993E+02  0.32885823266E+03  0.32937275346E+03  0.00000000000E+00 0.  1.
         12    1    6    6    0    0 -0.70013465099E+02  0.52677835866E+02  0.43069431744E+03  0.43951613709E+03  0.00000000000E+00 0. -1.
         -5    1    3    3    0  503  0.10790910170E+03 -0.13121441756E+03  0.74208130594E+03  0.76129386719E+03  0.47000000000E+01 0.  1.
         13    1    4    4    0    0  0.35155992526E+02  0.15822149367E+02  0.29462259537E+03  0.29713424226E+03  0.00000000000E+00 0. -1.
        -14    1    4    4    0    0 -0.27386840491E+02 -0.28776862887E+02  0.21885521968E+03  0.22243145922E+03  0.00000000000E+00 0.  1.
</event>
<event>
12    1  0.1032880E+000  0.3581748E+03  0.7818608E-02  0.1059322E+00
         21   -1    0    0  501  502  0.00000000000E+00  0.00000000000E+00  0.13503258202E+03  0.13503258202E+03  0.00000000000E+00 0.  1.
         21   -1    0    0  502  503 -0.00000000000E+00 -0.00000000000E+00 -0.15118883194E+04  0.15118883194E+04  0.00000000000E+00 0.  1.
         -6    2    1    2    0  503  0.51113863460E+02 -0.30986282252E+03 -0.11906350760E+04  0.12433427129E+04  0.17222549694E+03 0.  0.
        -24    2    3    3    0    0 -0.55266501739E+00 -0.23585088223E+03 -0.65552016748E+03  0.70064827516E+03  0.74668409855E+02 0.  0.
          6    2    1    2  501    0 -0.51113863460E+02  0.30986282252E+03 -0.18622066133E+03  0.40357818843E+03  0.17195820321E+03 0.  0.
         24    2    5    5    0    0 -0.46698697797E+02  0.12189733452E+03 -0.14673328551E+03  0.21140154777E+03  0.78231891085E+02 0.  0.
          5    1    5    5  501    0 -0.44151656626E+01  0.18796548799E+03 -0.39487375817E+02  0.19217664066E+03  0.47000000000E+01 0. -1.
        -11    1    6    6    0    0  0.16060344045E+02  0.24482108288E+02 -0.59643070372E+02  0.66442487314E+02  0.00000000000E+00 0.  1.
         12    1    6    6    0    0 -0.62759041842E+02  0.97415226235E+02 -0.87090215143E+02  0.14495906046E+03  0.00000000000E+00 0. -1.
         -5    1    3    3    0  503  0.51666528477E+02 -0.74011940288E+02 -0.53511490853E+03  0.54269443778E+03  0.47000000000E+01 0.  1.
         11    1    4    4    0    0 -0.24451317414E+02 -0.11893788204E+03 -0.41103729799E+03  0.42859741839E+03  0.00000000000E+00 0. -1.
        -12    1    4    4    0    0  0.23898652397E+02 -0.11691300019E+03 -0.24448286948E+03  0.27205085677E+03  0.00000000000E+00 0.  1.
</event>
<event>
12    1  0.1032880E+000  0.2465363E+03  0.7818608E-02  0.1115579E+00
         21   -1    0    0  501  502  0.00000000000E+00  0.00000000000E+00  0.49934413660E+03  0.49934413660E+03  0.00000000000E+00 0. -1.
         21   -1    0    0  502  503 -0.00000000000E+00 -0.00000000000E+00 -0.44343612763E+03  0.44343612763E+03  0.00000000000E+00 0. -1.
         -6    2    1    2    0  503  0.15598886571E+03  0.83364358945E+02 -0.37369230463E+03  0.44746565051E+03  0.17116491253E+03 0.  0.
        -24    2    3    3    0    0  0.96792427134E+01  0.56337298229E+02 -0.13522086395E+03  0.16634701752E+03  0.78224480062E+02 0.  0.
          6    2    1    2  501    0 -0.15598886571E+03 -0.83364358945E+02  0.42960031359E+03  0.49531461372E+03  0.17174980221E+03 0.  0.
         24    2    5    5    0    0 -0.15735537406E+02 -0.67035249858E+02  0.17467521358E+03  0.20385872938E+03  0.79407930600E+02 0.  0.
          5    1    5    5  501    0 -0.14025332831E+03 -0.16329109087E+02  0.25492510001E+03  0.29145588435E+03  0.47000000000E+01 0. -1.
        -11    1    6    6    0    0 -0.43792368508E+02 -0.62582371955E+02  0.13408583261E+03  0.15431570019E+03  0.00000000000E+00 0.  1.
         12    1    6    6    0    0  0.28056831102E+02 -0.44528779035E+01  0.40589380970E+02  0.49543029183E+02  0.00000000000E+00 0. -1.
         -5    1    3    3    0  503  0.14630962300E+03  0.27027060716E+02 -0.23847144068E+03  0.28111863299E+03  0.47000000000E+01 0.  1.
         11    1    4    4    0    0  0.14357546894E+02  0.19074883220E+02 -0.12523051399E+03  0.12748596768E+03  0.00000000000E+00 0. -1.
        -12    1    4    4    0    0 -0.46783041806E+01  0.37262415009E+02 -0.99903499600E+01  0.38861049840E+02  0.00000000000E+00 0.  1.
</event>
<event>
12    1  0.1032880E+000  0.4846672E+03  0.7818608E-02  0.1017865E+00
         21   -1    0    0  503  502  0.00000000000E+00  0.00000000000E+00  0.11720109428E+04  0.11720109428E+04  0.00000000000E+00 0.  1.
         21   -1    0    0  501  503 -0.00000000000E+00 -0.00000000000E+00 -0.20510511697E+03  0.20510511697E+03  0.00000000000E+00 0. -1.
          6    2    1    2  501    0  0.43195450241E+03 -0.13681269437E+03  0.37908662962E+03  0.61525404337E+03  0.17183846959E+03 0.  0.
         24    2    3    3    0    0  0.42202405697E+03 -0.15077005210E+03  0.32724511176E+03  0.56045391056E+03  0.78634022033E+02 0.  0.
         -6    2    1    2    0  502 -0.43195450241E+03  0.13681269437E+03  0.58781919618E+03  0.76186201638E+03  0.17204627028E+03 0.  0.
        -24    2    5    5    0    0 -0.29562695470E+03  0.16154526932E+03  0.41630993691E+03  0.54132989504E+03  0.78942519031E+02 0.  0.
          5    1    3    3  501    0  0.99304454386E+01  0.13957357730E+02  0.51841517860E+02  0.54800132805E+02  0.47000000000E+01 0. -1.
        -13    1    4    4    0    0  0.17517150168E+03 -0.91775267094E+02  0.17771456084E+03  0.26587632423E+03  0.00000000000E+00 0.  1.
         14    1    4    4    0    0  0.24685255529E+03 -0.58994785002E+02  0.14953055093E+03  0.29457758634E+03  0.00000000000E+00 0. -1.
         -5    1    5    5    0  502 -0.13632754771E+03 -0.24732574951E+02  0.17150925927E+03  0.22053212134E+03  0.47000000000E+01 0.  1.
         11    1    6    6    0    0 -0.20373742347E+03  0.12888721028E+03  0.24198201347E+03  0.34157890090E+03  0.00000000000E+00 0. -1.
        -12    1    6    6    0    0 -0.91889531232E+02  0.32658059035E+02  0.17432792344E+03  0.19975099415E+03  0.00000000000E+00 0.  1.
</event>
<event>
12    1  0.1032880E+000  0.2392983E+03  0.7818608E-02  0.1120435E+00
         21   -1    0    0  501  502  0.00000000000E+00  0.00000000000E+00  0.19880593480E+03  0.19880593480E+03  0.00000000000E+00 0. -1.
         21   -1    0    0  502  503 -0.00000000000E+00 -0.00000000000E+00 -0.28869280499E+03  0.28869280499E+03  0.00000000000E+00 0. -1.
         -6    2    1    2    0  503  0.10484400246E+03 -0.13043200240E+03 -0.64617344368E+02  0.24686991357E+03  0.16960124094E+03 0.  0.
        -24    2    3    3    0    0  0.33806413184E+02 -0.42571216083E+02 -0.89519251325E+02  0.13107677114E+03  0.78817774417E+02 0.  0.
          6    2    1    2  501    0 -0.10484400246E+03  0.13043200240E+03 -0.25269525828E+02  0.24062882623E+03  0.17105236325E+03 0.  0.
         24    2    5    5    0    0 -0.27666772331E+02 -0.71319408869E+01 -0.77947756594E+01  0.81859747889E+02  0.76314775273E+02 0.  0.
          5    1    5    5  501    0 -0.77177230125E+02  0.13756394329E+03 -0.17474750168E+02  0.15876907834E+03  0.47000000000E+01 0. -1.
        -11    1    6    6    0    0  0.84574219577E+01 -0.23303557089E+02  0.21342704214E+02  0.32712303226E+02  0.00000000000E+00 0.  1.
         12    1    6    6    0    0 -0.36124194289E+02  0.16171616202E+02 -0.29137479874E+02  0.49147444664E+02  0.00000000000E+00 0. -1.
         -5    1    3    3    0  503  0.71037589272E+02 -0.87860786319E+02  0.24901906957E+02  0.11579314242E+03  0.47000000000E+01 0.  1.
         13    1    4    4    0    0 -0.21146473884E+02  0.26327090991E+01 -0.77336418474E+01  0.22669665440E+02  0.00000000000E+00 0. -1.
        -14    1    4    4    0    0  0.54952887069E+02 -0.45203925182E+02 -0.81785609478E+02  0.10840710570E+03  0.00000000000E+00 0.  1.
</event>
<event>
12    1  0.1032880E+000  0.7066123E+03  0.7818608E-02  0.9706262E-01
         21   -1    0    0  503  502  0.00000000000E+00  0.00000000000E+00  0.73672134780E+03  0.73672134780E+03  0.00000000000E+00 0. -1.
         21   -1    0    0  501  503 -0.00000000000E+00 -0.00000000000E+00 -0.68099959904E+03  0.68099959904E+03  0.00000000000E+00 0.  1.
          6    2    1    2  501    0 -0.63230607012E+03  0.26292306007E+03  0.81357468252E+02  0.71064379181E+03  0.17162767662E+03 0.  0.
         24    2    3    3    0    0 -0.37445607513E+03  0.22590558357E+03  0.34463409681E+02  0.44592118943E+03  0.80045585075E+02 0.  0.
         -6    2    1    2    0  502  0.63230607012E+03 -0.26292306007E+03 -0.25635719488E+02  0.70707715502E+03  0.17424526168E+03 0.  0.
        -24    2    5    5    0    0  0.37431234655E+03 -0.98245239641E+02 -0.58189279472E+02  0.39924380691E+03  0.79042806253E+02 0.  0.
          5    1    3    3  501    0 -0.25784999499E+03  0.37017476497E+02  0.46894058572E+02  0.26472260238E+03  0.47000000000E+01 0. -1.
        -11    1    4    4    0    0 -0.29101427850E+02  0.37586208313E+02  0.21953080479E+02  0.52359850084E+02  0.00000000000E+00 0.  1.
         12    1    4    4    0    0 -0.34535464728E+03  0.18831937526E+03  0.12510329202E+02  0.39356133935E+03  0.00000000000E+00 0. -1.
         -5    1    5    5    0  502  0.25799372356E+03 -0.16467782043E+03  0.32553559984E+02  0.30783334811E+03  0.47000000000E+01 0.  1.
         13    1    6    6    0    0  0.33302083718E+03 -0.10362042882E+03 -0.32415072566E+02  0.35027247707E+03  0.00000000000E+00 0. -1.
        -14    1    6    6    0    0  0.41291509374E+02  0.53751891770E+01 -0.25774206906E+02  0.48971329844E+02  0.00000000000E+00 0.  1.
</event>
<event>
12    1  0.1032880E+000  0.1968932E+03  0.7818608E-02  0.1153112E+00
         21   -1    0    0  501  502  0.00000000000E+00  0.00000000000E+00  0.43572183803E+03  0.43572183803E+03  0.00000000000E+00 0.  1.
         21   -1    0    0  502  503 -0.00000000000E+00 -0.00000000000E+00 -0.97999549464E+02  0.97999549464E+02  0.00000000000E+00 0.  1.
         -6    2    1    2    0  503  0.68094168751E+02  0.61127162859E+02  0.82679530134E+02  0.21354822420E+03  0.17433758487E+03 0.  0.
        -24    2    3    3    0    0  0.86970483953E+02 -0.12628317141E+02  0.63068862751E+02  0.13479002221E+03  0.80419706328E+02 0.  0.
          6    2    1    2  501    0 -0.68094168751E+02 -0.61127162859E+02  0.25504275843E+03  0.32017316329E+03  0.17055996015E+03 0.  0.
         24    2    5    5    0    0 -0.12179621203E+02  0.42892120174E+01  0.41179789650E+02  0.89597366330E+02  0.78518612221E+02 0.  0.
          5    1    5    5  501    0 -0.55914547549E+02 -0.65416374877E+02  0.21386296878E+03  0.23057579696E+03  0.47000000000E+01 0. -1.
        -11    1    6    6    0    0 -0.45379736151E+02  0.37032782121E+00  0.29765187646E+02  0.54271760534E+02  0.00000000000E+00 0.  1.
         12    1    6    6    0    0  0.33200114948E+02  0.39188841961E+01  0.11414602005E+02  0.35325605796E+02  0.00000000000E+00 0. -1.
         -5    1    3    3    0  503 -0.18876315201E+02  0.73755480001E+02  0.19610667383E+02  0.78758201991E+02  0.47000000000E+01 0.  1.
         11    1    4    4    0    0 -0.90087728196E+01 -0.97236324637E+01 -0.78603329180E+01  0.15410770571E+02  0.00000000000E+00 0. -1.
        -12    1    4    4    0    0  0.95979256772E+02 -0.29046846777E+01  0.70929195669E+02  0.11937925164E+03  0.00000000000E+00 0.  1.
</event>
<event>
12    1  0.1032880E+000  0.1751031E+03  0.7818608E-02  0.1172635E+00
         21   -1    0    0  503  502  0.00000000000E+00  0.00000000000E+00  0.18763413362E+02  0.18763413362E+02  0.00000000000E+00 0.  1.
         21   -1    0    0  501  503 -0.00000000000E+00 -0.00000000000E+00 -0.22003733186E+04  0.22003733186E+04  0.00000000000E+00 0.  1.
          6    2    1    2  501    0 -0.11448806845E+02 -0.28242291361E+02 -0.16538823937E+04  0.16631259916E+04  0.17243082532E+03 0.  0.
         24    2    3    3    0    0  0.24736085903E+02 -0.58914050859E+02 -0.61762663835E+03  0.62577446786E+03  0.77770694297E+02 0.  0.
         -6    2    1    2    0  502  0.11448806845E+02  0.28242291361E+02 -0.52772751154E+03  0.55601074037E+03  0.17240334908E+03 0.  0.
        -24    2    5    5    0    0  0.16525472909E+02  0.27699853751E+01 -0.11134269269E+03  0.13879015329E+03  0.81146456255E+02 0.  0.
          5    1    3    3  501    0 -0.36184892748E+02  0.30671759498E+02 -0.10362557553E+04  0.10373515237E+04  0.47000000000E+01 0. -1.
        -13    1    4    4    0    0  0.19051083313E+02  0.17569568631E+01 -0.34310954523E+02  0.39284504236E+02  0.00000000000E+00 0.  1.
         14    1    4    4    0    0  0.56850025897E+01 -0.60671007722E+02 -0.58331568383E+03  0.58648996363E+03  0.00000000000E+00 0. -1.
         -5    1    5    5    0  502 -0.50766660642E+01  0.25472305985E+02 -0.41638481885E+03  0.41722058708E+03  0.47000000000E+01 0.  1.
         13    1    6    6    0    0  0.59861395037E+00  0.41149265394E+02 -0.59604718262E+02  0.72431642396E+02  0.00000000000E+00 0. -1.
        -14    1    6    6    0    0  0.15926858959E+02 -0.38379280019E+02 -0.51737974426E+02  0.66358510899E+02  0.00000000000E+00 0.  1.
</event>
<event>
12    1  0.1032880E+000  0.2529632E+03  0.7818608E-02  0.1111639E+00
         21   -1    0    0  501  502  0.00000000000E+00  0.00000000000E+00  0.23867167539E+03  0.23867167539E+03  0.00000000000E+00 0.  1.
         21   -1    0    0  502  503 -0.00000000000E+00 -0.00000000000E+00 -0.33938769262E+03  0.33938769262E+03  0.00000000000E+00 0.  1.
         -6    2    1    2    0  503 -0.78430872229E+02 -0.16766241308E+03  0.83210446783E+02  0.26629746048E+03  0.17241888681E+03 0.  0.
        -24    2    3    3    0    0 -0.44705354155E+02 -0.14011251157E+03 -0.65248841175E+01  0.16644293002E+03  0.77656875113E+02 0.  0.
          6    2    1    2  501    0  0.78430872229E+02  0.16766241308E+03 -0.18392646401E+03  0.31176190752E+03  0.17060028236E+03 0.  0.
         24    2    5    5    0    0  0.42413761151E+02  0.15069737954E+03 -0.66468698200E+02  0.18765122546E+03  0.79285983889E+02 0.  0.
          5    1    5    5  501    0  0.36017111077E+02  0.16965033543E+02 -0.11745776581E+03  0.12411068207E+03  0.47000000000E+01 0. -1.
        -11    1    6    6    0    0  0.71186939881E+01  0.49669957688E+02  0.15867990476E+02  0.52626738665E+02  0.00000000000E+00 0.  1.
         12    1    6    6    0    0  0.35295067163E+02  0.10102742185E+03 -0.82336688676E+02  0.13502448679E+03  0.00000000000E+00 0. -1.
         -5    1    3    3    0  503 -0.33725518073E+02 -0.27549901515E+02  0.89735330900E+02  0.99854530466E+02  0.47000000000E+01 0.  1.
         11    1    4    4    0    0 -0.20496781755E+02 -0.13553007191E+03  0.89243809240E+01  0.13736143210E+03  0.00000000000E+00 0. -1.
        -12    1    4    4    0    0 -0.24208572400E+02 -0.45824396605E+01 -0.15449265041E+02  0.29081497919E+02  0.00000000000E+00 0.  1.
</event>
<event>
12    1  0.1032880E+000  0.2461298E+03  0.7818608E-02  0.1115823E+00
         21   -1    0    0  503  502  0.00000000000E+00  0.00000000000E+00  0.22609384210E+02  0.22609384210E+02  0.00000000000E+00 0.  1.
         21   -1    0    0  501  503 -0.00000000000E+00 -0.00000000000E+00 -0.28949801083E+04  0.28949801083E+04  0.00000000000E+00 0. -1.
          6    2    1    2  501    0 -0.17514391591E+03  0.23465675363E+02 -0.10359565938E+04  0.10647938565E+04  0.17132969179E+03 0.  0.
         24    2    3    3    0    0 -0.20215958807E+03  0.18498916017E+02 -0.91993987293E+03  0.94547711512E+03  0.80167926626E+02 0.  0.
         -6    2    1    2    0  502  0.17514391591E+03 -0.23465675363E+02 -0.18364141303E+04  0.18527956361E+04  0.17090576904E+03 0.  0.
        -24    2    5    5    0    0  0.19618224477E+03 -0.39314792893E+02 -0.15154014656E+04  0.15306698428E+04  0.80470115901E+02 0.  0.
          5    1    3    3  501    0  0.27015672156E+02  0.49667593465E+01 -0.11601672090E+03  0.11931674136E+03  0.47000000000E+01 0. -1.
        -11    1    4    4    0    0 -0.74443647676E+02  0.41947059378E+02 -0.29167598455E+03  0.30393468449E+03  0.00000000000E+00 0.  1.
         12    1    4    4    0    0 -0.12771594039E+03 -0.23448143362E+02 -0.62826388838E+03  0.64154243063E+03  0.00000000000E+00 0. -1.
         -5    1    5    5    0  502 -0.21038328856E+02  0.15849117530E+02 -0.32101266470E+03  0.32212579329E+03  0.47000000000E+01 0.  1.
         13    1    6    6    0    0  0.41440724954E+02  0.67676466473E+01 -0.57308989789E+03  0.57462610956E+03  0.00000000000E+00 0. -1.
        -14    1    6    6    0    0  0.15474151981E+03 -0.46082439540E+02 -0.94231156771E+03  0.95604373322E+03  0.00000000000E+00 0.  1.
</event>
<event>
12    1  0.1032880E+000  0.3755438E+03  0.7818608E-02  0.1052924E+00
         21   -1    0    0  503  502  0.00000000000E+00  0.00000000000E+00  0.20258108441E+04  0.20258108441E+04  0.00000000000E+00 0. -1.
         21   -1    0    0  501  503 -0.00000000000E+00 -0.00000000000E+00 -0.69272790430E+02  0.69272790430E+02  0.00000000000E+00 0. -1.
          6    2    1    2  501    0  0.13010528884E+02 -0.33397856174E+03  0.90444045275E+03  0.97797016153E+03  0.16340792733E+03 0.  0.
         24    2    3    3    0    0 -0.86130105027E+01 -0.27312889947E+03  0.84017928911E+03  0.88674600899E+03  0.75786984005E+02 0.  0.
         -6    2    1    2    0  502 -0.13010528884E+02  0.33397856174E+03  0.10520976009E+04  0.11171134730E+04  0.17123725099E+03 0.  0.
        -24    2    5    5    0    0 -0.38765791829E+02  0.96487195982E+02  0.25364686429E+03  0.28368012161E+03  0.72973378902E+02 0.  0.
          5    1    3    3  501    0  0.21623539387E+02 -0.60849662267E+02  0.64261163641E+02  0.91224152537E+02  0.47000000000E+01 0.  1.
        -13    1    4    4    0    0 -0.17852452019E+02 -0.72850711643E+02  0.33374303693E+03  0.34206775780E+03  0.00000000000E+00 0.  1.
         14    1    4    4    0    0  0.92394415167E+01 -0.20027818783E+03  0.50643625218E+03  0.54467825119E+03  0.00000000000E+00 0. -1.
         -5    1    5    5    0  502  0.25755262945E+02  0.23749136576E+03  0.79845073660E+03  0.83343335136E+03  0.47000000000E+01 0.  1.
         13    1    6    6    0    0 -0.32429077850E+02  0.41725437366E+02  0.19960558020E+03  0.20648255341E+03  0.00000000000E+00 0. -1.
        -14    1    6    6    0    0 -0.63367139793E+01  0.54761758617E+02  0.54041284090E+02  0.77197568206E+02  0.00000000000E+00 0.  1.
</event>
<event>
12    1  0.1032880E+000  0.4336155E+03  0.7818608E-02  0.1032775E+00
         21   -1    0    0  501  502  0.00000000000E+00  0.00000000000E+00  0.43212566127E+03  0.43212566127E+03  0.00000000000E+00 0. -1.
         21   -1    0    0  502  503 -0.00000000000E+00 -0.00000000000E+00 -0.49410744349E+03  0.49410744349E+03  0.00000000000E+00 0. -1.
         -6    2    1    2    0  503 -0.30013619869E+03  0.26046839456E+03  0.12994829479E+03  0.45203954704E+03  0.17183617327E+03 0.  0.
        -24    2    3    3    0    0 -0.23913031556E+03  0.16119784727E+03  0.34509380222E+02  0.30135100817E+03  0.80333548486E+02 0.  0.
          6    2    1    2  501    0  0.30013619869E+03 -0.26046839456E+03 -0.19193007701E+03  0.47419355771E+03  0.17348444711E+03 0.  0.
         24    2    5    5    0    0  0.27833501410E+03 -0.17748473462E+03 -0.18739300786E+03  0.38814558003E+03  0.81053320773E+02 0.  0.
          5    1    5    5  501    0  0.21801184585E+02 -0.82983659940E+02 -0.45370691545E+01  0.86047977680E+02  0.47000000000E+01 0. -1.
        -13    1    6    6    0    0  0.24684480645E+03 -0.18181071550E+03 -0.18000355173E+03  0.35551198767E+03  0.00000000000E+00 0.  1.
         14    1    6    6    0    0  0.31490207650E+02  0.43259808867E+01 -0.73894561296E+01  0.32633592361E+02  0.00000000000E+00 0. -1.
         -5    1    3    3    0  503 -0.61005883125E+02  0.99270547284E+02  0.95438914572E+02  0.15068853888E+03  0.47000000000E+01 0.  1.
         13    1    4    4    0    0 -0.40400286130E+02  0.28462217132E+02 -0.24547357299E+02  0.55180192767E+02  0.00000000000E+00 0. -1.
        -14    1    4    4    0    0 -0.19873002943E+03  0.13273563014E+03  0.59056737521E+02  0.24617081540E+03  0.00000000000E+00 0.  1.
</event>
<event>
12    1  0.1032880E+000  0.2372620E+03  0.7818608E-02  0.1121740E+00
         21   -1    0    0  501  502  0.00000000000E+00  0.00000000000E+00  0.47635135725E+03  0.47635135725E+03  0.00000000000E+00 0.  1.
         21   -1    0    0  502  503 -0.00000000000E+00 -0.00000000000E+00 -0.12693296651E+03  0.12693296651E+03  0.00000000000E+00 0.  1.
         -6    2    1    2    0  503  0.68959505086E+02  0.14777670103E+03  0.25515939165E+03  0.34798449134E+03  0.17144539760E+03 0.  0.
        -24    2    3    3    0    0 -0.23562171358E+02  0.11202792145E+03  0.13781748555E+03  0.19426575865E+03  0.75100562964E+02 0.  0.
          6    2    1    2  501    0 -0.68959505086E+02 -0.14777670103E+03  0.94258999084E+02  0.25529983241E+03  0.17233652779E+03 0.  0.
         24    2    5    5    0    0  0.26421929387E+02 -0.86090225946E+02  0.73097233061E+02  0.13965922712E+03  0.77793630091E+02 0.  0.
          5    1    5    5  501    0 -0.95381434473E+02 -0.61686475088E+02  0.21161766023E+02  0.11564060529E+03  0.47000000000E+01 0. -1.
        -13    1    6    6    0    0  0.16109657462E+02 -0.63004688179E+02  0.88672184105E+02  0.10996303029E+03  0.00000000000E+00 0.  1.
         14    1    6    6    0    0  0.10312271925E+02 -0.23085537767E+02 -0.15574951045E+02  0.29696196832E+02  0.00000000000E+00 0. -1.
         -5    1    3    3    0  503  0.92521676444E+02  0.35748779585E+02  0.11734190610E+03  0.15371873269E+03  0.47000000000E+01 0.  1.
         13    1    4    4    0    0  0.27038417869E+02  0.28784378833E+02  0.38921615539E+02  0.55448252108E+02  0.00000000000E+00 0. -1.
        -14    1    4    4    0    0 -0.50600589227E+02  0.83243542617E+02  0.98895870016E+02  0.13881750655E+03  0.00000000000E+00 0.  1.
</event>
<event>
12    1  0.1032880E+000  0.2402701E+03  0.7818608E-02  0.1119660E+00
         21   -1    0    0  503  502  0.00000000000E+00  0.00000000000E+00  0.18680746508E+04  0.18680746508E+04  0.00000000000E+00 0.  1.
         21   -1    0    0  501  503 -0.00000000000E+00 -0.00000000000E+00 -0.71958519174E+02  0.71958519174E+02  0.00000000000E+00 0.  1.
          6    2    1    2  501    0  0.15807139139E+03  0.53859727620E+02  0.16308475119E+04  0.16484110605E+04  0.17236003665E+03 0.  0.
         24    2    3    3    0    0  0.11857834565E+03 -0.31455894680E+02  0.94603240324E+03  0.95715692552E+03  0.78241770894E+02 0.  0.
         -6    2    1    2    0  502 -0.15807139139E+03 -0.53859727620E+02  0.16526861978E+03  0.29162210954E+03  0.17274924906E+03 0.  0.
        -24    2    5    5    0    0 -0.65961280952E+02 -0.83372100919E+01  0.93090042712E+01  0.10480116929E+03  0.80475013924E+02 0.  0.
          5    1    3    3  501    0  0.39493045744E+02  0.85315622300E+02  0.68481510863E+03  0.69125413495E+03  0.47000000000E+01 0. -1.
        -11    1    4    4    0    0 -0.79795637835E+01  0.51189115325E+01  0.14983917167E+03  0.15013878266E+03  0.00000000000E+00 0.  1.
         12    1    4    4    0    0  0.12655790943E+03 -0.36574806213E+02  0.79619323158E+03  0.80701814286E+03  0.00000000000E+00 0. -1.
         -5    1    5    5    0  502 -0.92110110441E+02 -0.45522517528E+02  0.15595961551E+03  0.18682094026E+03  0.47000000000E+01 0.  1.
         11    1    6    6    0    0 -0.77230894458E+02  0.12898617208E+02  0.15844811173E+02  0.79887692580E+02  0.00000000000E+00 0. -1.
        -12    1    6    6    0    0  0.11269613505E+02 -0.21235827300E+02 -0.65358069018E+01  0.24913476705E+02  0.00000000000E+00 0.  1.
</event>
<event>
12    1  0.1032880E+000  0.1950264E+03  0.7818608E-02  0.1155023E+00
         21   -1    0    0  503  502  0.00000000000E+00  0.00000000000E+00  0.10351915434E+04  0.10351915434E+04  0.00000000000E+00 0. -1.
         21   -1    0    0  501  503 -0.00000000000E+00 -0.00000000000E+00 -0.39554307289E+02  0.39554307289E+02  0.00000000000E+00 0. -1.
          6    2    1    2  501    0 -0.86709964185E+02 -0.34383745146E+02  0.33941645971E+03  0.39145731845E+03  0.17127299620E+03 0.  0.
         24    2    3    3    0    0 -0.69696172485E+02 -0.22787026240E+02  0.35101510223E+03  0.36736226698E+03  0.79791153534E+02 0.  0.
         -6    2    1    2    0  502  0.86709964185E+02  0.34383745146E+02  0.65622077639E+03  0.68328853223E+03  0.16600196110E+03 0.  0.
        -24    2    5    5    0    0  0.52558522713E+02  0.63490002171E+02  0.60077251210E+03  0.61180360259E+03  0.81133582199E+02 0.  0.
          5    1    3    3  501    0 -0.17013791699E+02 -0.11596718906E+02 -0.11598642516E+02  0.24095051475E+02  0.47000000000E+01 0. -1.
        -13    1    4    4    0    0 -0.59420059172E+02  0.16532430650E+02  0.14831314838E+03  0.16062644451E+03  0.00000000000E+00 0.  1.
         14    1    4    4    0    0 -0.10276113313E+02 -0.39319456890E+02  0.20270195385E+03  0.20673582247E+03  0.00000000000E+00 0. -1.
         -5    1    5    5    0  502  0.34151441472E+02 -0.29106257025E+02  0.55448264287E+02  0.71484929636E+02  0.47000000000E+01 0.  1.
         13    1    6    6    0    0  0.41703891793E+02  0.23570572988E+02  0.50765595466E+03  0.50991112442E+03  0.00000000000E+00 0. -1.
        -14    1    6    6    0    0  0.10854630920E+02  0.39919429183E+02  0.93116557440E+02  0.10189247817E+03  0.00000000000E+00 0.  1.
</event>
<event>
12    1  0.1032880E+000  0.2760307E+03  0.7818608E-02  0.1097952E+00
         21   -1    0    0  503  502  0.00000000000E+00  0.00000000000E+00  0.46677182121E+02  0.46677182121E+02  0.00000000000E+00 0. -1.
         21   -1    0    0  501  503 -0.00000000000E+00 -0.00000000000E+00 -0.17669943031E+04  0.17669943031E+04  0.00000000000E+00 0.  1.
          6    2    1    2  501    0 -0.17660518860E+03  0.12422520873E+03 -0.11142011294E+04  0.11478837505E+04  0.17196410337E+03 0.  0.
         24    2    3    3    0    0 -0.10617301344E+03 -0.50094859222E+00 -0.50699318300E+03  0.52399202452E+03  0.79073348319E+02 0.  0.
         -6    2    1    2    0  502  0.17660518860E+03 -0.12422520873E+03 -0.60611599156E+03  0.66578773468E+03  0.17110060577E+03 0.  0.
        -24    2    5    5    0    0  0.56515694134E+02 -0.10084740524E+03 -0.42260448288E+03  0.44518272069E+03  0.78923273019E+02 0.  0.
          5    1    3    3  501    0 -0.70432175159E+02  0.12472615732E+03 -0.60720794637E+03  0.62389172599E+03  0.47000000000E+01 0. -1.
        -11    1    4    4    0    0  0.97679830735E+01 -0.51759766817E+01 -0.15825661537E+02  0.19304294627E+02  0.00000000000E+00 0.  1.
         12    1    4    4    0    0 -0.11594099651E+03  0.46750280895E+01 -0.49116752146E+03  0.50468772989E+03  0.00000000000E+00 0. -1.
         -5    1    5    5    0  502  0.12008949446E+03 -0.23377803486E+02 -0.18351150869E+03  0.22060501399E+03  0.47000000000E+01 0.  1.
         13    1    6    6    0    0  0.41010390078E+02 -0.10836833954E+03 -0.30400320386E+03  0.32533597567E+03  0.00000000000E+00 0. -1.
        -14    1    6    6    0    0  0.15505304056E+02  0.75209342983E+01 -0.11860127902E+03  0.11984674502E+03  0.00000000000E+00 0.  1.
</event>
<event>
12    1  0.1032880E+000  0.2141802E+03  0.7818608E-02  0.1138316E+00
         21   -1    0    0  503  502  0.00000000000E+00  0.00000000000E+00  0.73672961169E+03  0.73672961169E+03  0.00000000000E+00 0.  1.
         21   -1    0    0  501  503 -0.00000000000E+00 -0.00000000000E+00 -0.18231175419E+03  0.18231175419E+03  0.00000000000E+00 0. -1.
          6    2    1    2  501    0  0.55476542397E+02 -0.11487206084E+03  0.65015561227E+03  0.68452572873E+03  0.17204626125E+03 0.  0.
         24    2    3    3    0    0  0.78209897470E+02 -0.47138058838E+02  0.33144565306E+03  0.35787173969E+03  0.99383985026E+02 0.  0.
         -6    2    1    2    0  502 -0.55476542397E+02  0.11487206084E+03 -0.95737754769E+02  0.23451563714E+03  0.17192623203E+03 0.  0.
        -24    2    5    5    0    0 -0.38173121920E+02 -0.31527445950E+01 -0.67105087595E+02  0.11175089185E+03  0.80734391761E+02 0.  0.
          5    1    3    3  501    0 -0.22733355072E+02 -0.67734001998E+02  0.31870995921E+03  0.32665398904E+03  0.47000000000E+01 0. -1.
        -13    1    4    4    0    0  0.89063097454E+02 -0.28699322257E+01  0.22992884130E+03  0.24659226245E+03  0.00000000000E+00 0.  1.
         14    1    4    4    0    0 -0.10853199984E+02 -0.44268126612E+02  0.10151681176E+03  0.11127947724E+03  0.00000000000E+00 0. -1.
         -5    1    5    5    0  502 -0.17303420477E+02  0.11802480543E+03 -0.28632667175E+02  0.12276474529E+03  0.47000000000E+01 0.  1.
         11    1    6    6    0    0 -0.39645899471E+02 -0.29864239459E+02 -0.68924780412E+02  0.84937009002E+02  0.00000000000E+00 0. -1.
        -12    1    6    6    0    0  0.14727775515E+01  0.26711494864E+02  0.18196928169E+01  0.26813882850E+02  0.00000000000E+00 0.  1.
</event>
<event>
12    1  0.1032880E+000  0.2059159E+03  0.7818608E-02  0.1145176E+00
         21   -1    0    0  501  502  0.00000000000E+00  0.00000000000E+00  0.17976264785E+04  0.17976264785E+04  0.00000000000E+00 0. -1.
         21   -1    0    0  502  503 -0.00000000000E+00 -0.00000000000E+00 -0.25516741557E+02  0.25516741557E+02  0.00000000000E+00 0. -1.
         -6    2    1    2    0  503 -0.58906951127E+02  0.97403028714E+02  0.11453551018E+04  0.11634290975E+04  0.16962186385E+03 0.  0.
        -24    2    3    3    0    0  0.65648272425E+01  0.10146524474E+03  0.89956177005E+03  0.90898950287E+03  0.81928293904E+02 0.  0.
          6    2    1    2  501    0  0.58906951127E+02 -0.97403028714E+02  0.62675463510E+03  0.65971412255E+03  0.17159245901E+03 0.  0.
         24    2    5    5    0    0  0.40031952320E+02 -0.36330584172E+02  0.53231365226E+03  0.54557693185E+03  0.10664846756E+03 0.  0.
          5    1    5    5  501    0  0.18874998807E+02 -0.61072444542E+02  0.94440982834E+02  0.11413719070E+03  0.47000000000E+01 0. -1.
        -13    1    6    6    0    0  0.17139742342E+02 -0.45674521358E+02  0.50982533329E+03  0.51215408143E+03  0.00000000000E+00 0.  1.
         14    1    6    6    0    0  0.22892209978E+02  0.93439371859E+01  0.22488318976E+02  0.33422850420E+02  0.00000000000E+00 0. -1.
         -5    1    3    3    0  503 -0.65471778369E+02 -0.40622160275E+01  0.24579333177E+03  0.25443959461E+03  0.47000000000E+01 0.  1.
         13    1    4    4    0    0  0.36342217299E+02  0.22774442844E+02  0.21166149219E+03  0.21596300442E+03  0.00000000000E+00 0. -1.
        -14    1    4    4    0    0 -0.29777390056E+02  0.78690801898E+02  0.68790027786E+03  0.69302649844E+03  0.00000000000E+00 0.  1.
</event>
<event>
12    1  0.1032880E+000  0.1773301E+03  0.7818608E-02  0.1170692E+00
         21   -1    0    0  503  502  0.00000000000E+00  0.00000000000E+00  0.41054883904E+03  0.41054883904E+03  0.00000000000E+00 0.  1.
         21   -1    0    0  501  503 -0.00000000000E+00 -0.00000000000E+00 -0.82607740808E+02  0.82607740808E+02  0.00000000000E+00 0.  1.
          6    2    1    2  501    0 -0.84714364442E+01  0.38264433925E+02  0.95286064877E+02  0.20130924810E+03  0.17294521407E+03 0.  0.
         24    2    3    3    0    0  0.31655625646E+00 -0.42884292272E+02  0.24863992827E+02  0.93403257480E+02  0.79163044642E+02 0.  0.
         -6    2    1    2    0  502  0.84714364442E+01 -0.38264433925E+02  0.23265503335E+03  0.29184733175E+03  0.17178640332E+03 0.  0.
        -24    2    5    5    0    0  0.11022663111E+02  0.24882587778E+02  0.20666761618E+03  0.22335287242E+03  0.80214461066E+02 0.  0.
          5    1    3    3  501    0 -0.87879927007E+01  0.81148726197E+02  0.70422072051E+02  0.10790599062E+03  0.47000000000E+01 0. -1.
        -11    1    4    4    0    0 -0.21342249560E+02  0.11083460346E+02  0.25765173453E+02  0.35244558057E+02  0.00000000000E+00 0.  1.
         12    1    4    4    0    0  0.21658805817E+02 -0.53967752618E+02 -0.90118062693E+00  0.58158699423E+02  0.00000000000E+00 0. -1.
         -5    1    5    5    0  502 -0.25512266666E+01 -0.63147021703E+02  0.25987417175E+02  0.68494459330E+02  0.47000000000E+01 0.  1.
         11    1    6    6    0    0 -0.11908991420E+02 -0.23290834310E+02  0.10865777901E+03  0.11176224756E+03  0.00000000000E+00 0. -1.
        -12    1    6    6    0    0  0.22931654531E+02  0.48173422088E+02  0.98009837166E+02  0.11159062486E+03  0.00000000000E+00 0.  1.
</event>
<event>
12    1  0.1032880E+000  0.2040479E+03  0.7818608E-02  0.1146885E+00
         21   -1    0    0  501  502  0.00000000000E+00  0.00000000000E+00  0.29494002466E+02  0.29494002466E+02  0.00000000000E+00 0.  1.
         21   -1    0    0  502  503 -0.00000000000E+00 -0.00000000000E+00 -0.23757213212E+04  0.23757213212E+04  0.00000000000E+00 0.  1.
         -6    2    1    2    0  503 -0.53035224007E+02  0.91130839347E+02 -0.40445753092E+03  0.45301374628E+03  0.17469400427E+03 0.  0.
        -24    2    3    3    0    0 -0.75332622533E+02  0.23495755437E+02 -0.14029773629E+03  0.17938230500E+03  0.79167556462E+02 0.  0.
          6    2    1    2  501    0  0.53035224007E+02 -0.91130839347E+02 -0.19417697878E+04  0.19522015774E+04  0.17176590188E+03 0.  0.
         24    2    5    5    0    0  0.32843490027E+01 -0.91173499601E+02 -0.17438178906E+04  0.17480393992E+04  0.80109373340E+02 0.  0.
          5    1    5    5  501    0  0.49750875004E+02  0.42660254235E-01 -0.19795189723E+03  0.20416217818E+03  0.47000000000E+01 0. -1.
        -13    1    6    6    0    0 -0.46239809086E+01 -0.43323794625E+02 -0.27577377217E+03  0.27919438712E+03  0.00000000000E+00 0.  1.
         14    1    6    6    0    0  0.79083299114E+01 -0.47849704977E+02 -0.14680441184E+04  0.14688450121E+04  0.00000000000E+00 0. -1.
         -5    1    3    3    0  503  0.22297398527E+02  0.67635083910E+02 -0.26415979463E+03  0.27363144128E+03  0.47000000000E+01 0.  1.
         11    1    4    4    0    0 -0.20984841598E+02  0.47825504494E+02 -0.66566877379E+02  0.84609642601E+02  0.00000000000E+00 0. -1.
        -12    1    4    4    0    0 -0.54347780935E+02 -0.24329749056E+02 -0.73730858914E+02  0.94772662398E+02  0.00000000000E+00 0.  1.
</event>
<event>
12    1  0.1032880E+000  0.1841327E+03  0.7818608E-02  0.1164449E+00
         21   -1    0    0  503  502  0.00000000000E+00  0.00000000000E+00  0.27891515537E+02  0.27891515537E+02  0.00000000000E+00 0.  1.
         21   -1    0    0  501  503 -0.00000000000E+00 -0.00000000000E+00 -0.18982334019E+04  0.18982334019E+04  0.00000000000E+00 0.  1.
          6    2    1    2  501    0  0.44057036115E+02 -0.37015687831E+02 -0.34677690940E+03  0.39147345676E+03  0.17229642736E+03 0.  0.
         24    2    3    3    0    0  0.77635415467E+02 -0.20078792612E+02 -0.33288332880E+03  0.35110654505E+03  0.77679339175E+02 0.  0.
         -6    2    1    2    0  502 -0.44057036115E+02  0.37015687831E+02 -0.15235649770E+04  0.15346514607E+04  0.17491050039E+03 0.  0.
        -24    2    5    5    0    0 -0.49503688755E+02 -0.34675809012E+02 -0.62151894054E+03  0.62973241536E+03  0.81388540814E+02 0.  0.
          5    1    3    3  501    0 -0.33578379352E+02 -0.16936895220E+02 -0.13893580600E+02  0.40366911716E+02  0.47000000000E+01 0. -1.
        -13    1    4    4    0    0  0.51183750611E+02 -0.38123265542E+02 -0.12083056203E+03  0.13664986068E+03  0.00000000000E+00 0.  1.
         14    1    4    4    0    0  0.26451664855E+02  0.18044472930E+02 -0.21205276677E+03  0.21445668437E+03  0.00000000000E+00 0. -1.
         -5    1    5    5    0  502  0.54466526402E+01  0.71691496843E+02 -0.90204603641E+03  0.90491904530E+03  0.47000000000E+01 0.  1.
         11    1    6    6    0    0  0.12083324737E+02  0.12164909382E+02 -0.47067446247E+02  0.50093275529E+02  0.00000000000E+00 0. -1.
        -12    1    6    6    0    0 -0.61587013492E+02 -0.46840718394E+02 -0.57445149429E+03  0.57963913983E+03  0.00000000000E+00 0.  1.
</event>
<event>
12    1  0.1032880E+000  0.2427808E+03  0.7818608E-02  0.1118233E+00
         21   -1    0    0  501  502  0.00000000000E+00  0.00000000000E+00  0.72873349168E+03  0.72873349168E+03  0.00000000000E+00 0. -1.
         21   -1    0    0  502  503 -0.00000000000E+00 -0.00000000000E+00 -0.10728574931E+03  0.10728574931E+03  0.00000000000E+00 0. -1.
         -6    2    1    2    0  503  0.30063408407E+02  0.16703592708E+03  0.52109863287E+03  0.57487938636E+03  0.17360217230E+03 0.  0.
        -24    2    3    3    0    0 -0.36310873252E+02  0.63614663441E+02  0.16392865986E+03  0.19713081567E+03  0.81379653748E+02 0.  0.
          6    2    1    2  501    0 -0.30063408407E+02 -0.16703592708E+03  0.10034910950E+03  0.26113985464E+03  0.17122870800E+03 0.  0.
         24    2    5    5    0    0 -0.66947954067E+02 -0.84974306316E+02  0.10590124097E+03  0.17087637656E+03  0.79252772442E+02 0.  0.
          5    1    5    5  501    0  0.36884545660E+02 -0.82061620760E+02 -0.55521314698E+01  0.90263478075E+02  0.47000000000E+01 0. -1.
        -11    1    6    6    0    0 -0.94013836205E+01 -0.42680620247E+02  0.68170541976E+00  0.43709107529E+02  0.00000000000E+00 0.  1.
         12    1    6    6    0    0 -0.57546570447E+02 -0.42293686068E+02  0.10521953555E+03  0.12716726903E+03  0.00000000000E+00 0. -1.
         -5    1    3    3    0  503  0.66374281658E+02  0.10342126363E+03  0.35716997301E+03  0.37774857069E+03  0.47000000000E+01 0.  1.
         11    1    4    4    0    0 -0.17300632905E+02  0.81541269104E+02  0.12548205595E+03  0.15064540096E+03  0.00000000000E+00 0. -1.
        -12    1    4    4    0    0 -0.19010240346E+02 -0.17926605663E+02  0.38446603911E+02  0.46485414712E+02  0.00000000000E+00 0.  1.
</event>
<event>
12    1  0.1032880E+000  0.3028581E+03  0.7818608E-02  0.1084218E+00
         21   -1    0    0  501  502  0.00000000000E+00  0.00000000000E+00  0.21835254421E+04  0.21835254421E+04  0.00000000000E+00 0.  1.
         21   -1    0    0  502  503 -0.00000000000E+00 -0.00000000000E+00 -0.42182479697E+02  0.42182479697E+02  0.00000000000E+00 0.  1.
         -6    2    1    2    0  503  0.10640469463E+02  0.24569764222E+03  0.12110861741E+04  0.12483800502E+04  0.17675541773E+03 0.  0.
        -24    2    3    3    0    0 -0.55029130336E+02  0.10087851919E+03  0.47869088260E+03  0.49890688342E+03  0.80984173900E+02 0.  0.
          6    2    1    2  501    0 -0.10640469463E+02 -0.24569764222E+03  0.93025678831E+03  0.97732787159E+03  0.17120609043E+03 0.  0.
         24    2    5    5    0    0 -0.20887623616E+02 -0.54969822352E+02  0.20631505846E+03  0.22859839864E+03  0.78951569482E+02 0.  0.
          5    1    5    5  501    0  0.10247154152E+02 -0.19072781987E+03  0.72394172985E+03  0.74872947295E+03  0.47000000000E+01 0. -1.
        -11    1    6    6    0    0  0.19990417176E+02  0.93565070810E+01  0.51895602075E+02  0.56394277355E+02  0.00000000000E+00 0.  1.
         12    1    6    6    0    0 -0.40878040792E+02 -0.64326329433E+02  0.15441945638E+03  0.17220412128E+03  0.00000000000E+00 0. -1.
         -5    1    3    3    0  503  0.65669599799E+02  0.14481912303E+03  0.73239529146E+03  0.74947316675E+03  0.47000000000E+01 0.  1.
         11    1    4    4    0    0 -0.29800178464E+02  0.83777045641E+02  0.44361501225E+03  0.45243886118E+03  0.00000000000E+00 0. -1.
        -12    1    4    4    0    0 -0.25228951873E+02  0.17101473554E+02  0.35075870349E+02  0.46468022241E+02  0.00000000000E+00 0.  1.
</event>
<event>
12    1  0.1032880E+000  0.3027365E+03  0.7818608E-02  0.1083922E+00
         21   -1    0    0  501  502  0.00000000000E+00  0.00000000000E+00  0.73310580824E+02  0.73310580824E+02  0.00000000000E+00 0.  1.
         21   -1    0    0  502  503 -0.00000000000E+00 -0.00000000000E+00 -0.16374844445E+04  0.16374844445E+04  0.00000000000E+00 0.  1.
         -6    2    1    2    0  503  0.15328676316E+03  0.19725776807E+03 -0.36565122470E+03  0.47471066276E+03  0.17100273797E+03 0.  0.
        -24    2    3    3    0    0  0.17879253379E+03  0.18554807804E+03 -0.35082357939E+03  0.44262312248E+03  0.80269454301E+02 0.  0.
          6    2    1    2  501    0 -0.15328676316E+03 -0.19725776807E+03 -0.11985226389E+04  0.12360843625E+04  0.17041295845E+03 0.  0.
         24    2    5    5    0    0 -0.11896751074E+03 -0.20257880625E+03 -0.84229361286E+03  0.87813557631E+03  0.80449479539E+02 0.  0.
          5    1    5    5  501    0 -0.34319252414E+02  0.53210381831E+01 -0.35622902608E+03  0.35794878622E+03  0.47000000000E+01 0. -1.
        -11    1    6    6    0    0 -0.74051089937E+01 -0.54704649948E+02 -0.30109699204E+03  0.30611571828E+03  0.00000000000E+00 0.  1.
         12    1    6    6    0    0 -0.11156240175E+03 -0.14787415630E+03 -0.54119662082E+03  0.57201985803E+03  0.00000000000E+00 0. -1.
         -5    1    3    3    0  503 -0.25505770630E+02  0.11709690030E+02 -0.14827645309E+02  0.32087540284E+02  0.47000000000E+01 0.  1.
         13    1    4    4    0    0  0.73522869159E+02  0.46308083929E+02 -0.68283056342E+02  0.11051075382E+03  0.00000000000E+00 0. -1.
        -14    1    4    4    0    0  0.10526966463E+03  0.13923999411E+03 -0.28254052305E+03  0.33211236866E+03  0.00000000000E+00 0.  1.
</event>
<event>
12    1  0.1032880E+000  0.2174187E+03  0.7818608E-02  0.1137105E+00
         21   -1    0    0  501  502  0.00000000000E+00  0.00000000000E+00  0.27136812104E+03  0.27136812104E+03  0.00000000000E+00 0.  1.
         21   -1    0    0  502  503 -0.00000000000E+00 -0.00000000000E+00 -0.31552078159E+03  0.31552078159E+03  0.00000000000E+00 0.  1.
         -6    2    1    2    0  503  0.12650243781E+03 -0.41417637834E+02  0.17776572530E+03  0.28084080345E+03  0.17190874409E+03 0.  0.
        -24    2    3    3    0    0  0.97033737742E+02 -0.12241497348E+02  0.32073134003E+02  0.12928859259E+03  0.78239719655E+02 0.  0.
          6    2    1    2  501    0 -0.12650243781E+03  0.41417637834E+02 -0.22191838585E+03  0.30604809919E+03  0.16339945393E+03 0.  0.
         24    2    5    5    0    0 -0.11453508158E+03  0.84277754916E+02 -0.15401723274E+03  0.22472858219E+03  0.80997548027E+02 0.  0.
          5    1    5    5  501    0 -0.11967356228E+02 -0.42860117082E+02 -0.67901153112E+02  0.81319517001E+02  0.47000000000E+01 0. -1.
        -13    1    6    6    0    0 -0.66760227379E+02  0.87853449647E+02 -0.78952892436E+02  0.13567872272E+03  0.00000000000E+00 0.  1.
         14    1    6    6    0    0 -0.47774854199E+02 -0.35756947317E+01 -0.75064340302E+02  0.89049859469E+02  0.00000000000E+00 0. -1.
         -5    1    3    3    0  503  0.29468700064E+02 -0.29176140486E+02  0.14569259130E+03  0.15155221086E+03  0.47000000000E+01 0.  1.
         11    1    4    4    0    0  0.77311412618E+02 -0.24881773005E+02  0.53734130726E+02  0.97383335092E+02  0.00000000000E+00 0. -1.
        -12    1    4    4    0    0  0.19722325125E+02  0.12640275657E+02 -0.21660996723E+02  0.31905257498E+02  0.00000000000E+00 0.  1.
</event>
<event>
12    1  0.1032880E+000  0.1802610E+03  0.7818608E-02  0.1167752E+00
         21   -1    0    0  503  502  0.00000000000E+00  0.00000000000E+00  0.20890718106E+03  0.20890718106E+03  0.00000000000E+00 0. -1.
         21   -1    0    0  501  503 -0.00000000000E+00 -0.00000000000E+00 -0.15887075377E+03  0.15887075377E+03  0.00000000000E+00 0. -1.
          6    2    1    2  501    0 -0.28917268704E+02 -0.45812409335E+02 -0.43803508386E+01  0.17948238155E+03  0.17105482319E+03 0.  0.
         24    2    3    3    0    0 -0.78175645157E+02  0.33786813113E+01  0.50735811231E+01  0.10907202805E+03  0.75816351109E+02 0.  0.
         -6    2    1    2    0  502  0.28917268704E+02  0.45812409335E+02  0.54416778135E+02  0.18829555328E+03  0.17192743924E+03 0.  0.
        -24    2    5    5    0    0  0.27805088018E+02  0.22419983428E+02 -0.35089045496E+02  0.95657413187E+02  0.81506570331E+02 0.  0.
          5    1    3    3  501    0  0.49258376453E+02 -0.49191090646E+02 -0.94539319617E+01  0.70410353495E+02  0.47000000000E+01 0. -1.
        -13    1    4    4    0    0 -0.53881422617E+02 -0.20050156947E+02 -0.26090119653E+02  0.63134070361E+02  0.00000000000E+00 0.  1.
         14    1    4    4    0    0 -0.24294222540E+02  0.23428838259E+02  0.31163700776E+02  0.45937957693E+02  0.00000000000E+00 0. -1.
         -5    1    5    5    0  502  0.11121806858E+01  0.23392425907E+02  0.89505823631E+02  0.92638140091E+02  0.47000000000E+01 0.  1.
         13    1    6    6    0    0  0.43893591086E+01  0.23978366500E+01 -0.57400612240E+02  0.57618108087E+02  0.00000000000E+00 0. -1.
        -14    1    6    6    0    0  0.23415728909E+02  0.20022146778E+02  0.22311566743E+02  0.38039305100E+02  0.00000000000E+00 0.  1.
</event>
<event>
12    1  0.1032880E+000  0.2167838E+03  0.7818608E-02  0.1136305E+00
         21   -1    0    0  503  502  0.00000000000E+00  0.00000000000E+00  0.21375086568E+03  0.21375086568E+03  0.00000000000E+00 0.  1.
         21   -1    0    0  501  503 -0.00000000000E+00 -0.00000000000E+00 -0.26425026606E+03  0.26425026606E+03  0.00000000000E+00 0.  1.
          6    2    1    2  501    0 -0.11653329786E+03 -0.61355854860E+02 -0.12321169184E+03  0.24934791095E+03  0.17218800554E+03 0.  0.
         24    2    3    3    0    0 -0.79762078435E+02 -0.75440833579E+01 -0.14152425551E+03  0.18148577631E+03  0.80554762455E+02 0.  0.
         -6    2    1    2    0  502  0.11653329786E+03  0.61355854860E+02  0.72712291461E+02  0.22865322080E+03  0.17219369215E+03 0.  0.
        -24    2    5    5    0    0  0.13747784105E+03  0.63044418509E+02  0.20890392351E+02  0.17253616132E+03  0.80358963318E+02 0.  0.
          5    1    3    3  501    0 -0.36771219423E+02 -0.53811771502E+02  0.18312563667E+02  0.67862134642E+02  0.47000000000E+01 0. -1.
        -11    1    4    4    0    0 -0.30573872611E+02  0.26864917264E+02 -0.18727524312E+02  0.44801848544E+02  0.00000000000E+00 0.  1.
         12    1    4    4    0    0 -0.49188205824E+02 -0.34409000622E+02 -0.12279673120E+03  0.13668392776E+03  0.00000000000E+00 0. -1.
         -5    1    5    5    0  502 -0.20944543195E+02 -0.16885636489E+01  0.51821899109E+02  0.56117059475E+02  0.47000000000E+01 0.  1.
         11    1    6    6    0    0  0.88466808143E+02 -0.35316867832E+01  0.13060805184E+02  0.89495438915E+02  0.00000000000E+00 0. -1.
        -12    1    6    6    0    0  0.49011032910E+02  0.66576105292E+02  0.78295871677E+01  0.83040722408E+02  0.00000000000E+00 0.  1.
</event>
<event>
12    1  0.1032880E+000  0.1982280E+03  0.7818608E-02  0.1151326E+00
         21   -1    0    0  501  502  0.00000000000E+00  0.00000000000E+00  0.17420960989E+03  0.17420960989E+03  0.00000000000E+00 0. -1.
         21   -1    0    0  502  503 -0.00000000000E+00 -0.00000000000E+00 -0.28240494405E+03  0.28240494405E+03  0.00000000000E+00 0. -1.
         -6    2    1    2    0  503  0.92666271715E+02  0.32621129267E+02 -0.15688466342E+03  0.25249455577E+03  0.17172514985E+03 0.  0.
        -24    2    3    3    0    0  0.29929090378E+02  0.77449984647E+01 -0.16178728425E+03  0.18466461034E+03  0.83487469221E+02 0.  0.
          6    2    1    2  501    0 -0.92666271715E+02 -0.32621129267E+02  0.48689329260E+02  0.20411999817E+03  0.17217185276E+03 0.  0.
         24    2    5    5    0    0 -0.74062317150E+02 -0.69752203889E+02  0.79749625083E+02  0.15204643670E+03  0.80046982720E+02 0.  0.
          5    1    5    5  501    0 -0.18603954565E+02  0.37131074622E+02 -0.31060295823E+02  0.52073561475E+02  0.47000000000E+01 0. -1.
        -13    1    6    6    0    0 -0.71770666818E+02 -0.64716927916E+02  0.28860538079E+02  0.10085752343E+03  0.00000000000E+00 0.  1.
         14    1    6    6    0    0 -0.22916503318E+01 -0.50352759737E+01  0.50889087004E+02  0.51188913267E+02  0.00000000000E+00 0. -1.
         -5    1    3    3    0  503  0.62737181337E+02  0.24876130802E+02  0.49026208316E+01  0.67829945428E+02  0.47000000000E+01 0.  1.
         13    1    4    4    0    0 -0.19070787996E+02  0.29283389285E+02 -0.54032888529E+02  0.64348775323E+02  0.00000000000E+00 0. -1.
        -14    1    4    4    0    0  0.48999878375E+02 -0.21538390820E+02 -0.10775439572E+03  0.12031583502E+03  0.00000000000E+00 0.  1.
</event>
<event>
12    1  0.1032880E+000  0.2412611E+03  0.7818608E-02  0.1119199E+00
         21   -1    0    0  501  502  0.00000000000E+00  0.00000000000E+00  0.68170584852E+03  0.68170584852E+03  0.00000000000E+00 0.  1.
         21   -1    0    0  502  503 -0.00000000000E+00 -0.00000000000E+00 -0.18213273012E+03  0.18213273012E+03  0.00000000000E+00 0.  1.
         -6    2    1    2    0  503  0.11768938987E+03 -0.12108186030E+03  0.56577836941E+03  0.61507079879E+03  0.17232328584E+03 0.  0.
        -24    2    3    3    0    0  0.72860790011E+02  0.50371824905E+01  0.21655633430E+03  0.24104708813E+03  0.76635402035E+02 0.  0.
          6    2    1    2  501    0 -0.11768938987E+03  0.12108186030E+03 -0.66205251019E+02  0.24876777986E+03  0.17026644899E+03 0.  0.
         24    2    5    5    0    0 -0.78798033073E+02  0.96866044187E+02  0.22381233172E+02  0.14892491048E+03  0.78009927772E+02 0.  0.
          5    1    5    5  501    0 -0.38891356797E+02  0.24215816110E+02 -0.88586484192E+02  0.99842869374E+02  0.47000000000E+01 0. -1.
        -11    1    6    6    0    0 -0.36859301053E+02 -0.48806622867E+01  0.59310545459E+01  0.37651113483E+02  0.00000000000E+00 0.  1.
         12    1    6    6    0    0 -0.41938732020E+02  0.10174670647E+03  0.16450178626E+02  0.11127379700E+03  0.00000000000E+00 0. -1.
         -5    1    3    3    0  503  0.44828599859E+02 -0.12611904279E+03  0.34922203512E+03  0.37402371065E+03  0.47000000000E+01 0.  1.
         13    1    4    4    0    0  0.85135049686E+02  0.28117682660E+01  0.21069849684E+03  0.22726578998E+03  0.00000000000E+00 0. -1.
        -14    1    4    4    0    0 -0.12274259675E+02  0.22254142245E+01  0.58578374570E+01  0.13781298151E+02  0.00000000000E+00 0.  1.
</event>
<event>
12    1  0.1032880E+000  0.2011403E+03  0.7818608E-02  0.1148993E+00
         21   -1    0    0  501  502  0.00000000000E+00  0.00000000000E+00  0.55256714194E+03  0.55256714194E+03  0.00000000000E+00 0.  1.
         21   -1    0    0  502  503 -0.00000000000E+00 -0.00000000000E+00 -0.13193681552E+03  0.13193681552E+03  0.00000000000E+00 0.  1.
         -6    2    1    2    0  503 -0.95350438224E+02 -0.30508113645E+02  0.43964776333E+03  0.48347447791E+03  0.17445619487E+03 0.  0.
        -24    2    3    3    0    0 -0.32832790966E+02  0.28043822113E+02  0.33536656153E+03  0.34844320581E+03  0.84127813217E+02 0.  0.
          6    2    1    2  501    0  0.95350438224E+02  0.30508113645E+02 -0.19017436901E+02  0.20102947954E+03  0.17328801941E+03 0.  0.
         24    2    5    5    0    0  0.55611976503E+02 -0.55685714803E+02 -0.18594943192E+02  0.10599901125E+03  0.68530487454E+02 0.  0.
          5    1    5    5  501    0  0.39738461721E+02  0.86193828448E+02 -0.42249370845E+00  0.95030468290E+02  0.47000000000E+01 0. -1.
        -13    1    6    6    0    0  0.70220809128E+02 -0.45874680830E+02 -0.54884778770E+01  0.84056955484E+02  0.00000000000E+00 0.  1.
         14    1    6    6    0    0 -0.14608832626E+02 -0.98110339729E+01 -0.13106465315E+02  0.21942055769E+02  0.00000000000E+00 0. -1.
         -5    1    3    3    0  503 -0.62517647257E+02 -0.58551935758E+02  0.10428120179E+03  0.13503127211E+03  0.47000000000E+01 0.  1.
         13    1    4    4    0    0 -0.44945532241E+02  0.13629715364E+02  0.32186771173E+03  0.32527633462E+03  0.00000000000E+00 0. -1.
        -14    1    4    4    0    0  0.12112741275E+02  0.14414106749E+02  0.13498849803E+02  0.23166871186E+02  0.00000000000E+00 0.  1.
</event>
<event>
12    1  0.1032880E+000  0.2464920E+03  0.7818608E-02  0.1115630E+00
         21   -1    0    0  501  502  0.00000000000E+00  0.00000000000E+00  0.33138319008E+02  0.33138319008E+02  0.00000000000E+00 0. -1.
         21   -1    0    0  502  503 -0.00000000000E+00 -0.00000000000E+00 -0.18608023295E+04  0.18608023295E+04  0.00000000000E+00 0. -1.
         -6    2    1    2    0  503 -0.17648858393E+03  0.83754107492E+01 -0.10358230296E+04  0.10646213711E+04  0.17108754298E+03 0.  0.
        -24    2    3    3    0    0 -0.14423156986E+03  0.11134094487E+02 -0.47612719042E+03  0.50397027844E+03  0.79763564910E+02 0.  0.
          6    2    1    2  501    0  0.17648858393E+03 -0.83754107492E+01 -0.79184098090E+03  0.82931927743E+03  0.17187192069E+03 0.  0.
         24    2    5    5    0    0  0.57615876486E+02 -0.41381885051E+02 -0.22823454787E+03  0.25234921818E+03  0.80975733648E+02 0.  0.
          5    1    5    5  501    0  0.11887270744E+03  0.33006474301E+02 -0.56360643302E+03  0.57697005925E+03  0.47000000000E+01 0. -1.
        -11    1    6    6    0    0 -0.68183176943E+01 -0.26656805431E+02 -0.13672504578E+03  0.13946617108E+03  0.00000000000E+00 0.  1.
         12    1    6    6    0    0  0.64434194180E+02 -0.14725079619E+02 -0.91509502093E+02  0.11288304710E+03  0.00000000000E+00 0. -1.
         -5    1    3    3    0  503 -0.32257014069E+02 -0.27586837373E+01 -0.55969583918E+03  0.56065109265E+03  0.47000000000E+01 0.  1.
         11    1    4    4    0    0 -0.51903559327E+02 -0.32185810637E+02 -0.21898940459E+03  0.22734613522E+03  0.00000000000E+00 0. -1.
        -12    1    4    4    0    0 -0.92328010532E+02  0.43319905124E+02 -0.25713778583E+03  0.27662414321E+03  0.00000000000E+00 0.  1.
</event>
<event>
12    1  0.1032880E+000  0.2025187E+03  0.7818608E-02  0.1148165E+00
         21   -1    0    0  503  502  0.00000000000E+00  0.00000000000E+00  0.20243780623E+03  0.20243780623E+03  0.00000000000E+00 0.  1.
         21   -1    0    0  501  503 -0.00000000000E+00 -0.00000000000E+00 -0.20123426096E+03  0.20123426096E+03  0.00000000000E+00 0.  1.
          6    2    1    2  501    0 -0.40990133776E+02  0.93298722297E+02 -0.14875207387E+02  0.20051612128E+03  0.17204825035E+03 0.  0.
         24    2    3    3    0    0 -0.82246460757E+02  0.99863743530E+02 -0.34959721922E+02  0.15392576022E+03  0.75721264666E+02 0.  0.
         -6    2    1    2    0  502  0.40990133776E+02 -0.93298722297E+02  0.16078752657E+02  0.20315594591E+03  0.17501134084E+03 0.  0.
        -24    2    5    5    0    0  0.88292067658E+02 -0.27633395812E+02  0.13083929377E+02  0.12203586814E+03  0.78501402084E+02 0.  0.
          5    1    3    3  501    0  0.41256326981E+02 -0.65650212336E+01  0.20084514535E+02  0.46590361061E+02  0.47000000000E+01 0. -1.
        -13    1    4    4    0    0 -0.12114899393E+02  0.20729053263E+02 -0.41542883311E+02  0.47982034037E+02  0.00000000000E+00 0.  1.
         14    1    4    4    0    0 -0.70131561364E+02  0.79134690268E+02  0.65831613897E+01  0.10594372618E+03  0.00000000000E+00 0. -1.
         -5    1    5    5    0  502 -0.47301933882E+02 -0.65665326485E+02  0.29948232804E+01  0.81120077772E+02  0.47000000000E+01 0.  1.
         13    1    6    6    0    0  0.75486025875E+01 -0.38901289190E+02  0.74012036933E+01  0.40312150994E+02  0.00000000000E+00 0. -1.
        -14    1    6    6    0    0  0.80743465070E+02  0.11267893378E+02  0.56827256836E+01  0.81723717145E+02  0.00000000000E+00 0.  1.
</event>
<event>
12    1  0.1508507E+000  0.1912376E+03  0.7818608E-02  0.1157504E+00
         21   -1    0    0  501  502  0.00000000000E+00  0.00000000000E+00  0.22522176590E+03  0.22522176590E+03  0.00000000000E+00 0.  1.
         21   -1    0    0  502  503 -0.00000000000E+00 -0.00000000000E+00 -0.81513452030E+03  0.81513452030E+03  0.00000000000E+00 0.  1.
         -6    2    1    2    0  503  0.64155896253E+02 -0.50486839353E+02  0.17063746678E+03  0.25629861421E+03  0.17293621542E+03 0.  0.
        -24    2    3    3    0    0  0.48509009557E+02 -0.98357433636E+02  0.14857163078E+03  0.20111338087E+03  0.79660239349E+02 0.  0.
          6    2    1    2  501    0 -0.64155896253E+02  0.50486839353E+02 -0.76055022118E+03  0.78405767199E+03  0.17217692673E+03 0.  0.
         24    2    5    5    0    0  0.48514147715E+01 -0.27640749626E+02 -0.27988435868E+03  0.29219621741E+03  0.79093792217E+02 0.  0.
          5    1    5    5  501    0 -0.69007311024E+02  0.78127588978E+02 -0.48066586250E+03  0.49186145458E+03  0.47000000000E+01 0. -1.
        -13    1    6    6    0    0 -0.12764284741E+02 -0.81970248893E+01 -0.48685909995E+01  0.15931772039E+02  0.00000000000E+00 0.  1.
         14    1    6    6    0    0  0.17615699512E+02 -0.19443724736E+02 -0.27501576768E+03  0.27626444537E+03  0.00000000000E+00 0. -1.
         -5    1    3    3    0  503  0.15646886696E+02  0.47870594283E+02  0.22065836005E+02  0.55185233341E+02  0.47000000000E+01 0.  1.
         13    1    4    4    0    0 -0.10675477009E+02 -0.39616288660E+02  0.90886922342E+02  0.99718848717E+02  0.00000000000E+00 0. -1.
        -14    1    4    4    0    0  0.59184486566E+02 -0.58741144976E+02  0.57684708435E+02  0.10139453215E+03  0.00000000000E+00 0.  1.
</event>
<event>
12    1  0.1032880E+000  0.2890059E+03  0.7818608E-02  0.1090886E+00
         21   -1    0    0  503  502  0.00000000000E+00  0.00000000000E+00  0.16600626898E+04  0.16600626898E+04  0.00000000000E+00 0. -1.
         21   -1    0    0  501  503 -0.00000000000E+00 -0.00000000000E+00 -0.10993639790E+03  0.10993639790E+03  0.00000000000E+00 0. -1.
          6    2    1    2  501    0  0.21361317055E+03  0.91474779117E+02  0.14270072560E+04  0.14559787534E+04  0.17183189419E+03 0.  0.
         24    2    3    3    0    0  0.57523416824E+02  0.33592054170E+02  0.30337112537E+03  0.32006737257E+03  0.77276863870E+02 0.  0.
         -6    2    1    2    0  502 -0.21361317055E+03 -0.91474779117E+02  0.12311903588E+03  0.31402033427E+03  0.17161658280E+03 0.  0.
        -24    2    5    5    0    0 -0.11262798024E+03 -0.25447892088E+02 -0.63741663386E+00  0.14111773737E+03  0.81124301894E+02 0.  0.
          5    1    3    3  501    0  0.15608975372E+03  0.57882724947E+02  0.11236361307E+04  0.11359113809E+04  0.47000000000E+01 0. -1.
        -11    1    4    4    0    0  0.59320829981E+02  0.51154539436E+02  0.28016520018E+03  0.29090941403E+03  0.00000000000E+00 0.  1.
         12    1    4    4    0    0 -0.17974131569E+01 -0.17562485266E+02  0.23205925185E+02  0.29157958544E+02  0.00000000000E+00 0. -1.
         -5    1    5    5    0  502 -0.10098519031E+03 -0.66026887029E+02  0.12375645252E+03  0.17290259689E+03  0.47000000000E+01 0.  1.
         13    1    6    6    0    0 -0.50144150445E+02  0.24452210078E+02  0.18717513178E+02  0.58844640377E+02  0.00000000000E+00 0. -1.
        -14    1    6    6    0    0 -0.62483829791E+02 -0.49900102165E+02 -0.19354929812E+02  0.82273096997E+02  0.00000000000E+00 0.  1.
</event>
<event>
12    1  0.1032880E+000  0.2428667E+03  0.7818608E-02  0.1117948E+00
         21   -1    0    0  503  502  0.00000000000E+00  0.00000000000E+00  0.59676169595E+03  0.59676169595E+03  0.00000000000E+00 0. -1.
         21   -1    0    0  501  503 -0.00000000000E+00 -0.00000000000E+00 -0.22892148447E+03  0.22892148447E+03  0.00000000000E+00 0. -1.
          6    2    1    2  501    0  0.13409857214E+03 -0.10714416462E+03  0.49532361292E+03  0.55166088658E+03  0.17181953673E+03 0.  0.
         24    2    3    3    0    0  0.11018635191E+03 -0.14122028850E+03  0.44517542428E+03  0.48631635874E+03  0.78982531991E+02 0.  0.
         -6    2    1    2    0  502 -0.13409857214E+03  0.10714416462E+03 -0.12748340144E+03  0.27402229385E+03  0.17138815834E+03 0.  0.
        -24    2    5    5    0    0 -0.94838138017E+02  0.29346598285E+02 -0.13546120112E+03  0.18638909065E+03  0.80843434185E+02 0.  0.
          5    1    3    3  501    0  0.23912220229E+02  0.34076123879E+02  0.50148188639E+02  0.65344527840E+02  0.47000000000E+01 0. -1.
        -11    1    4    4    0    0  0.71833470264E+02 -0.56629305345E+02  0.13927704725E+03  0.16662839363E+03  0.00000000000E+00 0.  1.
         12    1    4    4    0    0  0.38352881649E+02 -0.84590983156E+02  0.30589837704E+03  0.31968796511E+03  0.00000000000E+00 0. -1.
         -5    1    5    5    0  502 -0.39260434124E+02  0.77797566338E+02  0.79777996732E+01  0.87633203202E+02  0.47000000000E+01 0.  1.
         13    1    6    6    0    0 -0.16400504529E+02  0.61318057591E+01 -0.92210115003E+02  0.93857769522E+02  0.00000000000E+00 0. -1.
        -14    1    6    6    0    0 -0.78437633488E+02  0.23214792525E+02 -0.43251086114E+02  0.92531321126E+02  0.00000000000E+00 0.  1.
</event>
<event>
12    1  0.1032880E+000  0.1715509E+03  0.7818608E-02  0.1176258E+00
         21   -1    0    0  501  502  0.00000000000E+00  0.00000000000E+00  0.61036653981E+02  0.61036653981E+02  0.00000000000E+00 0. -1.
         21   -1    0    0  502  503 -0.00000000000E+00 -0.00000000000E+00 -0.59488932149E+03  0.59488932149E+03  0.00000000000E+00 0. -1.
         -6    2    1    2    0  503  0.11823213143E+02 -0.40827137646E+01 -0.12399878523E+03  0.21161760601E+03  0.17102589135E+03 0.  0.
        -24    2    3    3    0    0  0.36824155510E+02  0.45686396354E+02 -0.31527385933E+02  0.10356640921E+03  0.79301701197E+02 0.  0.
          6    2    1    2  501    0 -0.11823213143E+02  0.40827137646E+01 -0.40985388228E+03  0.44430836946E+03  0.17109431736E+03 0.  0.
         24    2    5    5    0    0  0.23539431710E+01  0.24312498808E+02 -0.86494187108E+02  0.11997240410E+03  0.79470086799E+02 0.  0.
          5    1    5    5  501    0 -0.14177156314E+02 -0.20229785043E+02 -0.32335969517E+03  0.32433596536E+03  0.47000000000E+01 0. -1.
        -11    1    6    6    0    0 -0.32599119567E+02  0.27696297374E+02 -0.67863085152E+02  0.80219609891E+02  0.00000000000E+00 0.  1.
         12    1    6    6    0    0  0.34953062738E+02 -0.33837985665E+01 -0.18631101956E+02  0.39752794211E+02  0.00000000000E+00 0. -1.
         -5    1    3    3    0  503 -0.25000942367E+02 -0.49769110119E+02 -0.92471399292E+02  0.10805119679E+03  0.47000000000E+01 0.  1.
         11    1    4    4    0    0  0.31590239148E+02  0.16625062268E+02 -0.55188305681E+02  0.65727353429E+02  0.00000000000E+00 0. -1.
        -12    1    4    4    0    0  0.52339163622E+01  0.29061334086E+02  0.23660919748E+02  0.37839055785E+02  0.00000000000E+00 0.  1.
</event>
<event>
12    1  0.1032880E+000  0.1884842E+03  0.7818608E-02  0.1159917E+00
         21   -1    0    0  501  502  0.00000000000E+00  0.00000000000E+00  0.18095153308E+04  0.18095153308E+04  0.00000000000E+00 0. -1.
         21   -1    0    0  502  503 -0.00000000000E+00 -0.00000000000E+00 -0.20982044713E+02  0.20982044713E+02  0.00000000000E+00 0. -1.
         -6    2    1    2    0  503  0.43135393430E+02 -0.62210243775E+02  0.11287248649E+04  0.11442951712E+04  0.17222323207E+03 0.  0.
        -24    2    3    3    0    0  0.86167315818E+02 -0.96495905769E+01  0.81043345713E+03  0.81880188578E+03  0.78206258194E+02 0.  0.
          6    2    1    2  501    0 -0.43135393430E+02  0.62210243775E+02  0.65980842116E+03  0.68620220425E+03  0.17261383460E+03 0.  0.
         24    2    5    5    0    0 -0.39938506485E+02  0.21950276450E+02  0.15291086524E+03  0.17767658322E+03  0.78168641912E+02 0.  0.
          5    1    5    5  501    0 -0.31968869448E+01  0.40259967325E+02  0.50689755592E+03  0.50852562104E+03  0.47000000000E+01 0. -1.
        -13    1    6    6    0    0  0.23377449145E+02 -0.18836043603E+00  0.41559691655E+02  0.47683839806E+02  0.00000000000E+00 0.  1.
         14    1    6    6    0    0 -0.63315955630E+02  0.22138636886E+02  0.11135117358E+03  0.12999274341E+03  0.00000000000E+00 0. -1.
         -5    1    3    3    0  503 -0.43031922388E+02 -0.52560653198E+02  0.31829140779E+03  0.32549328546E+03  0.47000000000E+01 0.  1.
         13    1    4    4    0    0  0.23881252412E+02 -0.32091913010E+02  0.15673210593E+03  0.16175647785E+03  0.00000000000E+00 0. -1.
        -14    1    4    4    0    0  0.62286063406E+02  0.22442322433E+02  0.65370135119E+03  0.65704540793E+03  0.00000000000E+00 0.  1.
</event>
<event>
12    1  0.1032880E+000  0.2532982E+03  0.7818608E-02  0.1111347E+00
         21   -1    0    0  503  502  0.00000000000E+00  0.00000000000E+00  0.21727555194E+03  0.21727555194E+03  0.00000000000E+00 0. -1.
         21   -1    0    0  501  503 -0.00000000000E+00 -0.00000000000E+00 -0.29996443119E+03  0.29996443119E+03  0.00000000000E+00 0. -1.
          6    2    1    2  501    0  0.18490221638E+03 -0.22042076605E+02 -0.63035928056E+01  0.25267486334E+03  0.17067562368E+03 0.  0.
         24    2    3    3    0    0  0.10403569212E+03 -0.34507272572E+02  0.58396669383E+02  0.14825748077E+03  0.80968713172E+02 0.  0.
         -6    2    1    2    0  502 -0.18490221638E+03  0.22042076605E+02 -0.76385286447E+02  0.26456511979E+03  0.17171286458E+03 0.  0.
        -24    2    5    5    0    0 -0.10504336113E+03  0.77340584613E+02 -0.64418039814E+02  0.16658212769E+03  0.81143377217E+02 0.  0.
          5    1    3    3  501    0  0.80866524258E+02  0.12465195967E+02 -0.64700262188E+02  0.10441738257E+03  0.47000000000E+01 0. -1.
        -13    1    4    4    0    0  0.44791089688E+01  0.16799621987E+02  0.26695027103E+02  0.31857717873E+02  0.00000000000E+00 0.  1.
         14    1    4    4    0    0  0.99556583154E+02 -0.51306894560E+02  0.31701642280E+02  0.11639976289E+03  0.00000000000E+00 0. -1.
         -5    1    5    5    0  502 -0.79858855249E+02 -0.55298508007E+02 -0.11967246633E+02  0.97982992103E+02  0.47000000000E+01 0.  1.
         13    1    6    6    0    0 -0.39226324826E+02  0.19328864197E+02 -0.65600853247E+02  0.78840227658E+02  0.00000000000E+00 0. -1.
        -14    1    6    6    0    0 -0.65817036306E+02  0.58011720415E+02  0.11828134322E+01  0.87741900032E+02  0.00000000000E+00 0.  1.
</event>
<event>
12    1  0.1032880E+000  0.3308868E+03  0.7818608E-02  0.1071311E+00
         21   -1    0    0  501  502  0.00000000000E+00  0.00000000000E+00  0.32917501669E+03  0.32917501669E+03  0.00000000000E+00 0. -1.
         21   -1    0    0  502  503 -0.00000000000E+00 -0.00000000000E+00 -0.35012248237E+03  0.35012248237E+03  0.00000000000E+00 0. -1.
         -6    2    1    2    0  503 -0.14676037395E+03 -0.23425924310E+03 -0.96859495147E+02  0.34477217595E+03  0.18185183853E+03 0.  0.
        -24    2    3    3    0    0 -0.15679279211E+03 -0.12964505596E+03 -0.31084040740E+02  0.22070252630E+03  0.79696720964E+02 0.  0.
          6    2    1    2  501    0  0.14676037395E+03  0.23425924310E+03  0.75912029471E+02  0.33452532311E+03  0.17241970666E+03 0.  0.
         24    2    5    5    0    0  0.85437391797E+02  0.17567974814E+03 -0.11624879941E+02  0.21255456481E+03  0.82954103975E+02 0.  0.
          5    1    5    5  501    0  0.61322982150E+02  0.58579494960E+02  0.87536909412E+02  0.12197075829E+03  0.47000000000E+01 0. -1.
        -11    1    6    6    0    0  0.36398034088E+02  0.93205648772E+02  0.34828812644E+02  0.10594883689E+03  0.00000000000E+00 0.  1.
         12    1    6    6    0    0  0.49039357709E+02  0.82474099364E+02 -0.46453692586E+02  0.10660572792E+03  0.00000000000E+00 0. -1.
         -5    1    3    3    0  503  0.10032418162E+02 -0.10461418713E+03 -0.65775454407E+02  0.12406964966E+03  0.47000000000E+01 0.  1.
         11    1    4    4    0    0 -0.51568734144E+02 -0.19206093415E+02  0.21892112327E+02  0.59223922089E+02  0.00000000000E+00 0. -1.
        -12    1    4    4    0    0 -0.10522405797E+03 -0.11043896255E+03 -0.52976153067E+02  0.16147860421E+03  0.00000000000E+00 0.  1.
</event>
<event>
12    1  0.1032880E+000  0.2045048E+03  0.7818608E-02  0.1146355E+00
         21   -1    0    0  501  502  0.00000000000E+00  0.00000000000E+00  0.15181102382E+03  0.15181102382E+03  0.00000000000E+00 0. -1.
         21   -1    0    0  502  503 -0.00000000000E+00 -0.00000000000E+00 -0.76279222150E+03  0.76279222150E+03  0.00000000000E+00 0. -1.
         -6    2    1    2    0  503 -0.10362091469E+03  0.28569103379E+02  0.60430970919E+02  0.21324663981E+03  0.17397913529E+03 0.  0.
        -24    2    3    3    0    0 -0.28018946938E+02  0.16653853002E+02 -0.32560837631E+02  0.92717816799E+02  0.80461004203E+02 0.  0.
          6    2    1    2  501    0  0.10362091469E+03 -0.28569103379E+02 -0.67141216861E+03  0.70135660551E+03  0.17191073355E+03 0.  0.
         24    2    5    5    0    0  0.13621153288E+03 -0.34195245637E+01 -0.57832803510E+03  0.59946747155E+03  0.79578002165E+02 0.  0.
          5    1    5    5  501    0 -0.32590618185E+02 -0.25149578816E+02 -0.93084133507E+02  0.10188913396E+03  0.47000000000E+01 0. -1.
        -11    1    6    6    0    0  0.76876887960E+02  0.13354054689E+02 -0.17707355001E+03  0.19350304595E+03  0.00000000000E+00 0.  1.
         12    1    6    6    0    0  0.59334644917E+02 -0.16773579253E+02 -0.40125448509E+03  0.40596442560E+03  0.00000000000E+00 0. -1.
         -5    1    3    3    0  503 -0.75601967754E+02  0.11915250378E+02  0.92991808551E+02  0.12052882302E+03  0.47000000000E+01 0.  1.
         13    1    4    4    0    0 -0.20783192846E+02  0.19452380420E+02  0.23012978441E+02  0.36605100541E+02  0.00000000000E+00 0. -1.
        -14    1    4    4    0    0 -0.72357540922E+01 -0.27985274178E+01 -0.55573816073E+02  0.56112716258E+02  0.00000000000E+00 0.  1.
</event>
<event>
12    1  0.1032880E+000  0.2074356E+03  0.7818608E-02  0.1143621E+00
         21   -1    0    0  501  502  0.00000000000E+00  0.00000000000E+00  0.10085797650E+03  0.10085797650E+03  0.00000000000E+00 0.  1.
         21   -1    0    0  502  503 -0.00000000000E+00 -0.00000000000E+00 -0.57596090246E+03  0.57596090246E+03  0.00000000000E+00 0.  1.
         -6    2    1    2    0  503  0.11490104158E+03  0.12797187960E+02 -0.40989267533E+03  0.45937487748E+03  0.17218378376E+03 0.  0.
        -24    2    3    3    0    0  0.79656519461E+02 -0.58416985904E+02 -0.26126443796E+03  0.29077452800E+03  0.80827063894E+02 0.  0.
          6    2    1    2  501    0 -0.11490104158E+03 -0.12797187960E+02 -0.65210250625E+02  0.21744400149E+03  0.17223094850E+03 0.  0.
         24    2    5    5    0    0 -0.12008421388E+03  0.40787335967E+02 -0.27782962789E+02  0.15170924391E+03  0.78485517565E+02 0.  0.
          5    1    5    5  501    0  0.51831722957E+01 -0.53584523927E+02 -0.37427287836E+02  0.65734757581E+02  0.47000000000E+01 0. -1.
        -13    1    6    6    0    0 -0.69107503887E+02  0.18421506357E+01  0.19714860776E+02  0.71888221204E+02  0.00000000000E+00 0.  1.
         14    1    6    6    0    0 -0.50976709993E+02  0.38945185331E+02 -0.47497823565E+02  0.79821022704E+02  0.00000000000E+00 0. -1.
         -5    1    3    3    0  503  0.35244522123E+02  0.71214173863E+02 -0.14862823737E+03  0.16860034948E+03  0.47000000000E+01 0.  1.
         13    1    4    4    0    0  0.71703326394E+02 -0.38162528203E+01 -0.13299675291E+03  0.15114253897E+03  0.00000000000E+00 0. -1.
        -14    1    4    4    0    0  0.79531930672E+01 -0.54600733083E+02 -0.12826768505E+03  0.13963198903E+03  0.00000000000E+00 0.  1.
</event>
<event>
12    1  0.1032880E+000  0.1718072E+03  0.7818608E-02  0.1176074E+00
         21   -1    0    0  503  502  0.00000000000E+00  0.00000000000E+00  0.20420506911E+04  0.20420506911E+04  0.00000000000E+00 0.  1.
         21   -1    0    0  501  503 -0.00000000000E+00 -0.00000000000E+00 -0.17385640939E+02  0.17385640939E+02  0.00000000000E+00 0.  1.
          6    2    1    2  501    0  0.80520377571E+00 -0.15474956047E+02  0.58818860100E+03  0.61276712065E+03  0.17110695832E+03 0.  0.
         24    2    3    3    0    0 -0.59269988838E+02  0.78321784917E+01  0.25896157055E+03  0.27726037128E+03  0.78980655025E+02 0.  0.
         -6    2    1    2    0  502 -0.80520377571E+00  0.15474956047E+02  0.14364764491E+04  0.14466692114E+04  0.17072520484E+03 0.  0.
        -24    2    5    5    0    0 -0.46753195574E+02  0.62339154060E+02  0.87945390673E+03  0.88577378995E+03  0.71302184318E+02 0.  0.
          5    1    3    3  501    0  0.60075192614E+02 -0.23307134539E+02  0.32922703046E+03  0.33550674937E+03  0.47000000000E+01 0. -1.
        -13    1    4    4    0    0 -0.78240912101E+02 -0.72224416009E+00  0.20384178438E+03  0.21834292986E+03  0.00000000000E+00 0.  1.
         14    1    4    4    0    0  0.18970923263E+02  0.85544226518E+01  0.55119786170E+02  0.58917441422E+02  0.00000000000E+00 0. -1.
         -5    1    5    5    0  502  0.45947991799E+02 -0.46864198013E+02  0.55702254240E+03  0.56089542140E+03  0.47000000000E+01 0.  1.
         13    1    6    6    0    0 -0.37106227213E+02 -0.80511544469E+00  0.45865707395E+03  0.46015631235E+03  0.00000000000E+00 0. -1.
        -14    1    6    6    0    0 -0.96469683610E+01  0.63144269504E+02  0.42079683277E+03  0.42561747761E+03  0.00000000000E+00 0.  1.
</event>
<event>
12    1  0.1032880E+000  0.1752378E+03  0.7818608E-02  0.1173259E+00
         21   -1    0    0  503  502  0.00000000000E+00  0.00000000000E+00  0.95388917914E+02  0.95388917914E+02  0.00000000000E+00 0. -1.
         21   -1    0    0  501  503 -0.00000000000E+00 -0.00000000000E+00 -0.31775323505E+03  0.31775323505E+03  0.00000000000E+00 0. -1.
          6    2    1    2  501    0  0.22691253106E+02 -0.22340540342E+02 -0.98614937564E+02  0.20108002419E+03  0.17232027596E+03 0.  0.
         24    2    3    3    0    0 -0.48080395497E+01  0.43196355698E+02 -0.18278443570E+02  0.93714582329E+02  0.80989376167E+02 0.  0.
         -6    2    1    2    0  502 -0.22691253106E+02  0.22340540342E+02 -0.12374937957E+03  0.21206212877E+03  0.16924078942E+03 0.  0.
        -24    2    5    5    0    0 -0.43948920463E+02 -0.28899317171E+02 -0.29241897839E+02  0.10237545901E+03  0.82818885987E+02 0.  0.
          5    1    3    3  501    0  0.27499292656E+02 -0.65536896040E+02 -0.80336493994E+02  0.10736544186E+03  0.47000000000E+01 0. -1.
        -13    1    4    4    0    0  0.33000557826E+02  0.17761367050E+02 -0.28417323250E+02  0.47032406243E+02  0.00000000000E+00 0.  1.
         14    1    4    4    0    0 -0.37808597375E+02  0.25434988648E+02  0.10138879680E+02  0.46682176087E+02  0.00000000000E+00 0. -1.
         -5    1    5    5    0  502  0.21257667356E+02  0.51239857513E+02 -0.94507481734E+02  0.10968666976E+03  0.47000000000E+01 0.  1.
         11    1    6    6    0    0 -0.39876728672E+02 -0.67840240449E+01 -0.54942140760E+02  0.68226206865E+02  0.00000000000E+00 0. -1.
        -12    1    6    6    0    0 -0.40721917910E+01 -0.22115293126E+02  0.25700242922E+02  0.34149252148E+02  0.00000000000E+00 0.  1.
</event>
<event>
12    1  0.1032880E+000  0.1952263E+03  0.7818608E-02  0.1154357E+00
         21   -1    0    0  501  502  0.00000000000E+00  0.00000000000E+00  0.13386831165E+03  0.13386831165E+03  0.00000000000E+00 0. -1.
         21   -1    0    0  502  503 -0.00000000000E+00 -0.00000000000E+00 -0.34442806297E+03  0.34442806297E+03  0.00000000000E+00 0. -1.
         -6    2    1    2    0  503  0.55094262909E+02  0.69612186164E+02 -0.20719835793E+03  0.28304116069E+03  0.17117214974E+03 0.  0.
        -24    2    3    3    0    0 -0.10622949539E+02  0.84344784920E+02 -0.91462038105E+02  0.14905314927E+03  0.81391935054E+02 0.  0.
          6    2    1    2  501    0 -0.55094262909E+02 -0.69612186164E+02 -0.33613933908E+01  0.19525521394E+03  0.17387370513E+03 0.  0.
         24    2    5    5    0    0 -0.72286985959E+02 -0.71517131428E+02 -0.54626288003E+02  0.14094685397E+03  0.80881863712E+02 0.  0.
          5    1    5    5  501    0  0.17192723050E+02  0.19049452640E+01  0.51264894612E+02  0.54308359963E+02  0.47000000000E+01 0. -1.
        -13    1    6    6    0    0  0.80391483546E+01 -0.36599666414E+02  0.46363450838E+00  0.37475037623E+02  0.00000000000E+00 0.  1.
         14    1    6    6    0    0 -0.80326134314E+02 -0.34917465014E+02 -0.55089922511E+02  0.10347181635E+03  0.00000000000E+00 0. -1.
         -5    1    3    3    0  503  0.65717212449E+02 -0.14732598756E+02 -0.11573631983E+03  0.13398801142E+03  0.47000000000E+01 0.  1.
         13    1    4    4    0    0 -0.40161369133E+02  0.60906988600E+02 -0.82814560771E+02  0.11036688048E+03  0.00000000000E+00 0. -1.
        -14    1    4    4    0    0  0.29538419594E+02  0.23437796320E+02 -0.86474773339E+01  0.38686268787E+02  0.00000000000E+00 0.  1.
</event>
<event>
12    1  0.1032880E+000  0.1824538E+03  0.7818608E-02  0.1165909E+00
         21   -1    0    0  503  502  0.00000000000E+00  0.00000000000E+00  0.95772309851E+02  0.95772309851E+02  0.00000000000E+00 0. -1.
         21   -1    0    0  501  503 -0.00000000000E+00 -0.00000000000E+00 -0.37174311974E+03  0.37174311974E+03  0.00000000000E+00 0. -1.
          6    2    1    2  501    0 -0.53486465138E+02 -0.24533366683E+02 -0.74725538434E+02  0.19716308693E+03  0.17270404951E+03 0.  0.
         24    2    3    3    0    0 -0.10262796325E+02  0.50830868264E+02 -0.46747154856E+02  0.10576870306E+03  0.79451997478E+02 0.  0.
         -6    2    1    2    0  502  0.53486465138E+02  0.24533366683E+02 -0.20124527146E+03  0.27035234267E+03  0.17066939347E+03 0.  0.
        -24    2    5    5    0    0  0.93224205911E+02  0.11309875633E+02 -0.90235797439E+02  0.15161253435E+03  0.77622133296E+02 0.  0.
          5    1    3    3  501    0 -0.43223668814E+02 -0.75364234947E+02 -0.27978383578E+02  0.91394383867E+02  0.47000000000E+01 0. -1.
        -13    1    4    4    0    0 -0.32139247980E+02 -0.70837447601E+01 -0.17996106226E+02  0.37509605967E+02  0.00000000000E+00 0.  1.
         14    1    4    4    0    0  0.21876451655E+02  0.57914613024E+02 -0.28751048630E+02  0.68259097093E+02  0.00000000000E+00 0. -1.
         -5    1    5    5    0  502 -0.39737740772E+02  0.13223491050E+02 -0.11100947402E+03  0.11873980832E+03  0.47000000000E+01 0.  1.
         11    1    6    6    0    0 -0.76120520921E+01  0.40810070685E+01  0.71712963117E+01  0.11226105582E+02  0.00000000000E+00 0. -1.
        -12    1    6    6    0    0  0.10083625800E+03  0.72288685644E+01 -0.97407093751E+02  0.14038642877E+03  0.00000000000E+00 0.  1.
</event>
<event>
12    1  0.1032880E+000  0.1911829E+03  0.7818608E-02  0.1157435E+00
         21   -1    0    0  503  502  0.00000000000E+00  0.00000000000E+00  0.23739702886E+03  0.23739702886E+03  0.00000000000E+00 0. -1.
         21   -1    0    0  501  503 -0.00000000000E+00 -0.00000000000E+00 -0.15835919247E+03  0.15835919247E+03  0.00000000000E+00 0. -1.
          6    2    1    2  501    0 -0.76815543487E+02 -0.32897708981E+02  0.60522497494E+01  0.19111560548E+03  0.17177211053E+03 0.  0.
         24    2    3    3    0    0 -0.10332909545E+03  0.38582186171E+01 -0.29398501717E+02  0.13338508989E+03  0.78965324560E+02 0.  0.
         -6    2    1    2    0  502  0.76815543487E+02  0.32897708981E+02  0.72985586637E+02  0.20464061585E+03  0.17195347866E+03 0.  0.
        -24    2    5    5    0    0 -0.92513833447E+01 -0.27142504166E+02  0.15937753132E+02  0.85104477399E+02  0.78526788246E+02 0.  0.
          5    1    3    3  501    0  0.26513551966E+02 -0.36755927598E+02  0.35450751466E+02  0.57730515596E+02  0.47000000000E+01 0. -1.
        -11    1    4    4    0    0 -0.11043605923E+03  0.19604109899E+02 -0.29978909575E+02  0.11609986788E+03  0.00000000000E+00 0.  1.
         12    1    4    4    0    0  0.71069637778E+01 -0.15745891282E+02  0.58040785873E+00  0.17285222003E+02  0.00000000000E+00 0. -1.
         -5    1    5    5    0  502  0.86066926831E+02  0.60040213147E+02  0.57047833505E+02  0.11953613845E+03  0.47000000000E+01 0.  1.
         13    1    6    6    0    0  0.40483288943E+01  0.10129029348E+02  0.38180785671E+02  0.39708419722E+02  0.00000000000E+00 0. -1.
        -14    1    6    6    0    0 -0.13299712239E+02 -0.37271533513E+02 -0.22243032539E+02  0.45396057677E+02  0.00000000000E+00 0.  1.
</event>
<event>
12    1  0.1032880E+000  0.2225609E+03  0.7818608E-02  0.1132234E+00
         21   -1    0    0  503  502  0.00000000000E+00  0.00000000000E+00  0.42092671679E+03  0.42092671679E+03  0.00000000000E+00 0.  1.
         21   -1    0    0  501  503 -0.00000000000E+00 -0.00000000000E+00 -0.20924152793E+03  0.20924152793E+03  0.00000000000E+00 0.  1.
          6    2    1    2  501    0  0.13955569169E+03  0.17161350289E+02  0.31489807173E+03  0.38483938030E+03  0.17079300342E+03 0.  0.
         24    2    3    3    0    0  0.14706625789E+03 -0.19706645626E+02  0.18863098872E+03  0.25300188950E+03  0.80071656005E+02 0.  0.
         -6    2    1    2    0  502 -0.13955569169E+03 -0.17161350289E+02 -0.10321288287E+03  0.24532886443E+03  0.17251970758E+03 0.  0.
        -24    2    5    5    0    0 -0.16660304398E+03 -0.37749979344E+02 -0.85992027982E+02  0.20693487069E+03  0.79030226048E+02 0.  0.
          5    1    3    3  501    0 -0.75105661905E+01  0.36867995914E+02  0.12626708301E+03  0.13183749079E+03  0.47000000000E+01 0. -1.
        -11    1    4    4    0    0  0.75545354411E+02 -0.13807873318E+02  0.36998174347E+02  0.85244488641E+02  0.00000000000E+00 0.  1.
         12    1    4    4    0    0  0.71520903475E+02 -0.58987723073E+01  0.15163281438E+03  0.16775740086E+03  0.00000000000E+00 0. -1.
         -5    1    5    5    0  502  0.27047352282E+02  0.20588629055E+02 -0.17220854887E+02  0.38393993735E+02  0.47000000000E+01 0.  1.
         11    1    6    6    0    0 -0.15225452048E+03 -0.53283100538E+02 -0.90996012166E+02  0.18520475706E+03  0.00000000000E+00 0. -1.
        -12    1    6    6    0    0 -0.14348523502E+02  0.15533121194E+02  0.50039841836E+01  0.21730113631E+02  0.00000000000E+00 0.  1.
</event>
<event>
12    1  0.1032880E+000  0.2781062E+03  0.7818608E-02  0.1096787E+00
         21   -1    0    0  501  502  0.00000000000E+00  0.00000000000E+00  0.18798066188E+03  0.18798066188E+03  0.00000000000E+00 0. -1.
         21   -1    0    0  502  503 -0.00000000000E+00 -0.00000000000E+00 -0.43348265774E+03  0.43348265774E+03  0.00000000000E+00 0. -1.
         -6    2    1    2    0  503 -0.53724106726E+02 -0.21148514529E+03 -0.19372426797E+03  0.33857821159E+03  0.17173778570E+03 0.  0.
        -24    2    3    3    0    0  0.25616222917E+02 -0.64709525223E+02 -0.46407362062E+02  0.11595222181E+03  0.80297951152E+02 0.  0.
          6    2    1    2  501    0  0.53724106726E+02  0.21148514529E+03 -0.51777727885E+02  0.28288510803E+03  0.17242623037E+03 0.  0.
         24    2    5    5    0    0  0.55690759046E+02  0.23317929819E+03 -0.35728226370E+02  0.25542276126E+03  0.80561995153E+02 0.  0.
          5    1    5    5  501    0 -0.19666523201E+01 -0.21694152898E+02 -0.16049501515E+02  0.27462346771E+02  0.47000000000E+01 0. -1.
        -13    1    6    6    0    0  0.69268122307E+02  0.11786271622E+03 -0.15956622341E+02  0.13763831748E+03  0.00000000000E+00 0.  1.
         14    1    6    6    0    0 -0.13577363261E+02  0.11531658197E+03 -0.19771604029E+02  0.11778444378E+03  0.00000000000E+00 0. -1.
         -5    1    3    3    0  503 -0.79340329643E+02 -0.14677562007E+03 -0.14731690591E+03  0.22262598977E+03  0.47000000000E+01 0.  1.
         13    1    4    4    0    0 -0.48353801251E+01 -0.57845139957E+02 -0.58560041356E+02  0.82454348346E+02  0.00000000000E+00 0. -1.
        -14    1    4    4    0    0  0.30451603043E+02 -0.68643852661E+01  0.12152679293E+02  0.33497873469E+02  0.00000000000E+00 0.  1.
</event>
<event>
12    1  0.1032880E+000  0.3236642E+03  0.7818608E-02  0.1074090E+00
         21   -1    0    0  501  502  0.00000000000E+00  0.00000000000E+00  0.57308048031E+03  0.57308048031E+03  0.00000000000E+00 0. -1.
         21   -1    0    0  502  503 -0.00000000000E+00 -0.00000000000E+00 -0.20420145382E+03  0.20420145382E+03  0.00000000000E+00 0.  1.
         -6    2    1    2    0  503 -0.86421133728E+02 -0.26006348443E+03  0.57211962293E+02  0.32868184062E+03  0.17221183304E+03 0.  0.
        -24    2    3    3    0    0 -0.43799767999E+02 -0.50920367333E+02  0.72153838773E+01  0.10941220730E+03  0.86067798014E+02 0.  0.
          6    2    1    2  501    0  0.86421133728E+02  0.26006348443E+03  0.31166706420E+03  0.44860009351E+03  0.17030577412E+03 0.  0.
         24    2    5    5    0    0  0.82991283713E+02  0.83166124227E+02  0.17682386275E+03  0.22609342193E+03  0.77765028206E+02 0.  0.
          5    1    5    5  501    0  0.34298500154E+01  0.17689736020E+03  0.13484320145E+03  0.22250667157E+03  0.47000000000E+01 0. -1.
        -13    1    6    6    0    0  0.97841536889E+02  0.77893140671E+02  0.15462423707E+03  0.19886920927E+03  0.00000000000E+00 0.  1.
         14    1    6    6    0    0 -0.14850253176E+02  0.52729835565E+01  0.22199625679E+02  0.27224212666E+02  0.00000000000E+00 0. -1.
         -5    1    3    3    0  503 -0.42621365729E+02 -0.20914311710E+03  0.49996578416E+02  0.21926963333E+03  0.47000000000E+01 0.  1.
         11    1    4    4    0    0 -0.39339619529E+02 -0.65519847733E+02 -0.19294743473E+02  0.78820956841E+02  0.00000000000E+00 0. -1.
        -12    1    4    4    0    0 -0.44601484700E+01  0.14599480400E+02  0.26510127351E+02  0.30591250456E+02  0.00000000000E+00 0.  1.
</event>
<event>
12    1  0.1032880E+000  0.3226410E+03  0.7818608E-02  0.1074525E+00
         21   -1    0    0  501  502  0.00000000000E+00  0.00000000000E+00  0.32690629611E+04  0.32690629611E+04  0.00000000000E+00 0. -1.
         21   -1    0    0  502  503 -0.00000000000E+00 -0.00000000000E+00 -0.35769348012E+02  0.35769348012E+02  0.00000000000E+00 0. -1.
         -6    2    1    2    0  503  0.27047677095E+03  0.49033735861E+02  0.10624074680E+04  0.11101013801E+04  0.16749165710E+03 0.  0.
        -24    2    3    3    0    0  0.12819371809E+03  0.78698492918E+02  0.46692835240E+03  0.49712345877E+03  0.80514376603E+02 0.  0.
          6    2    1    2  501    0 -0.27047677095E+03 -0.49033735861E+02  0.21708861451E+04  0.21947309290E+04  0.16892366582E+03 0.  0.
         24    2    5    5    0    0 -0.25901020218E+03  0.10221809923E+01  0.18378060566E+04  0.18576826946E+04  0.79790739917E+02 0.  0.
          5    1    5    5  501    0 -0.11466568769E+02 -0.50055916853E+02  0.33308008850E+03  0.33704823448E+03  0.47000000000E+01 0. -1.
        -11    1    6    6    0    0 -0.18881667343E+03 -0.11972101429E+02  0.10729928339E+04  0.10895451753E+04  0.00000000000E+00 0.  1.
         12    1    6    6    0    0 -0.70193528751E+02  0.12994282421E+02  0.76481322271E+03  0.76813751926E+03  0.00000000000E+00 0. -1.
         -5    1    3    3    0  503  0.14228305286E+03 -0.29664757057E+02  0.59547911557E+03  0.61297792132E+03  0.47000000000E+01 0.  1.
         11    1    4    4    0    0  0.32862743229E+02  0.28821100295E+02  0.26246783598E+03  0.26608265753E+03  0.00000000000E+00 0. -1.
        -12    1    4    4    0    0  0.95330974863E+02  0.49877392622E+02  0.20446051643E+03  0.23104080125E+03  0.00000000000E+00 0.  1.
</event>
<event>
12    1  0.1032880E+000  0.2111394E+03  0.7818608E-02  0.1140777E+00
         21   -1    0    0  503  502  0.00000000000E+00  0.00000000000E+00  0.16502746878E+04  0.16502746878E+04  0.00000000000E+00 0. -1.
         21   -1    0    0  501  503 -0.00000000000E+00 -0.00000000000E+00 -0.27277796850E+02  0.27277796850E+02  0.00000000000E+00 0. -1.
          6    2    1    2  501    0 -0.92338689466E+02  0.78833285203E+02  0.90564948409E+03  0.92993592576E+03  0.17273887102E+03 0.  0.
         24    2    3    3    0    0 -0.96691157825E+00  0.56003263494E+02  0.63718172626E+03  0.64538884938E+03  0.85958793496E+02 0.  0.
         -6    2    1    2    0  502  0.92338689466E+02 -0.78833285203E+02  0.71734740688E+03  0.74761655891E+03  0.17205259826E+03 0.  0.
        -24    2    5    5    0    0  0.39634197456E+02  0.19144917789E+02  0.22072873252E+03  0.23866696469E+03  0.79393634416E+02 0.  0.
          5    1    3    3  501    0 -0.91371777887E+02  0.22830021710E+02  0.26846775783E+03  0.28454707638E+03  0.47000000000E+01 0. -1.
        -13    1    4    4    0    0  0.97610643820E+01  0.77723812569E+02  0.49396958638E+03  0.50014220146E+03  0.00000000000E+00 0.  1.
         14    1    4    4    0    0 -0.10727975960E+02 -0.21720549075E+02  0.14321213988E+03  0.14524664791E+03  0.00000000000E+00 0. -1.
         -5    1    5    5    0  502  0.52704492010E+02 -0.97978202992E+02  0.49661867435E+03  0.50894959422E+03  0.47000000000E+01 0.  1.
         13    1    6    6    0    0  0.32395655417E+02  0.35700683775E+02  0.60195951377E+02  0.77120489327E+02  0.00000000000E+00 0. -1.
        -14    1    6    6    0    0  0.72385420390E+01 -0.16555765986E+02  0.16053278115E+03  0.16154647536E+03  0.00000000000E+00 0.  1.
</event>
<event>
12    1  0.1032880E+000  0.1778883E+03  0.7818608E-02  0.1171019E+00
         21   -1    0    0  501  502  0.00000000000E+00  0.00000000000E+00  0.95420876601E+02  0.95420876601E+02  0.00000000000E+00 0.  1.
         21   -1    0    0  502  503 -0.00000000000E+00 -0.00000000000E+00 -0.33697827507E+03  0.33697827507E+03  0.00000000000E+00 0.  1.
         -6    2    1    2    0  503  0.32747936492E+02 -0.34040952456E+02 -0.16322288798E+03  0.23802695168E+03  0.16668504665E+03 0.  0.
        -24    2    3    3    0    0  0.76322840700E+01 -0.40793468085E+02 -0.20299252931E+02  0.92680304247E+02  0.80344385785E+02 0.  0.
          6    2    1    2  501    0 -0.32747936492E+02  0.34040952456E+02 -0.78334510488E+02  0.19437219999E+03  0.17150231138E+03 0.  0.
         24    2    5    5    0    0  0.13970706595E+02  0.74979600456E+02 -0.69659062696E+02  0.13147579384E+03  0.81341122586E+02 0.  0.
          5    1    5    5  501    0 -0.46718643087E+02 -0.40938648000E+02 -0.86754477920E+01  0.62896406148E+02  0.47000000000E+01 0. -1.
        -13    1    6    6    0    0  0.10968197821E+02 -0.10502606502E+02 -0.36864114764E+02  0.39869400097E+02  0.00000000000E+00 0.  1.
         14    1    6    6    0    0  0.30025087743E+01  0.85482206957E+02 -0.32794947932E+02  0.91606393746E+02  0.00000000000E+00 0. -1.
         -5    1    3    3    0  503  0.25115652422E+02  0.67525156291E+01 -0.14292363505E+03  0.14534664743E+03  0.47000000000E+01 0.  1.
         11    1    4    4    0    0 -0.36630829679E+01  0.12671466357E+02 -0.33893487795E+02  0.36369668013E+02  0.00000000000E+00 0. -1.
        -12    1    4    4    0    0  0.11295367038E+02 -0.53464934442E+02  0.13594234865E+02  0.56310636233E+02  0.00000000000E+00 0.  1.
</event>
<event>
12    1  0.1032880E+000  0.2301034E+03  0.7818608E-02  0.1127003E+00
         21   -1    0    0  501  502  0.00000000000E+00  0.00000000000E+00  0.85090488616E+02  0.85090488616E+02  0.00000000000E+00 0. -1.
         21   -1    0    0  502  503 -0.00000000000E+00 -0.00000000000E+00 -0.61890085389E+03  0.61890085389E+03  0.00000000000E+00 0. -1.
         -6    2    1    2    0  503 -0.65354899757E+02  0.13551826525E+03 -0.23979294153E+03  0.33063649906E+03  0.17083142734E+03 0.  0.
        -24    2    3    3    0    0 -0.36973884523E+02 -0.20458705840E+01 -0.10086033826E+03  0.13301632868E+03  0.78417358648E+02 0.  0.
          6    2    1    2  501    0  0.65354899757E+02 -0.13551826525E+03 -0.29401742375E+03  0.37335484344E+03  0.17410092050E+03 0.  0.
         24    2    5    5    0    0  0.89656301766E+02 -0.15313121323E+03 -0.27722693429E+03  0.33864483606E+03  0.79612379591E+02 0.  0.
          5    1    5    5  501    0 -0.24301402009E+02  0.17612947986E+02 -0.16790489458E+02  0.34710007384E+02  0.47000000000E+01 0. -1.
        -11    1    6    6    0    0  0.61454130142E+02 -0.11423934467E+03 -0.25416677993E+03  0.28535590059E+03  0.00000000000E+00 0.  1.
         12    1    6    6    0    0  0.28202171624E+02 -0.38891868558E+02 -0.23060154355E+02  0.53288935466E+02  0.00000000000E+00 0. -1.
         -5    1    3    3    0  503 -0.28381015234E+02  0.13756413583E+03 -0.13893260326E+03  0.19762017038E+03  0.47000000000E+01 0.  1.
         13    1    4    4    0    0  0.22671623782E+02  0.90976416258E+01 -0.18138589047E+02  0.30426600544E+02  0.00000000000E+00 0. -1.
        -14    1    4    4    0    0 -0.59645508305E+02 -0.11143512210E+02 -0.82721749218E+02  0.10258972814E+03  0.00000000000E+00 0.  1.
</event>
<event>
12    1  0.1032880E+000  0.1779840E+03  0.7818608E-02  0.1170086E+00
         21   -1    0    0  501  502  0.00000000000E+00  0.00000000000E+00  0.43386225311E+03  0.43386225311E+03  0.00000000000E+00 0. -1.
         21   -1    0    0  502  503 -0.00000000000E+00 -0.00000000000E+00 -0.17176862828E+03  0.17176862828E+03  0.00000000000E+00 0. -1.
         -6    2    1    2    0  503  0.30964774918E+02 -0.29614607152E+02  0.36146415836E+03  0.40290771652E+03  0.17274966863E+03 0.  0.
        -24    2    3    3    0    0  0.32791506323E+02 -0.11535548536E+02  0.37002497516E+03  0.38227844381E+03  0.89498461400E+02 0.  0.
          6    2    1    2  501    0 -0.30964774918E+02  0.29614607152E+02 -0.99370533529E+02  0.20272316487E+03  0.17142443349E+03 0.  0.
         24    2    5    5    0    0  0.26389548007E+01  0.78907059414E+02 -0.77144865871E+02  0.13888722825E+03  0.84291421470E+02 0.  0.
          5    1    5    5  501    0 -0.33603729718E+02 -0.49292452262E+02 -0.22225667658E+02  0.63835936617E+02  0.47000000000E+01 0. -1.
        -11    1    6    6    0    0 -0.17840763224E+02  0.21048082677E+02  0.12462002281E+02  0.30275668740E+02  0.00000000000E+00 0.  1.
         12    1    6    6    0    0  0.20479718025E+02  0.57858976737E+02 -0.89606868153E+02  0.10861155951E+03  0.00000000000E+00 0. -1.
         -5    1    3    3    0  503 -0.18267314054E+01 -0.18079058616E+02 -0.85608168051E+01  0.20629272707E+02  0.47000000000E+01 0.  1.
         13    1    4    4    0    0 -0.12807642649E+02  0.27235899462E+00  0.28328224994E+03  0.28357175992E+03  0.00000000000E+00 0. -1.
        -14    1    4    4    0    0  0.45599148972E+02 -0.11807907531E+02  0.86742725220E+02  0.98706683897E+02  0.00000000000E+00 0.  1.
</event>
<event>
12    1  0.1032880E+000  0.2482916E+03  0.7818608E-02  0.1114436E+00
         21   -1    0    0  501  502  0.00000000000E+00  0.00000000000E+00  0.20680456476E+03  0.20680456476E+03  0.00000000000E+00 0. -1.
         21   -1    0    0  502  503 -0.00000000000E+00 -0.00000000000E+00 -0.35329207183E+03  0.35329207183E+03  0.00000000000E+00 0. -1.
         -6    2    1    2    0  503  0.19170290663E+02  0.17814311624E+03  0.37834197314E+02  0.25086659441E+03  0.17146472464E+03 0.  0.
        -24    2    3    3    0    0  0.42983788038E+02  0.28686776067E+02  0.32203350083E+01  0.95545991338E+02  0.80300241270E+02 0.  0.
          6    2    1    2  501    0 -0.19170290663E+02 -0.17814311624E+03 -0.18432170439E+03  0.30923004218E+03  0.17189025094E+03 0.  0.
         24    2    5    5    0    0 -0.18974156024E+02 -0.28426478266E+02 -0.11577500521E+03  0.14450041484E+03  0.79425655768E+02 0.  0.
          5    1    5    5  501    0 -0.19613463880E+00 -0.14971663798E+03 -0.68546699180E+02  0.16472962734E+03  0.47000000000E+01 0. -1.
        -11    1    6    6    0    0  0.15754487738E+02 -0.44015205533E+02 -0.49612533472E+02  0.68168509442E+02  0.00000000000E+00 0.  1.
         12    1    6    6    0    0 -0.34728643762E+02  0.15588727267E+02 -0.66162471733E+02  0.76331905395E+02  0.00000000000E+00 0. -1.
         -5    1    3    3    0  503 -0.23813497375E+02  0.14945634018E+03  0.34613862306E+02  0.15532060307E+03  0.47000000000E+01 0.  1.
         13    1    4    4    0    0  0.13040300806E+02 -0.61704047318E+01  0.36209882380E+02  0.38977928647E+02  0.00000000000E+00 0. -1.
        -14    1    4    4    0    0  0.29943487232E+02  0.34857180799E+02 -0.32989547371E+02  0.56568062691E+02  0.00000000000E+00 0.  1.
</event>
<event>
12    1  0.1032880E+000  0.2480651E+03  0.7818608E-02  0.1114605E+00
         21   -1    0    0  503  502  0.00000000000E+00  0.00000000000E+00  0.26545979111E+03  0.26545979111E+03  0.00000000000E+00 0. -1.
         21   -1    0    0  501  503 -0.00000000000E+00 -0.00000000000E+00 -0.25776747921E+03  0.25776747921E+03  0.00000000000E+00 0. -1.
          6    2    1    2  501    0  0.57271335863E+02 -0.16462931437E+03 -0.79836053892E+02  0.26017309544E+03  0.17587901247E+03 0.  0.
         24    2    3    3    0    0 -0.18233216249E+02 -0.13932351439E+03 -0.66332035550E+02  0.17926716603E+03  0.89405179031E+02 0.  0.
         -6    2    1    2    0  502 -0.57271335863E+02  0.16462931437E+03  0.87528365789E+02  0.26305417489E+03  0.17650344769E+03 0.  0.
        -24    2    5    5    0    0  0.15122587525E+02  0.13937796911E+03  0.19170718061E+02  0.16022728840E+03  0.75168853864E+02 0.  0.
          5    1    3    3  501    0  0.75504552112E+02 -0.25305799973E+02 -0.13504018342E+02  0.80905929407E+02  0.47000000000E+01 0. -1.
        -13    1    4    4    0    0 -0.41637619134E+02 -0.44236966802E+02 -0.52651869560E+02  0.80391665782E+02  0.00000000000E+00 0.  1.
         14    1    4    4    0    0  0.23404402885E+02 -0.95086547593E+02 -0.13680165990E+02  0.98875500247E+02  0.00000000000E+00 0. -1.
         -5    1    5    5    0  502 -0.72393923388E+02  0.25251345256E+02  0.68357647729E+02  0.10282688648E+03  0.47000000000E+01 0.  1.
         13    1    6    6    0    0 -0.22399050151E+02  0.31560347751E+02 -0.14305174790E+02  0.41260283853E+02  0.00000000000E+00 0. -1.
        -14    1    6    6    0    0  0.37521637676E+02  0.10781762136E+03  0.33475892851E+02  0.11896700455E+03  0.00000000000E+00 0.  1.
</event>
<event>
12    1  0.1032880E+000  0.2710017E+03  0.7818608E-02  0.1101014E+00
         21   -1    0    0  503  502  0.00000000000E+00  0.00000000000E+00  0.86825208057E+02  0.86825208057E+02  0.00000000000E+00 0. -1.
         21   -1    0    0  501  503 -0.00000000000E+00 -0.00000000000E+00 -0.96628160341E+03  0.96628160341E+03  0.00000000000E+00 0.  1.
          6    2    1    2  501    0  0.20971758389E+03  0.97825176068E+01 -0.63220778927E+03  0.68784343323E+03  0.17136142268E+03 0.  0.
         24    2    3    3    0    0  0.92919138443E+02 -0.50844333340E+02 -0.38595525088E+03  0.40859462916E+03  0.82273949528E+02 0.  0.
         -6    2    1    2    0  502 -0.20971758389E+03 -0.97825176068E+01 -0.24724860609E+03  0.36526337824E+03  0.16795326621E+03 0.  0.
        -24    2    5    5    0    0 -0.23102946685E+03 -0.83034599344E+01 -0.21341106797E+03  0.32497128283E+03  0.81354094733E+02 0.  0.
          5    1    3    3  501    0  0.11679844544E+03  0.60626850947E+02 -0.24625253838E+03  0.27924880407E+03  0.47000000000E+01 0. -1.
        -13    1    4    4    0    0 -0.11034618577E+02 -0.21740652025E+02 -0.10034144654E+03  0.10326095415E+03  0.00000000000E+00 0.  1.
         14    1    4    4    0    0  0.10395375702E+03 -0.29103681315E+02 -0.28561380434E+03  0.30533367501E+03  0.00000000000E+00 0. -1.
         -5    1    5    5    0  502  0.21311882964E+02 -0.14790576723E+01 -0.33837538115E+02  0.40292095413E+02  0.47000000000E+01 0.  1.
         11    1    6    6    0    0 -0.16926605591E+03  0.30677129088E+02 -0.15152452098E+03  0.22924171608E+03  0.00000000000E+00 0. -1.
        -12    1    6    6    0    0 -0.61763410941E+02 -0.38980589022E+02 -0.61886546993E+02  0.95729566751E+02  0.00000000000E+00 0.  1.
</event>
<event>
12    1  0.1032880E+000  0.1846542E+03  0.7818608E-02  0.1163826E+00
         21   -1    0    0  501  502  0.00000000000E+00  0.00000000000E+00  0.35300879198E+03  0.35300879198E+03  0.00000000000E+00 0. -1.
         21   -1    0    0  502  503 -0.00000000000E+00 -0.00000000000E+00 -0.15938106676E+03  0.15938106676E+03  0.00000000000E+00 0. -1.
         -6    2    1    2    0  503  0.33280363160E+02  0.52023829026E+02  0.25859409557E+03  0.31664053208E+03  0.17197749544E+03 0.  0.
        -24    2    3    3    0    0  0.77566241334E+02  0.23637677656E+02  0.22779243549E+03  0.25550261538E+03  0.82564709164E+02 0.  0.
          6    2    1    2  501    0 -0.33280363160E+02 -0.52023829026E+02 -0.64966370344E+02  0.19574932665E+03  0.17402042481E+03 0.  0.
         24    2    5    5    0    0 -0.24224617571E+02  0.40064822974E+02 -0.17687855414E+02  0.91731663110E+02  0.76875325375E+02 0.  0.
          5    1    5    5  501    0 -0.90557455888E+01 -0.92088652000E+02 -0.47278514930E+02  0.10401766354E+03  0.47000000000E+01 0. -1.
        -13    1    6    6    0    0  0.16124422759E+02  0.17295676499E+00  0.18416871815E+02  0.24478727312E+02  0.00000000000E+00 0.  1.
         14    1    6    6    0    0 -0.40349040330E+02  0.39891866209E+02 -0.36104727229E+02  0.67252935798E+02  0.00000000000E+00 0. -1.
         -5    1    3    3    0  503 -0.44285878174E+02  0.28386151370E+02  0.30801660076E+02  0.61137916702E+02  0.47000000000E+01 0.  1.
         13    1    4    4    0    0  0.24314702661E+02  0.50012755249E+02  0.12407800293E+03  0.13596996456E+03  0.00000000000E+00 0. -1.
        -14    1    4    4    0    0  0.53251538672E+02 -0.26375077594E+02  0.10371443257E+03  0.11953265082E+03  0.00000000000E+00 0.  1.
</event>
<event>
12    1  0.1032880E+000  0.2333896E+03  0.7818608E-02  0.1124563E+00
         21   -1    0    0  501  502  0.00000000000E+00  0.00000000000E+00  0.54409537408E+03  0.54409537408E+03  0.00000000000E+00 0. -1.
         21   -1    0    0  502  503 -0.00000000000E+00 -0.00000000000E+00 -0.12285396965E+03  0.12285396965E+03  0.00000000000E+00 0. -1.
         -6    2    1    2    0  503  0.51694819375E+02  0.14781771996E+03  0.64327404879E+02  0.24050087453E+03  0.17082219689E+03 0.  0.
        -24    2    3    3    0    0  0.69584519130E+02  0.33618983189E+02  0.55776146527E+02  0.12449825880E+03  0.80103661531E+02 0.  0.
          6    2    1    2  501    0 -0.51694819375E+02 -0.14781771996E+03  0.35691399955E+03  0.42644846920E+03  0.17305565904E+03 0.  0.
         24    2    5    5    0    0  0.20992404140E+02 -0.19774431574E+02  0.15784072797E+03  0.17879796220E+03  0.78887937635E+02 0.  0.
          5    1    5    5  501    0 -0.72687223515E+02 -0.12804328838E+03  0.19907327158E+03  0.24765050701E+03  0.47000000000E+01 0. -1.
        -11    1    6    6    0    0  0.32117832915E+02 -0.36660448679E+02  0.14892559544E+03  0.15669836204E+03  0.00000000000E+00 0.  1.
         12    1    6    6    0    0 -0.11125428775E+02  0.16886017105E+02  0.89151325275E+01  0.22099600156E+02  0.00000000000E+00 0. -1.
         -5    1    3    3    0  503 -0.17889699755E+02  0.11419873677E+03  0.85512583521E+01  0.11600261573E+03  0.47000000000E+01 0.  1.
         11    1    4    4    0    0 -0.13224688298E+02  0.17155200585E+02 -0.26521352543E+01  0.21822628373E+02  0.00000000000E+00 0. -1.
        -12    1    4    4    0    0  0.82809207428E+02  0.16463782604E+02  0.58428281781E+02  0.10267563043E+03  0.00000000000E+00 0.  1.
</event>
<event>
12    1  0.1032880E+000  0.3328532E+03  0.7818608E-02  0.1069932E+00
         21   -1    0    0  503  502  0.00000000000E+00  0.00000000000E+00  0.21998059702E+03  0.21998059702E+03  0.00000000000E+00 0.  1.
         21   -1    0    0  501  503 -0.00000000000E+00 -0.00000000000E+00 -0.50596234185E+03  0.50596234185E+03  0.00000000000E+00 0.  1.
          6    2    1    2  501    0 -0.25384729676E+03 -0.12793293872E+03 -0.17116477885E+03  0.37428418972E+03  0.17316462188E+03 0.  0.
         24    2    3    3    0    0 -0.63243238175E+02 -0.53322272599E+02 -0.38984861028E+02  0.13058298060E+03  0.93215468157E+02 0.  0.
         -6    2    1    2    0  502  0.25384729676E+03  0.12793293872E+03 -0.11481696598E+03  0.35165874915E+03  0.17226622795E+03 0.  0.
        -24    2    5    5    0    0  0.74142671973E+02  0.84220286268E+02 -0.91560868231E+02  0.16519833984E+03  0.79478968723E+02 0.  0.
          5    1    3    3  501    0 -0.19060405859E+03 -0.74610666126E+02 -0.13217991782E+03  0.24370120912E+03  0.47000000000E+01 0. -1.
        -11    1    4    4    0    0 -0.46611419144E+02 -0.52171324314E+01 -0.59449595287E+02  0.75723822178E+02  0.00000000000E+00 0.  1.
         12    1    4    4    0    0 -0.16631819032E+02 -0.48105140168E+02  0.20464734259E+02  0.54859158425E+02  0.00000000000E+00 0. -1.
         -5    1    5    5    0  502  0.17970462479E+03  0.43712652457E+02 -0.23256097749E+02  0.18646040931E+03  0.47000000000E+01 0.  1.
         13    1    6    6    0    0  0.89567608166E+02  0.70227335424E+02 -0.63750935922E+02  0.13045465459E+03  0.00000000000E+00 0. -1.
        -14    1    6    6    0    0 -0.15424936193E+02  0.13992950843E+02 -0.27809932309E+02  0.34743685252E+02  0.00000000000E+00 0.  1.
</event>
<event>
12    1  0.1032880E+000  0.3065290E+03  0.7818608E-02  0.1082156E+00
         21   -1    0    0  503  502  0.00000000000E+00  0.00000000000E+00  0.14023938379E+04  0.14023938379E+04  0.00000000000E+00 0. -1.
         21   -1    0    0  501  503 -0.00000000000E+00 -0.00000000000E+00 -0.81197923889E+02  0.81197923889E+02  0.00000000000E+00 0. -1.
          6    2    1    2  501    0  0.24693621320E+03 -0.58934466176E+02  0.97440052599E+03  0.10214775655E+04  0.17178261582E+03 0.  0.
         24    2    3    3    0    0  0.10644552207E+03 -0.34359080070E+02  0.68782637973E+03  0.70133944657E+03  0.79124554376E+02 0.  0.
         -6    2    1    2    0  502 -0.24693621320E+03  0.58934466176E+02  0.34679538807E+03  0.46211419632E+03  0.16979907115E+03 0.  0.
        -24    2    5    5    0    0 -0.55476090068E+02  0.44002699451E+02  0.74814029187E+02  0.12913388762E+03  0.77875463655E+02 0.  0.
          5    1    3    3  501    0  0.14049069113E+03 -0.24575386107E+02  0.28657414626E+03  0.32013811894E+03  0.47000000000E+01 0. -1.
        -11    1    4    4    0    0  0.39621351292E+02 -0.51673981440E+02  0.26299627875E+03  0.27093743646E+03  0.00000000000E+00 0.  1.
         12    1    4    4    0    0  0.66824170780E+02  0.17314901370E+02  0.42483010098E+03  0.43040201011E+03  0.00000000000E+00 0. -1.
         -5    1    5    5    0  502 -0.19146012313E+03  0.14931766725E+02  0.27198135888E+03  0.33298030871E+03  0.47000000000E+01 0.  1.
         11    1    6    6    0    0  0.10480813360E+01  0.10770871530E+02  0.61221405371E+02  0.62170496408E+02  0.00000000000E+00 0. -1.
        -12    1    6    6    0    0 -0.56524171404E+02  0.33231827922E+02  0.13592623816E+02  0.66963391209E+02  0.00000000000E+00 0.  1.
</event>
<event>
12    1  0.1032880E+000  0.2945311E+03  0.7818608E-02  0.1088056E+00
         21   -1    0    0  503  502  0.00000000000E+00  0.00000000000E+00  0.36327786491E+03  0.36327786491E+03  0.00000000000E+00 0.  1.
         21   -1    0    0  501  503 -0.00000000000E+00 -0.00000000000E+00 -0.24101868073E+03  0.24101868073E+03  0.00000000000E+00 0.  1.
          6    2    1    2  501    0 -0.20258677254E+03  0.12720306690E+03  0.92074633754E+02  0.30822278512E+03  0.17117688643E+03 0.  0.
         24    2    3    3    0    0 -0.15086436349E+03  0.16650316707E+02  0.64028596812E+02  0.18290004831E+03  0.79469977000E+02 0.  0.
         -6    2    1    2    0  502  0.20258677254E+03 -0.12720306690E+03  0.30184550426E+02  0.29607376052E+03  0.17183289541E+03 0.  0.
        -24    2    5    5    0    0  0.16655012544E+03 -0.13740030126E+03 -0.24352018414E+02  0.22974917334E+03  0.74658387212E+02 0.  0.
          5    1    3    3  501    0 -0.51722409050E+02  0.11055275019E+03  0.28046036942E+02  0.12532273681E+03  0.47000000000E+01 0. -1.
        -11    1    4    4    0    0 -0.40368615602E+01 -0.92130140746E+01 -0.11907579074E+02  0.15587376912E+02  0.00000000000E+00 0.  1.
         12    1    4    4    0    0 -0.14682750193E+03  0.25863330781E+02  0.75936175886E+02  0.16731267139E+03  0.00000000000E+00 0. -1.
         -5    1    5    5    0  502  0.36036647097E+02  0.10197234361E+02  0.54536568840E+02  0.66324587171E+02  0.47000000000E+01 0.  1.
         11    1    6    6    0    0  0.11397028866E+03 -0.47934312129E+02 -0.23134813855E+01  0.12366194715E+03  0.00000000000E+00 0. -1.
        -12    1    6    6    0    0  0.52579836775E+02 -0.89465989132E+02 -0.22038537029E+02  0.10608722619E+03  0.00000000000E+00 0.  1.
</event>
<event>
12    1  0.1032880E+000  0.1950506E+03  0.7818608E-02  0.1154064E+00
         21   -1    0    0  503  502  0.00000000000E+00  0.00000000000E+00  0.53859619908E+03  0.53859619908E+03  0.00000000000E+00 0. -1.
         21   -1    0    0  501  503 -0.00000000000E+00 -0.00000000000E+00 -0.74496117805E+02  0.74496117805E+02  0.00000000000E+00 0. -1.
          6    2    1    2  501    0  0.21593058831E+02  0.88762833290E+02  0.30281686862E+03  0.35999742460E+03  0.17191564512E+03 0.  0.
         24    2    3    3    0    0  0.71126121239E+02  0.50969958997E+02  0.12997111342E+03  0.17620523024E+03  0.80615947540E+02 0.  0.
         -6    2    1    2    0  502 -0.21593058831E+02 -0.88762833290E+02  0.16128321266E+03  0.25309489229E+03  0.17233586119E+03 0.  0.
        -24    2    5    5    0    0  0.18469239681E+01 -0.10821685275E+03  0.59305021875E+02  0.14656070499E+03  0.79048442621E+02 0.  0.
          5    1    3    3  501    0 -0.49533062408E+02  0.37792874293E+02  0.17284575520E+03  0.18379219436E+03  0.47000000000E+01 0. -1.
        -11    1    4    4    0    0  0.54952257673E+02  0.62411942741E+01  0.11281580820E+03  0.12564278614E+03  0.00000000000E+00 0.  1.
         12    1    4    4    0    0  0.16173863567E+02  0.44728764722E+02  0.17155305221E+02  0.50562444101E+02  0.00000000000E+00 0. -1.
         -5    1    5    5    0  502 -0.23439982799E+02  0.19454019459E+02  0.10197819079E+03  0.10653418730E+03  0.47000000000E+01 0.  1.
         11    1    6    6    0    0  0.17209080525E+02 -0.19496773546E+02  0.49593612815E+02  0.55998241609E+02  0.00000000000E+00 0. -1.
        -12    1    6    6    0    0 -0.15362156557E+02 -0.88720079203E+02  0.97114090598E+01  0.90562463382E+02  0.00000000000E+00 0.  1.
</event>
<event>
12    1  0.1032880E+000  0.1973034E+03  0.7818608E-02  0.1153157E+00
         21   -1    0    0  501  502  0.00000000000E+00  0.00000000000E+00  0.14981460087E+04  0.14981460087E+04  0.00000000000E+00 0.  1.
         21   -1    0    0  502  503 -0.00000000000E+00 -0.00000000000E+00 -0.25376209113E+02  0.25376209113E+02  0.00000000000E+00 0.  1.
         -6    2    1    2    0  503 -0.81741462446E+02 -0.52509437385E+02  0.76552758308E+03  0.78927417958E+03  0.16577799130E+03 0.  0.
        -24    2    3    3    0    0  0.21271940646E+01 -0.73721046872E+02  0.39416903482E+03  0.40794342382E+03  0.74895202259E+02 0.  0.
          6    2    1    2  501    0  0.81741462446E+02  0.52509437385E+02  0.70724221649E+03  0.73424803822E+03  0.17172571485E+03 0.  0.
         24    2    5    5    0    0  0.25381926421E+02 -0.23738180214E+02  0.48209943297E+03  0.48990921719E+03  0.79896398082E+02 0.  0.
          5    1    5    5  501    0  0.56359536025E+02  0.76247617598E+02  0.22514278352E+03  0.24433882103E+03  0.47000000000E+01 0. -1.
        -13    1    6    6    0    0  0.14491592465E+02  0.28788778204E+02  0.22278067549E+03  0.22510004304E+03  0.00000000000E+00 0.  1.
         14    1    6    6    0    0  0.10890333956E+02 -0.52526958417E+02  0.25931875748E+03  0.26480917416E+03  0.00000000000E+00 0. -1.
         -5    1    3    3    0  503 -0.83868656511E+02  0.21211609487E+02  0.37135854825E+03  0.38133075575E+03  0.47000000000E+01 0.  1.
         11    1    4    4    0    0 -0.23657056655E+02 -0.69957140402E+01  0.43102589123E+02  0.49663160729E+02  0.00000000000E+00 0. -1.
        -12    1    4    4    0    0  0.25784250720E+02 -0.66725332831E+02  0.35106644570E+03  0.35828026309E+03  0.00000000000E+00 0.  1.
</event>
<event>
12    1  0.1032880E+000  0.3117622E+03  0.7818608E-02  0.1079708E+00
         21   -1    0    0  503  502  0.00000000000E+00  0.00000000000E+00  0.22029235551E+03  0.22029235551E+03  0.00000000000E+00 0. -1.
         21   -1    0    0  501  503 -0.00000000000E+00 -0.00000000000E+00 -0.56917527432E+03  0.56917527432E+03  0.00000000000E+00 0. -1.
          6    2    1    2  501    0 -0.25444851750E+03 -0.55090944971E+02  0.14110950141E+02  0.31208142658E+03  0.17151279145E+03 0.  0.
         24    2    3    3    0    0 -0.16732299937E+03 -0.33145236746E+02  0.75322430650E+02  0.20326320493E+03  0.80912725084E+02 0.  0.
         -6    2    1    2    0  502  0.25444851750E+03  0.55090944971E+02 -0.36299386895E+03  0.47738620325E+03  0.16838639458E+03 0.  0.
        -24    2    5    5    0    0  0.45365432432E+02 -0.57817662717E+01 -0.98844995132E+02  0.13501514580E+03  0.79795396185E+02 0.  0.
          5    1    3    3  501    0 -0.87125518129E+02 -0.21945708225E+02 -0.61211480509E+02  0.10881822166E+03  0.47000000000E+01 0. -1.
        -11    1    4    4    0    0 -0.10707563660E+03  0.15747595856E+02  0.61407755670E+02  0.12443508824E+03  0.00000000000E+00 0.  1.
         12    1    4    4    0    0 -0.60247362767E+02 -0.48892832602E+02  0.13914674980E+02  0.78828116684E+02  0.00000000000E+00 0. -1.
         -5    1    5    5    0  502  0.20908308507E+03  0.60872711243E+02 -0.26414887382E+03  0.34237105745E+03  0.47000000000E+01 0.  1.
         13    1    6    6    0    0 -0.20914305542E+01  0.10366555150E+02  0.10390970429E+02  0.14826051865E+02  0.00000000000E+00 0. -1.
        -14    1    6    6    0    0  0.47456862986E+02 -0.16148321422E+02 -0.10923596556E+03  0.12018909394E+03  0.00000000000E+00 0.  1.
</event>
<event>
12    1  0.1032880E+000  0.2839563E+03  0.7818608E-02  0.1093553E+00
         21   -1    0    0  501  502  0.00000000000E+00  0.00000000000E+00  0.19811813481E+03  0.19811813481E+03  0.00000000000E+00 0. -1.
         21   -1    0    0  502  503 -0.00000000000E+00 -0.00000000000E+00 -0.40814517700E+03  0.40814517700E+03  0.00000000000E+00 0. -1.
         -6    2    1    2    0  503  0.22502250055E+03 -0.16753158599E+02 -0.88473832155E+02  0.29742028058E+03  0.17238158326E+03 0.  0.
        -24    2    3    3    0    0  0.39879582511E+02 -0.28507821485E+01  0.40195950074E+01  0.89939437515E+02  0.80463887654E+02 0.  0.
          6    2    1    2  501    0 -0.22502250055E+03  0.16753158599E+02 -0.12155321003E+03  0.30884303123E+03  0.17231668808E+03 0.  0.
         24    2    5    5    0    0 -0.15592620471E+03  0.66862551018E+01 -0.86397809338E+01  0.17600036822E+03  0.80893735699E+02 0.  0.
          5    1    5    5  501    0 -0.69096295841E+02  0.10066903497E+02 -0.11291342910E+03  0.13284266301E+03  0.47000000000E+01 0. -1.
        -11    1    6    6    0    0 -0.76626567381E+02  0.43751638076E+02 -0.55380228920E+01  0.88411008141E+02  0.00000000000E+00 0.  1.
         12    1    6    6    0    0 -0.79299637331E+02 -0.37065382974E+02 -0.31017580418E+01  0.87589360078E+02  0.00000000000E+00 0. -1.
         -5    1    3    3    0  503  0.18514291804E+03 -0.13902376450E+02 -0.92493427162E+02  0.20748084307E+03  0.47000000000E+01 0.  1.
         13    1    4    4    0    0  0.28951890884E+02  0.31586500882E+02 -0.19241223534E+02  0.46969604073E+02  0.00000000000E+00 0. -1.
        -14    1    4    4    0    0  0.10927691627E+02 -0.34437283031E+02  0.23260818541E+02  0.42969833442E+02  0.00000000000E+00 0.  1.
</event>
<event>
12    1  0.1032880E+000  0.2129498E+03  0.7818608E-02  0.1141400E+00
         21   -1    0    0  503  502  0.00000000000E+00  0.00000000000E+00  0.18629374248E+03  0.18629374248E+03  0.00000000000E+00 0. -1.
         21   -1    0    0  501  503 -0.00000000000E+00 -0.00000000000E+00 -0.27534628779E+03  0.27534628779E+03  0.00000000000E+00 0. -1.
          6    2    1    2  501    0  0.65618754854E+02  0.10747535989E+03 -0.13586271847E+03  0.24360608374E+03  0.15820389310E+03 0.  0.
         24    2    3    3    0    0  0.85966253694E+02  0.99709957579E+02 -0.15182764805E+03  0.21619639277E+03  0.79730628486E+02 0.  0.
         -6    2    1    2    0  502 -0.65618754854E+02 -0.10747535989E+03  0.46810173165E+02  0.21803394653E+03  0.17172895958E+03 0.  0.
        -24    2    5    5    0    0 -0.57247278112E+02 -0.12564220912E+03  0.80197611313E+02  0.17883028523E+03  0.80531971862E+02 0.  0.
          5    1    3    3  501    0 -0.20347498840E+02  0.77654023104E+01  0.15964929588E+02  0.27409690966E+02  0.47000000000E+01 0. -1.
        -11    1    4    4    0    0  0.45007875869E+02  0.30823205163E+02 -0.13288060724E+02  0.56145805049E+02  0.00000000000E+00 0.  1.
         12    1    4    4    0    0  0.40958377825E+02  0.68886752417E+02 -0.13853958733E+03  0.16005058772E+03  0.00000000000E+00 0. -1.
         -5    1    5    5    0  502 -0.83714767419E+01  0.18166849226E+02 -0.33387438148E+02  0.39203661305E+02  0.47000000000E+01 0.  1.
         13    1    6    6    0    0 -0.11736637710E+01 -0.67764841154E+02  0.70281668961E+02  0.97636899660E+02  0.00000000000E+00 0. -1.
        -14    1    6    6    0    0 -0.56073614341E+02 -0.57877367962E+02  0.99159423521E+01  0.81193385569E+02  0.00000000000E+00 0.  1.
</event>
<event>
12    1  0.1032880E+000  0.1852720E+03  0.7818608E-02  0.1162819E+00
         21   -1    0    0  503  502  0.00000000000E+00  0.00000000000E+00  0.33124491366E+03  0.33124491366E+03  0.00000000000E+00 0.  1.
         21   -1    0    0  501  503 -0.00000000000E+00 -0.00000000000E+00 -0.10361850749E+03  0.10361850749E+03  0.00000000000E+00 0.  1.
          6    2    1    2  501    0  0.70701046720E+02  0.64459623443E+01  0.11843604660E+03  0.21989269449E+03  0.17113010115E+03 0.  0.
         24    2    3    3    0    0  0.37208338423E+01  0.15164474537E+02  0.38411670126E+01  0.86789584836E+02  0.85286995371E+02 0.  0.
         -6    2    1    2    0  502 -0.70701046720E+02 -0.64459623443E+01  0.10919035957E+03  0.21497072665E+03  0.17102540822E+03 0.  0.
        -24    2    5    5    0    0  0.14158891577E+02  0.15979265879E+02  0.94468336655E+02  0.12584762108E+03  0.80358857333E+02 0.  0.
          5    1    3    3  501    0  0.66980212877E+02 -0.87185121924E+01  0.11459487959E+03  0.13310310966E+03  0.47000000000E+01 0. -1.
        -13    1    4    4    0    0  0.17024454923E+02 -0.22656544262E+02 -0.24685870233E+02  0.37583816364E+02  0.00000000000E+00 0.  1.
         14    1    4    4    0    0 -0.13303621080E+02  0.37821018799E+02  0.28527037246E+02  0.49205768471E+02  0.00000000000E+00 0. -1.
         -5    1    5    5    0  502 -0.84859938296E+02 -0.22425228224E+02  0.14722022917E+02  0.89123105575E+02  0.47000000000E+01 0.  1.
         13    1    6    6    0    0  0.69096005709E+01 -0.18171448034E+02  0.88275623616E+02  0.90390983115E+02  0.00000000000E+00 0. -1.
        -14    1    6    6    0    0  0.72492910061E+01  0.34150713913E+02  0.61927130396E+01  0.35456637964E+02  0.00000000000E+00 0.  1.
</event>
<event>
12    1  0.1032880E+000  0.4587286E+03  0.7818608E-02  0.1025320E+00
         21   -1    0    0  503  502  0.00000000000E+00  0.00000000000E+00  0.83667962959E+03  0.83667962959E+03  0.00000000000E+00 0. -1.
         21   -1    0    0  501  503 -0.00000000000E+00 -0.00000000000E+00 -0.28545829288E+03  0.28545829288E+03  0.00000000000E+00 0. -1.
          6    2    1    2  501    0  0.33742784374E+03  0.25706766267E+03  0.47331122407E+03  0.65913237533E+03  0.17461569363E+03 0.  0.
         24    2    3    3    0    0  0.27885720030E+03  0.27162410505E+03  0.41680165155E+03  0.57632034677E+03  0.82948976893E+02 0.  0.
         -6    2    1    2    0  502 -0.33742784374E+03 -0.25706766267E+03  0.77910112646E+02  0.46300554713E+03  0.16841264235E+03 0.  0.
        -24    2    5    5    0    0 -0.15221872186E+03 -0.19247196339E+03  0.66385973537E+02  0.26646059305E+03  0.79863346984E+02 0.  0.
          5    1    3    3  501    0  0.58570643438E+02 -0.14556442384E+02  0.56509572518E+02  0.82812028557E+02  0.47000000000E+01 0. -1.
        -11    1    4    4    0    0  0.84968453081E+02  0.34465508640E+02  0.96619130554E+02  0.13320197331E+03  0.00000000000E+00 0.  1.
         12    1    4    4    0    0  0.19388874722E+03  0.23715859641E+03  0.32018252100E+03  0.44311837346E+03  0.00000000000E+00 0. -1.
         -5    1    5    5    0  502 -0.18520912188E+03 -0.64595699284E+02  0.11524139108E+02  0.19654495408E+03  0.47000000000E+01 0.  1.
         13    1    6    6    0    0 -0.17340922192E+02  0.43890390099E+01 -0.25507036555E+01  0.18068683822E+02  0.00000000000E+00 0. -1.
        -14    1    6    6    0    0 -0.13487779966E+03 -0.19686100240E+03  0.68936677193E+02  0.24839190923E+03  0.00000000000E+00 0.  1.
</event>
<event>
12    1  0.1032880E+000  0.2975119E+03  0.7818608E-02  0.1088110E+00
         21   -1    0    0  501  502  0.00000000000E+00  0.00000000000E+00  0.15814989488E+04  0.15814989488E+04  0.00000000000E+00 0.  1.
         21   -1    0    0  502  503 -0.00000000000E+00 -0.00000000000E+00 -0.11982977770E+03  0.11982977770E+03  0.00000000000E+00 0.  1.
         -6    2    1    2    0  503 -0.13306402764E+03  0.18456223315E+03  0.13559774273E+04  0.13856008649E+04  0.17159755334E+03 0.  0.
        -24    2    3    3    0    0 -0.78647486780E+02  0.15668100038E+03  0.12373827605E+04  0.12520894121E+04  0.76664442897E+02 0.  0.
          6    2    1    2  501    0  0.13306402764E+03 -0.18456223315E+03  0.10569174382E+03  0.31572786154E+03  0.19168746565E+03 0.  0.
         24    2    5    5    0    0  0.35476515671E+02 -0.11840872022E+02 -0.25589020407E+01  0.89682991196E+02  0.81472090410E+02 0.  0.
          5    1    5    5  501    0  0.97587511964E+02 -0.17272136113E+03  0.10825064586E+03  0.22604487035E+03  0.47000000000E+01 0. -1.
        -13    1    6    6    0    0  0.20003391460E+02 -0.15872591509E+02 -0.40857222060E+02  0.48180778590E+02  0.00000000000E+00 0.  1.
         14    1    6    6    0    0  0.15473124212E+02  0.40317194869E+01  0.38298320019E+02  0.41502212606E+02  0.00000000000E+00 0. -1.
         -5    1    3    3    0  503 -0.54416540856E+02  0.27881232771E+02  0.11859466677E+03  0.13351145286E+03  0.47000000000E+01 0.  1.
         13    1    4    4    0    0 -0.10167786127E+02  0.44399455838E+02  0.14947245781E+03  0.15625847560E+03  0.00000000000E+00 0. -1.
        -14    1    4    4    0    0 -0.68479700653E+02  0.11228154454E+03  0.10879103027E+04  0.10958309365E+04  0.00000000000E+00 0.  1.
</event>
<event>
12    1  0.1032880E+000  0.1870724E+03  0.7818608E-02  0.1161214E+00
         21   -1    0    0  501  502  0.00000000000E+00  0.00000000000E+00  0.66677044111E+03  0.66677044111E+03  0.00000000000E+00 0.  1.
         21   -1    0    0  502  503 -0.00000000000E+00 -0.00000000000E+00 -0.53799656608E+02  0.53799656608E+02  0.00000000000E+00 0.  1.
         -6    2    1    2    0  503  0.14503302551E+01  0.72541246165E+02  0.24771131003E+03  0.31019151706E+03  0.17202775441E+03 0.  0.
        -24    2    3    3    0    0 -0.48055624315E+02  0.24829614956E+02  0.21033535130E+03  0.23179322893E+03  0.81001778784E+02 0.  0.
          6    2    1    2  501    0 -0.14503302551E+01 -0.72541246165E+02  0.36525947447E+03  0.41037858066E+03  0.17242899964E+03 0.  0.
         24    2    5    5    0    0  0.24590136823E+01 -0.10722551138E+03  0.34586750589E+03  0.37017385868E+03  0.76817947032E+02 0.  0.
          5    1    5    5  501    0 -0.39093439374E+01  0.34684265213E+02  0.19391968587E+02  0.40204721975E+02  0.47000000000E+01 0. -1.
        -13    1    6    6    0    0 -0.18630280040E+02 -0.56292775832E+02  0.26975483521E+03  0.27619492223E+03  0.00000000000E+00 0.  1.
         14    1    6    6    0    0  0.21089293723E+02 -0.50932735546E+02  0.76112670676E+02  0.93978936456E+02  0.00000000000E+00 0. -1.
         -5    1    3    3    0  503  0.49505954570E+02  0.47711631209E+02  0.37375958735E+02  0.78398288131E+02  0.47000000000E+01 0.  1.
         13    1    4    4    0    0 -0.38996481753E+02  0.53173476690E+02  0.16359840294E+03  0.17638758929E+03  0.00000000000E+00 0. -1.
        -14    1    4    4    0    0 -0.90591425626E+01 -0.28343861734E+02  0.46736948359E+02  0.55405639640E+02  0.00000000000E+00 0.  1.
</event>
<event>
12    1  0.1032880E+000  0.2135911E+03  0.7818608E-02  0.1139288E+00
         21   -1    0    0  503  502  0.00000000000E+00  0.00000000000E+00  0.11107050820E+03  0.11107050820E+03  0.00000000000E+00 0. -1.
         21   -1    0    0  501  503 -0.00000000000E+00 -0.00000000000E+00 -0.81633829135E+03  0.81633829135E+03  0.00000000000E+00 0. -1.
          6    2    1    2  501    0  0.43615985189E+02  0.11784712104E+03 -0.22543232109E+02  0.21205295806E+03  0.16931615873E+03 0.  0.
         24    2    3    3    0    0  0.39890025533E+02  0.69711070777E+02 -0.79247616950E+02  0.13743098160E+03  0.78461725614E+02 0.  0.
         -6    2    1    2    0  502 -0.43615985189E+02 -0.11784712104E+03 -0.68272455104E+03  0.71535584150E+03  0.17271615231E+03 0.  0.
        -24    2    5    5    0    0 -0.95168130614E+02 -0.98369782713E+02 -0.52529713387E+03  0.54849520479E+03  0.78589589559E+02 0.  0.
          5    1    3    3  501    0  0.37259596566E+01  0.48136050261E+02  0.56704384842E+02  0.74621976457E+02  0.47000000000E+01 0. -1.
        -11    1    4    4    0    0 -0.16918140159E+02  0.37003803899E+02 -0.96358060316E+01  0.41813319975E+02  0.00000000000E+00 0.  1.
         12    1    4    4    0    0  0.56808165692E+02  0.32707266877E+02 -0.69611810919E+02  0.95617661628E+02  0.00000000000E+00 0. -1.
         -5    1    5    5    0  502  0.51552145425E+02 -0.19477338325E+02 -0.15742741717E+03  0.16686063671E+03  0.47000000000E+01 0.  1.
         13    1    6    6    0    0 -0.28122454601E+02  0.41748649467E+01 -0.17720654215E+03  0.17947272921E+03  0.00000000000E+00 0. -1.
        -14    1    6    6    0    0 -0.67045676013E+02 -0.10254464766E+03 -0.34809059172E+03  0.36902247558E+03  0.00000000000E+00 0.  1.
</event>
<event>
12    1  0.1032880E+000  0.3840705E+03  0.7818608E-02  0.1049457E+00
         21   -1    0    0  503  502  0.00000000000E+00  0.00000000000E+00  0.83189676961E+02  0.83189676961E+02  0.00000000000E+00 0.  1.
         21   -1    0    0  501  503 -0.00000000000E+00 -0.00000000000E+00 -0.19293543050E+04  0.19293543050E+04  0.00000000000E+00 0. -1.
          6    2    1    2  501    0 -0.83930766854E+02 -0.33306349057E+03 -0.63617573384E+03  0.74312158704E+03  0.17185594673E+03 0.  0.
         24    2    3    3    0    0  0.17379752410E+02 -0.13843867042E+03 -0.21632022940E+03  0.26936703399E+03  0.79352606071E+02 0.  0.
         -6    2    1    2    0  502  0.83930766854E+02  0.33306349057E+03 -0.12099888942E+04  0.12694223950E+04  0.17141887373E+03 0.  0.
        -24    2    5    5    0    0  0.84124351701E+02  0.27467144454E+03 -0.77478167276E+03  0.83029020058E+03  0.81079391577E+02 0.  0.
          5    1    3    3  501    0 -0.10131051926E+03 -0.19462482015E+03 -0.41985550444E+03  0.47375455305E+03  0.47000000000E+01 0. -1.
        -13    1    4    4    0    0  0.20890658826E+02 -0.96520993259E+02 -0.20214475155E+03  0.22497827083E+03  0.00000000000E+00 0.  1.
         14    1    4    4    0    0 -0.35109064161E+01 -0.41917677162E+02 -0.14175477849E+02  0.44388763159E+02  0.00000000000E+00 0. -1.
         -5    1    5    5    0  502 -0.19358484708E+00  0.58392046030E+02 -0.43520722149E+03  0.43913219439E+03  0.47000000000E+01 0.  1.
         11    1    6    6    0    0  0.99207448259E+02  0.22270535676E+03 -0.65298672537E+03  0.69701610973E+03  0.00000000000E+00 0. -1.
        -12    1    6    6    0    0 -0.15083096558E+02  0.51966087776E+02 -0.12179494739E+03  0.13327409084E+03  0.00000000000E+00 0.  1.
</event>
<event>
12    1  0.1032880E+000  0.2830519E+03  0.7818608E-02  0.1094183E+00
         21   -1    0    0  501  502  0.00000000000E+00  0.00000000000E+00  0.76396921814E+02  0.76396921814E+02  0.00000000000E+00 0. -1.
         21   -1    0    0  502  503 -0.00000000000E+00 -0.00000000000E+00 -0.12749454693E+04  0.12749454693E+04  0.00000000000E+00 0. -1.
         -6    2    1    2    0  503 -0.99752672691E+02  0.20013357400E+03 -0.88741835245E+03  0.93146642238E+03  0.17353478216E+03 0.  0.
        -24    2    3    3    0    0  0.10937452602E+02  0.54329787188E+02 -0.23470930350E+03  0.25355622135E+03  0.78300361375E+02 0.  0.
          6    2    1    2  501    0  0.99752672691E+02 -0.20013357400E+03 -0.31113019508E+03  0.41987596877E+03  0.17172590867E+03 0.  0.
         24    2    5    5    0    0  0.13295384432E+03 -0.13836126897E+03 -0.20104442335E+03  0.28926546918E+03  0.80218987950E+02 0.  0.
          5    1    5    5  501    0 -0.33201171631E+02 -0.61772305032E+02 -0.11008577173E+03  0.13061049959E+03  0.47000000000E+01 0. -1.
        -13    1    6    6    0    0  0.62930528873E+02 -0.11906876197E+03 -0.11932814463E+03  0.17993562082E+03  0.00000000000E+00 0.  1.
         14    1    6    6    0    0  0.70023315449E+02 -0.19292507000E+02 -0.81716278724E+02  0.10932984836E+03  0.00000000000E+00 0. -1.
         -5    1    3    3    0  503 -0.11069012529E+03  0.14580378681E+03 -0.65270904895E+03  0.67791020103E+03  0.47000000000E+01 0.  1.
         13    1    4    4    0    0 -0.15894320191E+02  0.21695284623E+02 -0.17070515920E+02  0.31854627655E+02  0.00000000000E+00 0. -1.
        -14    1    4    4    0    0  0.26831772793E+02  0.32634502565E+02 -0.21763878758E+03  0.22170159370E+03  0.00000000000E+00 0.  1.
</event>
<event>
12    1  0.1032880E+000  0.2016478E+03  0.7818608E-02  0.1148374E+00
         21   -1    0    0  503  502  0.00000000000E+00  0.00000000000E+00  0.35781480935E+02  0.35781480935E+02  0.00000000000E+00 0.  1.
         21   -1    0    0  501  503 -0.00000000000E+00 -0.00000000000E+00 -0.13846936200E+04  0.13846936200E+04  0.00000000000E+00 0.  1.
          6    2    1    2  501    0 -0.28958143134E+02 -0.10160186467E+03 -0.37328284364E+03  0.42422496286E+03  0.17165437599E+03 0.  0.
         24    2    3    3    0    0  0.55013251825E+02 -0.72693240723E+02 -0.20831597489E+03  0.23681348643E+03  0.66138618362E+02 0.  0.
         -6    2    1    2    0  502  0.28958143134E+02  0.10160186467E+03 -0.97562929538E+03  0.99625013804E+03  0.17175652119E+03 0.  0.
        -24    2    5    5    0    0  0.81340896649E+02  0.41227694376E+02 -0.59225687566E+03  0.60460553446E+03  0.80396400948E+02 0.  0.
          5    1    3    3  501    0 -0.83971394958E+02 -0.28908623949E+02 -0.16496686875E+03  0.18741147642E+03  0.47000000000E+01 0. -1.
        -11    1    4    4    0    0  0.40316018677E+02 -0.79970057485E+01 -0.11648669112E+03  0.12352523091E+03  0.00000000000E+00 0.  1.
         12    1    4    4    0    0  0.14697233148E+02 -0.64696234975E+02 -0.91829283771E+02  0.11328825553E+03  0.00000000000E+00 0. -1.
         -5    1    5    5    0  502 -0.52382753516E+02  0.60374170295E+02 -0.38337241973E+03  0.39164460358E+03  0.47000000000E+01 0.  1.
         13    1    6    6    0    0  0.41539512369E+02  0.48474608371E+02 -0.49742718737E+03  0.50150685487E+03  0.00000000000E+00 0. -1.
        -14    1    6    6    0    0  0.39801384280E+02 -0.72469139947E+01 -0.94829688289E+02  0.10309867959E+03  0.00000000000E+00 0.  1.
</event>
<event>
12    1  0.1032880E+000  0.1732409E+03  0.7818608E-02  0.1175165E+00
         21   -1    0    0  503  502  0.00000000000E+00  0.00000000000E+00  0.52333347832E+03  0.52333347832E+03  0.00000000000E+00 0. -1.
         21   -1    0    0  501  503 -0.00000000000E+00 -0.00000000000E+00 -0.57112205442E+02  0.57112205442E+02  0.00000000000E+00 0. -1.
          6    2    1    2  501    0 -0.25359709605E+01  0.30186125724E+00  0.26129916081E+03  0.31210729758E+03  0.17066690216E+03 0.  0.
         24    2    3    3    0    0 -0.32950855022E+02  0.12046669193E+02  0.26060601537E+03  0.27915921514E+03  0.93720280976E+02 0.  0.
         -6    2    1    2    0  502  0.25359709605E+01 -0.30186125724E+00  0.20492211206E+03  0.26833838618E+03  0.17322209795E+03 0.  0.
        -24    2    5    5    0    0  0.62238813830E+02 -0.20930491146E+02  0.87888105950E+02  0.13526315030E+03  0.79120447768E+02 0.  0.
          5    1    3    3  501    0  0.30414884061E+02 -0.11744807935E+02  0.69314544563E+00  0.32948082440E+02  0.47000000000E+01 0. -1.
        -13    1    4    4    0    0 -0.31846486641E+02 -0.21546521324E+02  0.23157701375E+03  0.23474744853E+03  0.00000000000E+00 0.  1.
         14    1    4    4    0    0 -0.11043683810E+01  0.33593190517E+02  0.29029001614E+02  0.44411766609E+02  0.00000000000E+00 0. -1.
         -5    1    5    5    0  502 -0.59702842870E+02  0.20628629888E+02  0.11703400611E+03  0.13307523588E+03  0.47000000000E+01 0.  1.
         11    1    6    6    0    0  0.29052622964E+02 -0.57144600375E+01  0.93725400350E+02  0.98291203194E+02  0.00000000000E+00 0. -1.
        -12    1    6    6    0    0  0.33186190866E+02 -0.15216031108E+02 -0.58372943995E+01  0.36971947106E+02  0.00000000000E+00 0.  1.
</event>
<event>
12    1  0.1032880E+000  0.1938131E+03  0.7818608E-02  0.1155101E+00
         21   -1    0    0  501  502  0.00000000000E+00  0.00000000000E+00  0.20228167627E+03  0.20228167627E+03  0.00000000000E+00 0. -1.
         21   -1    0    0  502  503 -0.00000000000E+00 -0.00000000000E+00 -0.30092028743E+03  0.30092028743E+03  0.00000000000E+00 0. -1.
         -6    2    1    2    0  503 -0.80293402429E+02  0.39304865159E+02  0.10645770851E+03  0.22112609148E+03  0.17196395475E+03 0.  0.
        -24    2    3    3    0    0 -0.19478477270E+02  0.47516798501E+02  0.12567255577E+03  0.15664980649E+03  0.78155699608E+02 0.  0.
          6    2    1    2  501    0  0.80293402429E+02 -0.39304865159E+02 -0.20509631967E+03  0.28207587222E+03  0.17178589712E+03 0.  0.
         24    2    5    5    0    0 -0.18834130109E+02 -0.36967253414E+02 -0.12850781608E+03  0.15669795942E+03  0.79490184374E+02 0.  0.
          5    1    5    5  501    0  0.99127532538E+02 -0.23376117452E+01 -0.76588503594E+02  0.12537791280E+03  0.47000000000E+01 0. -1.
        -11    1    6    6    0    0  0.19593723238E+02 -0.11101332402E+00 -0.87016507518E+02  0.89195285161E+02  0.00000000000E+00 0.  1.
         12    1    6    6    0    0 -0.38427853346E+02 -0.36856240090E+02 -0.41491308560E+02  0.67502674261E+02  0.00000000000E+00 0. -1.
         -5    1    3    3    0  503 -0.60814925159E+02 -0.82119333425E+01 -0.19214847261E+02  0.64476284994E+02  0.47000000000E+01 0.  1.
         13    1    4    4    0    0 -0.89354384757E+01  0.16672683560E+02 -0.68950148188E+01  0.20133595486E+02  0.00000000000E+00 0. -1.
        -14    1    4    4    0    0 -0.10543038794E+02  0.30844114942E+02  0.13256757059E+03  0.13651621100E+03  0.00000000000E+00 0.  1.
</event>
<event>
12    1  0.1032880E+000  0.1784681E+03  0.7818608E-02  0.1169748E+00
         21   -1    0    0  501  502  0.00000000000E+00  0.00000000000E+00  0.76130937614E+03  0.76130937614E+03  0.00000000000E+00 0. -1.
         21   -1    0    0  502  503 -0.00000000000E+00 -0.00000000000E+00 -0.43303368788E+02  0.43303368788E+02  0.00000000000E+00 0. -1.
         -6    2    1    2    0  503 -0.22035128598E+02  0.26758699740E+02  0.44500915559E+03  0.47946220834E+03  0.17506937413E+03 0.  0.
        -24    2    3    3    0    0 -0.61174699209E+02  0.25881975016E+02  0.15296195079E+03  0.18476518686E+03  0.79552469680E+02 0.  0.
          6    2    1    2  501    0  0.22035128598E+02 -0.26758699740E+02  0.27299685176E+03  0.32515053659E+03  0.17318780404E+03 0.  0.
         24    2    5    5    0    0 -0.13352473326E+01 -0.96269886180E+01  0.37112716005E+02  0.87446759805E+02  0.78581933775E+02 0.  0.
          5    1    5    5  501    0  0.23370375930E+02 -0.17131711123E+02  0.23588413575E+03  0.23770377678E+03  0.47000000000E+01 0. -1.
        -11    1    6    6    0    0  0.19739016681E+02 -0.29046650021E+01  0.55312970437E+02  0.58801280232E+02  0.00000000000E+00 0.  1.
         12    1    6    6    0    0 -0.21074264014E+02 -0.67223236159E+01 -0.18200254433E+02  0.28645479573E+02  0.00000000000E+00 0. -1.
         -5    1    3    3    0  503  0.39139570611E+02  0.87672472453E+00  0.29204720481E+03  0.29469702148E+03  0.47000000000E+01 0.  1.
         13    1    4    4    0    0  0.14911188646E+02 -0.98985349830E+01  0.41101823791E+02  0.44829504354E+02  0.00000000000E+00 0. -1.
        -14    1    4    4    0    0 -0.76085887855E+02  0.35780509999E+02  0.11186012699E+03  0.13993568250E+03  0.00000000000E+00 0.  1.
</event>
<event>
12    1  0.1032880E+000  0.1854305E+03  0.7818608E-02  0.1162804E+00
         21   -1    0    0  503  502  0.00000000000E+00  0.00000000000E+00  0.29417991322E+03  0.29417991322E+03  0.00000000000E+00 0.  1.
         21   -1    0    0  501  503 -0.00000000000E+00 -0.00000000000E+00 -0.11727198787E+03  0.11727198787E+03  0.00000000000E+00 0.  1.
          6    2    1    2  501    0  0.22682880648E+02  0.62072362581E+02  0.10539201724E+03  0.21270832407E+03  0.17253945219E+03 0.  0.
         24    2    3    3    0    0  0.65766791170E+02  0.53740015375E+02  0.22882899767E+02  0.11913751761E+03  0.80354594936E+02 0.  0.
         -6    2    1    2    0  502 -0.22682880648E+02 -0.62072362581E+02  0.71515908110E+02  0.19874357701E+03  0.17325412843E+03 0.  0.
        -24    2    5    5    0    0  0.88858826685E+01 -0.35470170044E+02 -0.27140654221E+02  0.91694659424E+02  0.79587709991E+02 0.  0.
          5    1    3    3  501    0 -0.43083910522E+02  0.83323472062E+01  0.82509117473E+02  0.93570806463E+02  0.47000000000E+01 0. -1.
        -11    1    4    4    0    0  0.91578103046E+01  0.98980752671E+01 -0.28148647747E+02  0.31211916852E+02  0.00000000000E+00 0.  1.
         12    1    4    4    0    0  0.56608980866E+02  0.43841940108E+02  0.51031547515E+02  0.87925600759E+02  0.00000000000E+00 0. -1.
         -5    1    5    5    0  502 -0.31568763317E+02 -0.26602192537E+02  0.98656562331E+02  0.10704891758E+03  0.47000000000E+01 0.  1.
         11    1    6    6    0    0  0.36725367638E+01 -0.36715787893E+02  0.21535885340E+02  0.42723892195E+02  0.00000000000E+00 0. -1.
        -12    1    6    6    0    0  0.52133459046E+01  0.12456178493E+01 -0.48676539561E+02  0.48970767229E+02  0.00000000000E+00 0.  1.
</event>
<event>
12    1  0.1032880E+000  0.2612274E+03  0.7818608E-02  0.1106432E+00
         21   -1    0    0  503  502  0.00000000000E+00  0.00000000000E+00  0.11243087672E+04  0.11243087672E+04  0.00000000000E+00 0. -1.
         21   -1    0    0  501  503 -0.00000000000E+00 -0.00000000000E+00 -0.61465363782E+02  0.61465363782E+02  0.00000000000E+00 0. -1.
          6    2    1    2  501    0  0.18484215414E+03  0.64198112927E+02  0.59953551310E+03  0.65397443666E+03  0.17306563112E+03 0.  0.
         24    2    3    3    0    0  0.72321270248E+02  0.94896893995E+02  0.30484638392E+03  0.33700892224E+03  0.80049417605E+02 0.  0.
         -6    2    1    2    0  502 -0.18484215414E+03 -0.64198112927E+02  0.46330789033E+03  0.53179969434E+03  0.17282561733E+03 0.  0.
        -24    2    5    5    0    0 -0.77139758820E+02  0.10297819398E+02  0.11225615777E+03  0.15708799340E+03  0.77579670254E+02 0.  0.
          5    1    3    3  501    0  0.11252088390E+03 -0.30698781068E+02  0.29468912918E+03  0.31696551442E+03  0.47000000000E+01 0. -1.
        -11    1    4    4    0    0  0.81380218239E+02  0.76456509539E+02  0.19035225279E+03  0.22068601658E+03  0.00000000000E+00 0.  1.
         12    1    4    4    0    0 -0.90589479915E+01  0.18440384456E+02  0.11449413113E+03  0.11632290566E+03  0.00000000000E+00 0. -1.
         -5    1    5    5    0  502 -0.10770239533E+03 -0.74495932325E+02  0.35105173256E+03  0.37471170094E+03  0.47000000000E+01 0.  1.
         11    1    6    6    0    0 -0.87612670594E+02  0.19165556655E+02  0.73438249294E+02  0.11591581027E+03  0.00000000000E+00 0. -1.
        -12    1    6    6    0    0  0.10472911775E+02 -0.88677372568E+01  0.38817908476E+02  0.41172183128E+02  0.00000000000E+00 0.  1.
</event>
<event>
12    1  0.1032880E+000  0.2115451E+03  0.7818608E-02  0.1141251E+00
         21   -1    0    0  501  502  0.00000000000E+00  0.00000000000E+00  0.83962202407E+02  0.83962202407E+02  0.00000000000E+00 0.  1.
         21   -1    0    0  502  503 -0.00000000000E+00 -0.00000000000E+00 -0.56438386163E+03  0.56438386163E+03  0.00000000000E+00 0.  1.
         -6    2    1    2    0  503  0.10734704837E+03 -0.58661590989E+02 -0.32706007410E+03  0.38705868015E+03  0.16697771934E+03 0.  0.
        -24    2    3    3    0    0 -0.71119222578E+01 -0.44069077745E+02 -0.11851259770E+03  0.14867257042E+03  0.77882182358E+02 0.  0.
          6    2    1    2  501    0 -0.10734704837E+03  0.58661590989E+02 -0.15336158513E+03  0.26128738389E+03  0.17258838355E+03 0.  0.
         24    2    5    5    0    0  0.13911495624E+02  0.38553791222E+01 -0.40677681471E+02  0.86853707402E+02  0.75369085579E+02 0.  0.
          5    1    5    5  501    0 -0.12125854400E+03  0.54806211867E+02 -0.11268390366E+03  0.17443367649E+03  0.47000000000E+01 0. -1.
        -11    1    6    6    0    0  0.31944549130E+02  0.10667180006E+02  0.78986204644E+01  0.34592356867E+02  0.00000000000E+00 0.  1.
         12    1    6    6    0    0 -0.18033053506E+02 -0.68118008840E+01 -0.48576301935E+02  0.52261350535E+02  0.00000000000E+00 0. -1.
         -5    1    3    3    0  503  0.11445897063E+03 -0.14592513244E+02 -0.20854747640E+03  0.23838610973E+03  0.47000000000E+01 0.  1.
         11    1    4    4    0    0 -0.20557553554E+02 -0.46812934805E+02 -0.30368972927E+02  0.59467120242E+02  0.00000000000E+00 0. -1.
        -12    1    4    4    0    0  0.13445631296E+02  0.27438570598E+01 -0.88143624775E+02  0.89205450175E+02  0.00000000000E+00 0.  1.
</event>
<event>
12    1  0.1032880E+000  0.2115172E+03  0.7818608E-02  0.1140478E+00
         21   -1    0    0  503  502  0.00000000000E+00  0.00000000000E+00  0.57868515856E+03  0.57868515856E+03  0.00000000000E+00 0.  1.
         21   -1    0    0  501  503 -0.00000000000E+00 -0.00000000000E+00 -0.15961553880E+03  0.15961553880E+03  0.00000000000E+00 0.  1.
          6    2    1    2  501    0  0.10443633223E+03  0.64370649590E+02  0.47506578132E+03  0.52002598674E+03  0.17230496884E+03 0.  0.
         24    2    3    3    0    0  0.56225626757E+02  0.80290480931E+01  0.40993058518E+03  0.42121641252E+03  0.78449950887E+02 0.  0.
         -6    2    1    2    0  502 -0.10443633223E+03 -0.64370649590E+02 -0.55996161564E+02  0.21827471062E+03  0.17163260520E+03 0.  0.
        -24    2    5    5    0    0 -0.98676296374E+02 -0.18046602705E+02  0.17373445307E+02  0.13118691270E+03  0.82737404648E+02 0.  0.
          5    1    3    3  501    0  0.48210705472E+02  0.56341601497E+02  0.65135196141E+02  0.98809574220E+02  0.47000000000E+01 0. -1.
        -13    1    4    4    0    0 -0.14185753193E+02  0.81964104485E+01  0.24939791109E+02  0.29839737239E+02  0.00000000000E+00 0.  1.
         14    1    4    4    0    0  0.70411379949E+02 -0.16736235542E+00  0.38499079407E+03  0.39137667528E+03  0.00000000000E+00 0. -1.
         -5    1    5    5    0  502 -0.57600358544E+01 -0.46324046885E+02 -0.73369606871E+02  0.87087797913E+02  0.47000000000E+01 0.  1.
         13    1    6    6    0    0 -0.15254487217E+02 -0.30346623245E+02  0.30740339618E+02  0.45810319825E+02  0.00000000000E+00 0. -1.
        -14    1    6    6    0    0 -0.83421809157E+02  0.12300020539E+02 -0.13366894311E+02  0.85376592880E+02  0.00000000000E+00 0.  1.
</event>
<event>
12    1  0.1032880E+000  0.3349976E+03  0.7818608E-02  0.1069005E+00
         21   -1    0    0  503  502  0.00000000000E+00  0.00000000000E+00  0.23080550591E+03  0.23080550591E+03  0.00000000000E+00 0. -1.
         21   -1    0    0  501  503 -0.00000000000E+00 -0.00000000000E+00 -0.52776410924E+03  0.52776410924E+03  0.00000000000E+00 0.  1.
          6    2    1    2  501    0  0.10058365686E+03  0.26919296031E+03 -0.41191986372E+02  0.33752062270E+03  0.17216698029E+03 0.  0.
         24    2    3    3    0    0  0.18224558188E+02  0.13165982854E+03  0.36499718125E+02  0.15931715916E+03  0.79895449242E+02 0.  0.
         -6    2    1    2    0  502 -0.10058365686E+03 -0.26919296031E+03 -0.25576661696E+03  0.42104899245E+03  0.17112501216E+03 0.  0.
        -24    2    5    5    0    0 -0.66598117498E+02 -0.27576836955E+03 -0.21327628016E+03  0.36604197822E+03  0.89534659464E+02 0.  0.
          5    1    3    3  501    0  0.82359098668E+02  0.13753313177E+03 -0.77691704497E+02  0.17820346353E+03  0.47000000000E+01 0. -1.
        -11    1    4    4    0    0 -0.13420509048E+02 -0.71736188121E+00 -0.85729698569E+01  0.15941156901E+02  0.00000000000E+00 0.  1.
         12    1    4    4    0    0  0.31645067235E+02  0.13237719042E+03  0.45072687982E+02  0.14337600226E+03  0.00000000000E+00 0. -1.
         -5    1    5    5    0  502 -0.33985539357E+02  0.65754092453E+01 -0.42490336804E+02  0.55007014224E+02  0.47000000000E+01 0.  1.
         13    1    6    6    0    0 -0.75814753448E+02 -0.20638953351E+03 -0.12341939664E+03  0.25214452969E+03  0.00000000000E+00 0. -1.
        -14    1    6    6    0    0  0.92166359497E+01 -0.69378836040E+02 -0.89856883512E+02  0.11389744854E+03  0.00000000000E+00 0.  1.
</event>
<event>
12    1  0.1032880E+000  0.1786753E+03  0.7818608E-02  0.1169312E+00
         21   -1    0    0  503  502  0.00000000000E+00  0.00000000000E+00  0.17964709596E+03  0.17964709596E+03  0.00000000000E+00 0. -1.
         21   -1    0    0  501  503 -0.00000000000E+00 -0.00000000000E+00 -0.17921550328E+03  0.17921550328E+03  0.00000000000E+00 0. -1.
          6    2    1    2  501    0  0.38634612789E+02 -0.20600181626E+02  0.20994937554E+02  0.17900793446E+03  0.17229640857E+03 0.  0.
         24    2    3    3    0    0  0.70054348896E+02  0.25286989612E+02 -0.19848264813E+02  0.10984805099E+03  0.78266193519E+02 0.  0.
         -6    2    1    2    0  502 -0.38634612789E+02  0.20600181626E+02 -0.20563344879E+02  0.17985466479E+03  0.17322773596E+03 0.  0.
        -24    2    5    5    0    0 -0.56031654789E+02  0.86701792690E+01 -0.74416804321E+02  0.12182650679E+03  0.78032804923E+02 0.  0.
          5    1    3    3  501    0 -0.31419736107E+02 -0.45887171238E+02  0.40843202367E+02  0.69159883465E+02  0.47000000000E+01 0. -1.
        -11    1    4    4    0    0  0.22310051407E+02 -0.25319324307E+02  0.83712897330E+01  0.34769024561E+02  0.00000000000E+00 0.  1.
         12    1    4    4    0    0  0.47744297489E+02  0.50606313919E+02 -0.28219554546E+02  0.75079026432E+02  0.00000000000E+00 0. -1.
         -5    1    5    5    0  502  0.17397042000E+02  0.11930002357E+02  0.53853459442E+02  0.58028157997E+02  0.47000000000E+01 0.  1.
         13    1    6    6    0    0  0.35505251012E+01 -0.16469349037E+02  0.66613474484E+01  0.18116821908E+02  0.00000000000E+00 0. -1.
        -14    1    6    6    0    0 -0.59582179890E+02  0.25139528306E+02 -0.81078151770E+02  0.10370968488E+03  0.00000000000E+00 0.  1.
</event>
<event>
12    1  0.1032880E+000  0.3502436E+03  0.7818608E-02  0.1062587E+00
         21   -1    0    0  503  502  0.00000000000E+00  0.00000000000E+00  0.81620844622E+02  0.81620844622E+02  0.00000000000E+00 0.  1.
         21   -1    0    0  501  503 -0.00000000000E+00 -0.00000000000E+00 -0.15007070545E+04  0.15007070545E+04  0.00000000000E+00 0.  1.
          6    2    1    2  501    0 -0.63493444184E+02 -0.29879647559E+03 -0.72689757864E+03  0.80657300027E+03  0.16990928066E+03 0.  0.
         24    2    3    3    0    0  0.21434830741E+02 -0.21247652925E+03 -0.45752681837E+03  0.51119757559E+03  0.79915232026E+02 0.  0.
         -6    2    1    2    0  502  0.63493444184E+02  0.29879647559E+03 -0.69218863120E+03  0.77575489881E+03  0.17134704722E+03 0.  0.
        -24    2    5    5    0    0  0.60861118424E+02  0.15499595807E+03 -0.51831357063E+03  0.55005566385E+03  0.78641293690E+02 0.  0.
          5    1    3    3  501    0 -0.84928274925E+02 -0.86319946338E+02 -0.26937076027E+03  0.29537542468E+03  0.47000000000E+01 0. -1.
        -11    1    4    4    0    0  0.18326802295E+00 -0.56727506086E+02 -0.21363177101E+03  0.22103523954E+03  0.00000000000E+00 0.  1.
         12    1    4    4    0    0  0.21251562718E+02 -0.15574902316E+03 -0.24389504736E+03  0.29016233605E+03  0.00000000000E+00 0. -1.
         -5    1    5    5    0  502  0.26323257604E+01  0.14380051751E+03 -0.17387506057E+03  0.22569923496E+03  0.47000000000E+01 0.  1.
         13    1    6    6    0    0  0.31341938360E+02  0.14613084364E+03 -0.37965510607E+03  0.40801291662E+03  0.00000000000E+00 0. -1.
        -14    1    6    6    0    0  0.29519180064E+02  0.88651144389E+01 -0.13865846456E+03  0.14204274723E+03  0.00000000000E+00 0.  1.
</event>
<event>
12    1  0.1032880E+000  0.1724362E+03  0.7818608E-02  0.1176907E+00
         21   -1    0    0  501  502  0.00000000000E+00  0.00000000000E+00  0.25205566819E+03  0.25205566819E+03  0.00000000000E+00 0.  1.
         21   -1    0    0  502  503 -0.00000000000E+00 -0.00000000000E+00 -0.21741654974E+03  0.21741654974E+03  0.00000000000E+00 0.  1.
         -6    2    1    2    0  503 -0.47961574778E+01  0.13103046601E+02 -0.14482494933E+03  0.22059152904E+03  0.16580610296E+03 0.  0.
        -24    2    3    3    0    0  0.56299752760E+02 -0.13322238811E+02 -0.97289192212E+02  0.13866019094E+03  0.80089433908E+02 0.  0.
          6    2    1    2  501    0  0.47961574778E+01 -0.13103046601E+02  0.17946406778E+03  0.24888068889E+03  0.17187074423E+03 0.  0.
         24    2    5    5    0    0  0.37340407473E+02 -0.38400344966E+02  0.41455681866E+02  0.10477140364E+03  0.79934854341E+02 0.  0.
          5    1    5    5  501    0 -0.32544249996E+02  0.25297298365E+02  0.13800838591E+03  0.14410928525E+03  0.47000000000E+01 0. -1.
        -13    1    6    6    0    0  0.39811434438E+02  0.63815810990E+01  0.44212620208E+02  0.59836700068E+02  0.00000000000E+00 0.  1.
         14    1    6    6    0    0 -0.24710269645E+01 -0.44781926065E+02 -0.27569383419E+01  0.44934703575E+02  0.00000000000E+00 0. -1.
         -5    1    3    3    0  503 -0.61095910238E+02  0.26425285412E+02 -0.47535757119E+02  0.81931338094E+02  0.47000000000E+01 0.  1.
         11    1    4    4    0    0  0.58144868699E+02 -0.30903784551E+02 -0.36361898781E+02  0.75220059416E+02  0.00000000000E+00 0. -1.
        -12    1    4    4    0    0 -0.18451159387E+01  0.17581545740E+02 -0.60927293431E+02  0.63440131528E+02  0.00000000000E+00 0.  1.
</event>
<event>
12    1  0.1032880E+000  0.3040432E+03  0.7818608E-02  0.1083259E+00
         21   -1    0    0  501  502  0.00000000000E+00  0.00000000000E+00  0.34999992855E+03  0.34999992855E+03  0.00000000000E+00 0. -1.
         21   -1    0    0  502  503 -0.00000000000E+00 -0.00000000000E+00 -0.27314788956E+03  0.27314788956E+03  0.00000000000E+00 0.  1.
         -6    2    1    2    0  503 -0.60104638986E+02  0.24344519156E+03 -0.18727251187E+02  0.30443534541E+03  0.17161596859E+03 0.  0.
        -24    2    3    3    0    0 -0.20550104832E+02  0.18884435206E+03  0.45147805872E+02  0.21144112106E+03  0.81145099600E+02 0.  0.
          6    2    1    2  501    0  0.60104638986E+02 -0.24344519156E+03  0.95579290177E+02  0.31871247270E+03  0.17194217231E+03 0.  0.
         24    2    5    5    0    0  0.59699664487E+02 -0.91412438000E+02 -0.72736897665E+01  0.13509616720E+03  0.79232468528E+02 0.  0.
          5    1    5    5  501    0  0.40497449895E+00 -0.15203275356E+03  0.10285297994E+03  0.18361630549E+03  0.47000000000E+01 0. -1.
        -13    1    6    6    0    0 -0.96073002073E+01  0.40444792523E+01 -0.13395626903E+02  0.16973533805E+02  0.00000000000E+00 0.  1.
         14    1    6    6    0    0  0.69306964695E+02 -0.95456917253E+02  0.61219371365E+01  0.11812263340E+03  0.00000000000E+00 0. -1.
         -5    1    3    3    0  503 -0.39554534154E+02  0.54600839504E+02 -0.63875057059E+02  0.92994224342E+02  0.47000000000E+01 0.  1.
         11    1    4    4    0    0 -0.10961274311E+02  0.45228711153E+02 -0.23316598936E+02  0.52052373942E+02  0.00000000000E+00 0. -1.
        -12    1    4    4    0    0 -0.95888305210E+01  0.14361564090E+03  0.68464404808E+02  0.15938874712E+03  0.00000000000E+00 0.  1.
</event>
<event>
12    1  0.1032880E+000  0.1995211E+03  0.7818608E-02  0.1150247E+00
         21   -1    0    0  503  502  0.00000000000E+00  0.00000000000E+00  0.23967701094E+03  0.23967701094E+03  0.00000000000E+00 0.  1.
         21   -1    0    0  501  503 -0.00000000000E+00 -0.00000000000E+00 -0.16843787536E+03  0.16843787536E+03  0.00000000000E+00 0.  1.
          6    2    1    2  501    0 -0.10116055964E+03 -0.96190757690E+00  0.95010690217E+01  0.19926021816E+03  0.17140589294E+03 0.  0.
         24    2    3    3    0    0 -0.53099017635E+02  0.53014697180E+02  0.45426785078E+02  0.11841386540E+03  0.79549902106E+02 0.  0.
         -6    2    1    2    0  502  0.10116055964E+03  0.96190757690E+00  0.61738066563E+02  0.20885466814E+03  0.17197179841E+03 0.  0.
        -24    2    5    5    0    0  0.12539182343E+03  0.18776351629E+02  0.84453696033E+02  0.17087311493E+03  0.77392078856E+02 0.  0.
          5    1    3    3  501    0 -0.48061542002E+02 -0.53976604757E+02 -0.35925716056E+02  0.80846352761E+02  0.47000000000E+01 0. -1.
        -13    1    4    4    0    0 -0.52571260655E+01 -0.91291288053E+01  0.38233483606E+02  0.39658260625E+02  0.00000000000E+00 0.  1.
         14    1    4    4    0    0 -0.47841891570E+02  0.62143825985E+02  0.71933014720E+01  0.78755604773E+02  0.00000000000E+00 0. -1.
         -5    1    5    5    0  502 -0.24231263793E+02 -0.17814444052E+02 -0.22715629470E+02  0.37981553209E+02  0.47000000000E+01 0.  1.
         11    1    6    6    0    0  0.33803444287E+01 -0.36568479004E+01  0.38123738415E+02  0.38447609753E+02  0.00000000000E+00 0. -1.
        -12    1    6    6    0    0  0.12201147900E+03  0.22433199530E+02  0.46329957618E+02  0.13242550518E+03  0.00000000000E+00 0.  1.
</event>
<event>
12    1  0.1032880E+000  0.3287150E+03  0.7818608E-02  0.1071825E+00
         21   -1    0    0  501  502  0.00000000000E+00  0.00000000000E+00  0.14414235878E+03  0.14414235878E+03  0.00000000000E+00 0. -1.
         21   -1    0    0  502  503 -0.00000000000E+00 -0.00000000000E+00 -0.80231625523E+03  0.80231625523E+03  0.00000000000E+00 0.  1.
         -6    2    1    2    0  503  0.23558453782E+03  0.14924199965E+03 -0.45260052288E+03  0.55875512623E+03  0.17200816507E+03 0.  0.
        -24    2    3    3    0    0  0.61887561073E+02  0.11426887756E+03 -0.19837023263E+03  0.24883757351E+03  0.75378658792E+02 0.  0.
          6    2    1    2  501    0 -0.23558453782E+03 -0.14924199965E+03 -0.20557337357E+03  0.38770348778E+03  0.17401245242E+03 0.  0.
         24    2    5    5    0    0 -0.14721933469E+03 -0.16846449147E+03 -0.15383525350E+03  0.28341141529E+03  0.81258400828E+02 0.  0.
          5    1    5    5  501    0 -0.88365203125E+02  0.19222491822E+02 -0.51738120074E+02  0.10429207249E+03  0.47000000000E+01 0. -1.
        -11    1    6    6    0    0 -0.77360379468E+02 -0.14496338105E+03 -0.10720199698E+03  0.19619194252E+03  0.00000000000E+00 0.  1.
         12    1    6    6    0    0 -0.69858955224E+02 -0.23501110428E+02 -0.46633256519E+02  0.87219472768E+02  0.00000000000E+00 0. -1.
         -5    1    3    3    0  503  0.17369697675E+03  0.34973122088E+02 -0.25423029026E+03  0.30991755272E+03  0.47000000000E+01 0.  1.
         13    1    4    4    0    0  0.62570747560E+02  0.36771690769E+02 -0.90288975567E+02  0.11584193887E+03  0.00000000000E+00 0. -1.
        -14    1    4    4    0    0 -0.68318648731E+00  0.77497186796E+02 -0.10808125706E+03  0.13299563464E+03  0.00000000000E+00 0.  1.
</event>
<event>
12    1  0.1032880E+000  0.2064236E+03  0.7818608E-02  0.1146471E+00
         21   -1    0    0  501  502  0.00000000000E+00  0.00000000000E+00  0.84411387410E+02  0.84411387410E+02  0.00000000000E+00 0.  1.
         21   -1    0    0  502  503 -0.00000000000E+00 -0.00000000000E+00 -0.86985911725E+03  0.86985911725E+03  0.00000000000E+00 0.  1.
         -6    2    1    2    0  503 -0.94213830408E+02  0.16590945054E+02 -0.79078765983E+02  0.22105241035E+03  0.18291859281E+03 0.  0.
        -24    2    3    3    0    0 -0.13614776154E+03  0.49832972562E+01 -0.82378514945E+02  0.17716425237E+03  0.77716834525E+02 0.  0.
          6    2    1    2  501    0  0.94213830408E+02 -0.16590945054E+02 -0.70636896386E+03  0.73321809431E+03  0.17175609282E+03 0.  0.
         24    2    5    5    0    0  0.14652392326E+02 -0.54949254367E+02 -0.24651919167E+03  0.26493902655E+03  0.78656613001E+02 0.  0.
          5    1    5    5  501    0  0.79561438081E+02  0.38358309314E+02 -0.45984977219E+03  0.46827906776E+03  0.47000000000E+01 0. -1.
        -11    1    6    6    0    0 -0.26993779647E+02  0.11668922769E+01 -0.75765787583E+02  0.80439296026E+02  0.00000000000E+00 0.  1.
         12    1    6    6    0    0  0.41646171973E+02 -0.56116146644E+02 -0.17075340409E+03  0.18449973052E+03  0.00000000000E+00 0. -1.
         -5    1    3    3    0  503  0.41933931137E+02  0.11607647797E+02  0.32997489616E+01  0.43888157983E+02  0.47000000000E+01 0.  1.
         13    1    4    4    0    0 -0.77175683421E+02  0.37088403421E+02 -0.25990272809E+02  0.89482568473E+02  0.00000000000E+00 0. -1.
        -14    1    4    4    0    0 -0.58972078124E+02 -0.32105106165E+02 -0.56388242135E+02  0.87681683898E+02  0.00000000000E+00 0.  1.
</event>
<event>
12    1  0.1032880E+000  0.2636181E+03  0.7818608E-02  0.1105656E+00
         21   -1    0    0  503  502  0.00000000000E+00  0.00000000000E+00  0.13334084247E+04  0.13334084247E+04  0.00000000000E+00 0. -1.
         21   -1    0    0  501  503 -0.00000000000E+00 -0.00000000000E+00 -0.54176879256E+02  0.54176879256E+02  0.00000000000E+00 0. -1.
          6    2    1    2  501    0  0.19982788976E+03  0.57862960702E+01  0.79607706789E+03  0.83719205027E+03  0.16488530641E+03 0.  0.
         24    2    3    3    0    0  0.90050456168E+02 -0.26185579731E+02  0.57715152349E+03  0.59016215379E+03  0.79954471105E+02 0.  0.
         -6    2    1    2    0  502 -0.19982788976E+03 -0.57862960702E+01  0.48315447758E+03  0.55039325371E+03  0.17184242135E+03 0.  0.
        -24    2    5    5    0    0 -0.21949398531E+02 -0.10119867090E+02  0.19514145516E+03  0.21181810908E+03  0.78756180743E+02 0.  0.
          5    1    3    3  501    0  0.10977743359E+03  0.31971875801E+02  0.21892554439E+03  0.24702989648E+03  0.47000000000E+01 0. -1.
        -11    1    4    4    0    0  0.10250248060E+03 -0.12890472943E+02  0.44961233641E+03  0.46132870697E+03  0.00000000000E+00 0.  1.
         12    1    4    4    0    0 -0.12452024432E+02 -0.13295106788E+02  0.12753918708E+03  0.12883344682E+03  0.00000000000E+00 0. -1.
         -5    1    5    5    0  502 -0.17787849123E+03  0.43335710202E+01  0.28801302242E+03  0.33857514463E+03  0.47000000000E+01 0.  1.
         13    1    6    6    0    0  0.26056544443E+02 -0.15160934991E+02  0.45471201271E+02  0.54556645821E+02  0.00000000000E+00 0. -1.
        -14    1    6    6    0    0 -0.48005942974E+02  0.50410679009E+01  0.14967025389E+03  0.15726146326E+03  0.00000000000E+00 0.  1.
</event>
<event>
12    1  0.1032880E+000  0.1741523E+03  0.7818608E-02  0.1174571E+00
         21   -1    0    0  503  502  0.00000000000E+00  0.00000000000E+00  0.77356733746E+03  0.77356733746E+03  0.00000000000E+00 0.  1.
         21   -1    0    0  501  503 -0.00000000000E+00 -0.00000000000E+00 -0.38366822570E+02  0.38366822570E+02  0.00000000000E+00 0.  1.
          6    2    1    2  501    0 -0.46322057501E+01  0.24286957318E+02  0.37344111262E+03  0.41043832947E+03  0.16849345412E+03 0.  0.
         24    2    3    3    0    0  0.31613715440E+02  0.68396401919E+02  0.28270079781E+03  0.30312894201E+03  0.79309013375E+02 0.  0.
         -6    2    1    2    0  502  0.46322057501E+01 -0.24286957318E+02  0.36175940227E+03  0.40149583055E+03  0.17238829194E+03 0.  0.
        -24    2    5    5    0    0 -0.54324532814E+02 -0.50822928481E+02  0.22579054656E+03  0.25086490906E+03  0.80110590789E+02 0.  0.
          5    1    3    3  501    0 -0.36245921190E+02 -0.44109444601E+02  0.90740314814E+02  0.10730938747E+03  0.47000000000E+01 0. -1.
        -11    1    4    4    0    0 -0.25283605654E+02  0.82370057672E+01  0.68356318582E+02  0.73346405972E+02  0.00000000000E+00 0.  1.
         12    1    4    4    0    0  0.56897321093E+02  0.60159396152E+02  0.21434447922E+03  0.22978253604E+03  0.00000000000E+00 0. -1.
         -5    1    5    5    0  502  0.58956738564E+02  0.26535971163E+02  0.13596885570E+03  0.15063092149E+03  0.47000000000E+01 0.  1.
         13    1    6    6    0    0 -0.27825321449E+02 -0.32291674893E+02  0.29285100095E+02  0.51716707830E+02  0.00000000000E+00 0. -1.
        -14    1    6    6    0    0 -0.26499211365E+02 -0.18531253588E+02  0.19650544647E+03  0.19914820123E+03  0.00000000000E+00 0.  1.
</event>
<event>
12    1  0.1032880E+000  0.2226702E+03  0.7818608E-02  0.1132023E+00
         21   -1    0    0  503  502  0.00000000000E+00  0.00000000000E+00  0.44727526793E+02  0.44727526793E+02  0.00000000000E+00 0. -1.
         21   -1    0    0  501  503 -0.00000000000E+00 -0.00000000000E+00 -0.13114069352E+04  0.13114069352E+04  0.00000000000E+00 0. -1.
          6    2    1    2  501    0 -0.58399627588E+02 -0.12900800146E+03 -0.90282266817E+03  0.92987676629E+03  0.17183843976E+03 0.  0.
         24    2    3    3    0    0 -0.53304792725E+02 -0.14162128742E+03 -0.52763791619E+03  0.55441606203E+03  0.77957740194E+02 0.  0.
         -6    2    1    2    0  502  0.58399627588E+02  0.12900800146E+03 -0.36385674028E+03  0.42625769575E+03  0.17102723407E+03 0.  0.
        -24    2    5    5    0    0  0.61350307109E+02  0.71312698248E+02 -0.34296431783E+03  0.36464570148E+03  0.80576691355E+02 0.  0.
          5    1    3    3  501    0 -0.50948348631E+01  0.12613285961E+02 -0.37518475198E+03  0.37546070426E+03  0.47000000000E+01 0. -1.
        -13    1    4    4    0    0 -0.25336425190E+02 -0.11663197594E+03 -0.28630711086E+03  0.31018819124E+03  0.00000000000E+00 0.  1.
         14    1    4    4    0    0 -0.27968367534E+02 -0.24989311479E+02 -0.24133080533E+03  0.24422787080E+03  0.00000000000E+00 0. -1.
         -5    1    5    5    0  502 -0.29506795217E+01  0.57695303209E+02 -0.20892422453E+02  0.61611994270E+02  0.47000000000E+01 0.  1.
         11    1    6    6    0    0 -0.63667392195E+01  0.29727648821E+02 -0.18852802213E+03  0.19096356616E+03  0.00000000000E+00 0. -1.
        -12    1    6    6    0    0  0.67717046329E+02  0.41585049427E+02 -0.15443629569E+03  0.17368213531E+03  0.00000000000E+00 0.  1.
</event>
<event>
12    1  0.1032880E+000  0.2817935E+03  0.7818608E-02  0.1094842E+00
         21   -1    0    0  501  502  0.00000000000E+00  0.00000000000E+00  0.42319544790E+03  0.42319544790E+03  0.00000000000E+00 0.  1.
         21   -1    0    0  502  503 -0.00000000000E+00 -0.00000000000E+00 -0.46722503435E+03  0.46722503435E+03  0.00000000000E+00 0. -1.
         -6    2    1    2    0  503  0.21772607094E+03  0.49378032618E+02  0.32275541953E+03  0.42846077036E+03  0.17194399913E+03 0.  0.
        -24    2    3    3    0    0  0.17269517500E+03  0.94172099251E+02  0.28221199664E+03  0.35296143836E+03  0.79032639919E+02 0.  0.
          6    2    1    2  501    0 -0.21772607094E+03 -0.49378032618E+02 -0.36678500598E+03  0.46195971189E+03  0.17038985513E+03 0.  0.
         24    2    5    5    0    0 -0.22960377644E+03 -0.67306002726E+02 -0.35754736349E+03  0.43808679756E+03  0.82655507343E+02 0.  0.
          5    1    5    5  501    0  0.11877705504E+02  0.17927970108E+02 -0.92376424888E+01  0.23872914338E+02  0.47000000000E+01 0. -1.
        -11    1    6    6    0    0 -0.97790636162E+02 -0.22003993469E+02 -0.82817711225E+02  0.13002291160E+03  0.00000000000E+00 0.  1.
         12    1    6    6    0    0 -0.13181314028E+03 -0.45302009256E+02 -0.27472965227E+03  0.30806388595E+03  0.00000000000E+00 0. -1.
         -5    1    3    3    0  503  0.45030895933E+02 -0.44794066632E+02  0.40543422886E+02  0.75499332006E+02  0.47000000000E+01 0.  1.
         13    1    4    4    0    0  0.11847781029E+03  0.99637138477E+02  0.18234517934E+03  0.23919514068E+03  0.00000000000E+00 0. -1.
        -14    1    4    4    0    0  0.54217364709E+02 -0.54650392260E+01  0.99866817295E+02  0.11376629767E+03  0.00000000000E+00 0.  1.
</event>
<event>
12    1  0.1032880E+000  0.1988354E+03  0.7818608E-02  0.1151135E+00
         21   -1    0    0  501  502  0.00000000000E+00  0.00000000000E+00  0.83424838333E+03  0.83424838333E+03  0.00000000000E+00 0. -1.
         21   -1    0    0  502  503 -0.00000000000E+00 -0.00000000000E+00 -0.25193447949E+03  0.25193447949E+03  0.00000000000E+00 0. -1.
         -6    2    1    2    0  503  0.22548030870E+02  0.95300167475E+02 -0.19900213016E+03  0.27996313091E+03  0.17084194814E+03 0.  0.
        -24    2    3    3    0    0 -0.24108268380E+02 -0.63280091016E+01 -0.66745607032E+02  0.10670328431E+03  0.79431495772E+02 0.  0.
          6    2    1    2  501    0 -0.22548030870E+02 -0.95300167475E+02  0.78131603400E+03  0.80621973191E+03  0.17304616585E+03 0.  0.
         24    2    5    5    0    0 -0.49038838096E+02 -0.12076886341E+03  0.50202736872E+03  0.52448463311E+03  0.77863505029E+02 0.  0.
          5    1    5    5  501    0  0.26490807226E+02  0.25468695932E+02  0.27928866528E+03  0.28173509880E+03  0.47000000000E+01 0. -1.
        -11    1    6    6    0    0  0.21671189114E+01  0.14041913355E+01 -0.20464847332E+01  0.32948835255E+01  0.00000000000E+00 0.  1.
         12    1    6    6    0    0 -0.51205957007E+02 -0.12217305474E+03  0.50407385345E+03  0.52118974958E+03  0.00000000000E+00 0. -1.
         -5    1    3    3    0  503  0.46656299250E+02  0.10162817658E+03 -0.13225652313E+03  0.17325984660E+03  0.47000000000E+01 0.  1.
         13    1    4    4    0    0  0.10085463087E+02 -0.26192388154E+02 -0.60466374597E+02  0.66662884875E+02  0.00000000000E+00 0. -1.
        -14    1    4    4    0    0 -0.34193731468E+02  0.19864379053E+02 -0.62792324353E+01  0.40040399434E+02  0.00000000000E+00 0.  1.
</event>
<event>
12    1  0.1032880E+000  0.2325865E+03  0.7818608E-02  0.1125192E+00
         21   -1    0    0  503  502  0.00000000000E+00  0.00000000000E+00  0.41298472005E+03  0.41298472005E+03  0.00000000000E+00 0. -1.
         21   -1    0    0  501  503 -0.00000000000E+00 -0.00000000000E+00 -0.14478223669E+03  0.14478223669E+03  0.00000000000E+00 0. -1.
          6    2    1    2  501    0  0.15194717149E+03  0.37635685344E+02  0.22318898673E+03  0.32086467354E+03  0.16922301024E+03 0.  0.
         24    2    3    3    0    0  0.12317824354E+03 -0.25506807563E+02  0.19531412323E+03  0.24593988698E+03  0.80717683073E+02 0.  0.
         -6    2    1    2    0  502 -0.15194717149E+03 -0.37635685344E+02  0.45013496624E+02  0.23690228320E+03  0.17202351343E+03 0.  0.
        -24    2    5    5    0    0 -0.25445460105E+02  0.20880576777E+02  0.47300936167E+02  0.97424118973E+02  0.78553233344E+02 0.  0.
          5    1    3    3  501    0  0.28768927952E+02  0.63142492907E+02  0.27874863496E+02  0.74924786559E+02  0.47000000000E+01 0. -1.
        -11    1    4    4    0    0  0.21024586716E+02  0.23969591346E+02  0.69666579022E+02  0.76615969540E+02  0.00000000000E+00 0.  1.
         12    1    4    4    0    0  0.10215365683E+03 -0.49476398909E+02  0.12564754421E+03  0.16932391744E+03  0.00000000000E+00 0. -1.
         -5    1    5    5    0  502 -0.12650171139E+03 -0.58516262121E+02 -0.22874395433E+01  0.13947816423E+03  0.47000000000E+01 0.  1.
         11    1    6    6    0    0 -0.27757168783E+02 -0.16802461611E+02  0.49965541873E+02  0.59576325077E+02  0.00000000000E+00 0. -1.
        -12    1    6    6    0    0  0.23117086781E+01  0.37683038388E+02 -0.26646057060E+01  0.37847793896E+02  0.00000000000E+00 0.  1.
</event>
<event>
12    1  0.1032880E+000  0.3245665E+03  0.7818608E-02  0.1073596E+00
         21   -1    0    0  503  502  0.00000000000E+00  0.00000000000E+00  0.28458639515E+03  0.28458639515E+03  0.00000000000E+00 0. -1.
         21   -1    0    0  501  503 -0.00000000000E+00 -0.00000000000E+00 -0.11646385562E+04  0.11646385562E+04  0.00000000000E+00 0. -1.
          6    2    1    2  501    0  0.27088228435E+03 -0.46959954941E+02  0.15851042074E+03  0.36120485043E+03  0.17251359698E+03 0.  0.
         24    2    3    3    0    0  0.18667465951E+03 -0.77279957035E+00  0.35257288944E+02  0.20487954249E+03  0.76710656277E+02 0.  0.
         -6    2    1    2    0  502 -0.27088228435E+03  0.46959954941E+02 -0.10385625818E+04  0.10880201009E+04  0.17202631879E+03 0.  0.
        -24    2    5    5    0    0 -0.16692652425E+03 -0.89332486925E+00 -0.82613282235E+03  0.84667961707E+03  0.80657741523E+02 0.  0.
          5    1    3    3  501    0  0.84207624848E+02 -0.46187155370E+02  0.12325313180E+03  0.15632530794E+03  0.47000000000E+01 0. -1.
        -11    1    4    4    0    0  0.11093372674E+03 -0.27759234439E+02  0.46972554470E+02  0.12362559484E+03  0.00000000000E+00 0.  1.
         12    1    4    4    0    0  0.75740932761E+02  0.26986434868E+02 -0.11715265525E+02  0.81253947650E+02  0.00000000000E+00 0. -1.
         -5    1    5    5    0  502 -0.10395576010E+03  0.47853279810E+02 -0.21242975941E+03  0.24134048382E+03  0.47000000000E+01 0.  1.
         11    1    6    6    0    0 -0.49783783136E+02 -0.82104173122E+00 -0.44952061864E+03  0.45226970467E+03  0.00000000000E+00 0. -1.
        -12    1    6    6    0    0 -0.11714274112E+03 -0.72283138031E-01 -0.37661220371E+03  0.39440991240E+03  0.00000000000E+00 0.  1.
</event>
<event>
12    1  0.1032880E+000  0.1859420E+03  0.7818608E-02  0.1162403E+00
         21   -1    0    0  503  502  0.00000000000E+00  0.00000000000E+00  0.44943400186E+02  0.44943400186E+02  0.00000000000E+00 0.  1.
         21   -1    0    0  501  503 -0.00000000000E+00 -0.00000000000E+00 -0.11588104512E+04  0.11588104512E+04  0.00000000000E+00 0.  1.
          6    2    1    2  501    0  0.61984330360E+02  0.29979319864E+02 -0.20517643893E+03  0.27623400299E+03  0.17165965305E+03 0.  0.
         24    2    3    3    0    0 -0.15047327024E+02 -0.20253912580E+02 -0.57327916096E+02  0.10205441295E+03  0.80572763476E+02 0.  0.
         -6    2    1    2    0  502 -0.61984330360E+02 -0.29979319864E+02 -0.90869061206E+03  0.92751984837E+03  0.17272412642E+03 0.  0.
        -24    2    5    5    0    0 -0.10494486809E+03 -0.77500584899E+01 -0.54234795555E+03  0.55796771424E+03  0.78186805154E+02 0.  0.
          5    1    3    3  501    0  0.77031657384E+02  0.50233232444E+02 -0.14784852284E+03  0.17417959004E+03  0.47000000000E+01 0. -1.
        -13    1    4    4    0    0 -0.38710493997E+02 -0.20026781507E+02 -0.64033185195E+02  0.77458525220E+02  0.00000000000E+00 0.  1.
         14    1    4    4    0    0  0.23663166973E+02 -0.22713107281E+00  0.67052690995E+01  0.24595887734E+02  0.00000000000E+00 0. -1.
         -5    1    5    5    0  502  0.42960537726E+02 -0.22229261374E+02 -0.36634265652E+03  0.36955213414E+03  0.47000000000E+01 0.  1.
         13    1    6    6    0    0 -0.58217672278E+02  0.98969612278E+00 -0.12471081413E+03  0.13763380408E+03  0.00000000000E+00 0. -1.
        -14    1    6    6    0    0 -0.46727195808E+02 -0.87397546127E+01 -0.41763714141E+03  0.42033391016E+03  0.00000000000E+00 0.  1.
</event>
<event>
12    1  0.1032880E+000  0.2034061E+03  0.7818608E-02  0.1147122E+00
         21   -1    0    0  503  502  0.00000000000E+00  0.00000000000E+00  0.60728485404E+03  0.60728485404E+03  0.00000000000E+00 0. -1.
         21   -1    0    0  501  503 -0.00000000000E+00 -0.00000000000E+00 -0.82646341252E+02  0.82646341252E+02  0.00000000000E+00 0. -1.
          6    2    1    2  501    0 -0.98228187595E+02  0.41580548894E+02  0.11651778039E+03  0.23441504846E+03  0.17319440785E+03 0.  0.
         24    2    3    3    0    0 -0.19951413008E+02 -0.26824051127E+02  0.28429805628E+02  0.98077144553E+02  0.87711366628E+02 0.  0.
         -6    2    1    2    0  502  0.98228187595E+02 -0.41580548894E+02  0.40812073240E+03  0.45551614683E+03  0.17191483045E+03 0.  0.
        -24    2    5    5    0    0  0.66406423035E+02 -0.79028222562E+02  0.17956616347E+03  0.22169092591E+03  0.79041676251E+02 0.  0.
          5    1    3    3  501    0 -0.78276774587E+02  0.68404600021E+02  0.88087974757E+02  0.13633790390E+03  0.47000000000E+01 0. -1.
        -13    1    4    4    0    0 -0.11429586806E+02  0.21676790842E+02 -0.17992584546E+02  0.30401510068E+02  0.00000000000E+00 0.  1.
         14    1    4    4    0    0 -0.85218262011E+01 -0.48500841969E+02  0.46422390174E+02  0.67675634485E+02  0.00000000000E+00 0. -1.
         -5    1    5    5    0  502  0.31821764560E+02  0.37447673668E+02  0.22855456893E+03  0.23382522093E+03  0.47000000000E+01 0.  1.
         11    1    6    6    0    0  0.28233871817E+02 -0.52246806749E+02  0.16081741965E+03  0.17143256049E+03  0.00000000000E+00 0. -1.
        -12    1    6    6    0    0  0.38172551218E+02 -0.26781415813E+02  0.18748743818E+02  0.50258365414E+02  0.00000000000E+00 0.  1.
</event>
<event>
12    1  0.1032880E+000  0.1789472E+03  0.7818608E-02  0.1169149E+00
         21   -1    0    0  501  502  0.00000000000E+00  0.00000000000E+00  0.19318209062E+03  0.19318209062E+03  0.00000000000E+00 0. -1.
         21   -1    0    0  502  503 -0.00000000000E+00 -0.00000000000E+00 -0.16613389490E+03  0.16613389490E+03  0.00000000000E+00 0. -1.
         -6    2    1    2    0  503  0.11497710823E+02  0.49644810240E+02  0.31064681950E+02  0.18032372394E+03  0.17016117775E+03 0.  0.
        -24    2    3    3    0    0 -0.23045892777E+02  0.91560601986E+02  0.27541944625E+02  0.12569137248E+03  0.78264330275E+02 0.  0.
          6    2    1    2  501    0 -0.11497710823E+02 -0.49644810240E+02 -0.40164862321E+01  0.17899226158E+03  0.17153802205E+03 0.  0.
         24    2    5    5    0    0 -0.25025700574E+02  0.26095022199E+02 -0.36495722210E+02  0.95347061518E+02  0.80323648621E+02 0.  0.
          5    1    5    5  501    0  0.13527989751E+02 -0.75739832438E+02  0.32479235978E+02  0.83645200067E+02  0.47000000000E+01 0. -1.
        -13    1    6    6    0    0 -0.27567234642E+02  0.17959545641E+02  0.19806695605E+02  0.38403162582E+02  0.00000000000E+00 0.  1.
         14    1    6    6    0    0  0.25415340685E+01  0.81354765571E+01 -0.56302417815E+02  0.56943898936E+02  0.00000000000E+00 0. -1.
         -5    1    3    3    0  503  0.34543603600E+02 -0.41915791746E+02  0.35227373251E+01  0.54632351456E+02  0.47000000000E+01 0.  1.
         11    1    4    4    0    0  0.11502645964E+02  0.35465542704E+02  0.44112891278E+02  0.57758659614E+02  0.00000000000E+00 0. -1.
        -12    1    4    4    0    0 -0.34548538741E+02  0.56095059282E+02 -0.16570946653E+02  0.67932712870E+02  0.00000000000E+00 0.  1.
</event>
<event>
12    1  0.1032880E+000  0.2456849E+03  0.7818608E-02  0.1117367E+00
         21   -1    0    0  503  502  0.00000000000E+00  0.00000000000E+00  0.55008285837E+03  0.55008285837E+03  0.00000000000E+00 0. -1.
         21   -1    0    0  501  503 -0.00000000000E+00 -0.00000000000E+00 -0.16370496933E+03  0.16370496933E+03  0.00000000000E+00 0. -1.
          6    2    1    2  501    0  0.14063884939E+03 -0.92116362288E+02  0.40260775842E+03  0.46756748142E+03  0.16811196385E+03 0.  0.
         24    2    3    3    0    0  0.73053012288E+02 -0.10147347628E+03  0.17650309341E+03  0.23134552966E+03  0.82059753333E+02 0.  0.
         -6    2    1    2    0  502 -0.14063884939E+03  0.92116362288E+02 -0.16229869376E+02  0.24622034628E+03  0.17915451460E+03 0.  0.
        -24    2    5    5    0    0 -0.96402895355E+02  0.84119264784E+02 -0.78015566368E+02  0.16966751778E+03  0.79568015265E+02 0.  0.
          5    1    3    3  501    0  0.67585837103E+02  0.93571139881E+01  0.22610466501E+03  0.23622195177E+03  0.47000000000E+01 0. -1.
        -13    1    4    4    0    0  0.38728322181E+02 -0.12266506088E+02  0.14287106380E+02  0.43063575319E+02  0.00000000000E+00 0.  1.
         14    1    4    4    0    0  0.34324690107E+02 -0.89206970188E+02  0.16221598703E+03  0.18828195434E+03  0.00000000000E+00 0. -1.
         -5    1    5    5    0  502 -0.44235954037E+02  0.79970975037E+01  0.61785696992E+02  0.76552828496E+02  0.47000000000E+01 0.  1.
         11    1    6    6    0    0 -0.97081226213E+02  0.97170680222E+02 -0.68420825242E+02  0.15345460210E+03  0.00000000000E+00 0. -1.
        -12    1    6    6    0    0  0.67833085841E+00 -0.13051415438E+02 -0.95947411255E+01  0.16212915683E+02  0.00000000000E+00 0.  1.
</event>
<event>
12    1  0.1032880E+000  0.2318816E+03  0.7818608E-02  0.1125370E+00
         21   -1    0    0  501  502  0.00000000000E+00  0.00000000000E+00  0.64019877571E+02  0.64019877571E+02  0.00000000000E+00 0. -1.
         21   -1    0    0  502  503 -0.00000000000E+00 -0.00000000000E+00 -0.11039439877E+04  0.11039439877E+04  0.00000000000E+00 0. -1.
         -6    2    1    2    0  503  0.60426307086E+02  0.14362148532E+03 -0.80634022785E+03  0.83901945017E+03  0.17172828855E+03 0.  0.
        -24    2    3    3    0    0  0.68474654851E+02  0.16328933264E+03 -0.78119349815E+03  0.80576214820E+03  0.87390922910E+02 0.  0.
          6    2    1    2  501    0 -0.60426307086E+02 -0.14362148532E+03 -0.23358388231E+03  0.32894441513E+03  0.17136081389E+03 0.  0.
         24    2    5    5    0    0 -0.32218537908E+02 -0.17126659509E+03 -0.20191901388E+03  0.27810462531E+03  0.78743975469E+02 0.  0.
          5    1    5    5  501    0 -0.28207769178E+02  0.27645109773E+02 -0.31664868427E+02  0.50839789819E+02  0.47000000000E+01 0. -1.
        -13    1    6    6    0    0 -0.13032088895E+02 -0.25881628432E+02 -0.87288767203E+02  0.91972946626E+02  0.00000000000E+00 0.  1.
         14    1    6    6    0    0 -0.19186449013E+02 -0.14538496666E+03 -0.11463024668E+03  0.18613167868E+03  0.00000000000E+00 0. -1.
         -5    1    3    3    0  503 -0.80483477655E+01 -0.19667847323E+02 -0.25146729703E+02  0.33257301978E+02  0.47000000000E+01 0.  1.
         11    1    4    4    0    0 -0.10395282964E+02 -0.45907055537E+01 -0.62148807301E+02  0.63179195423E+02  0.00000000000E+00 0. -1.
        -12    1    4    4    0    0  0.78869937815E+02  0.16788003819E+03 -0.71904469085E+03  0.74258295277E+03  0.00000000000E+00 0.  1.
</event>
<event>
12    1  0.1032880E+000  0.3859252E+03  0.7818608E-02  0.1049533E+00
         21   -1    0    0  503  502  0.00000000000E+00  0.00000000000E+00  0.31365139942E+03  0.31365139942E+03  0.00000000000E+00 0.  1.
         21   -1    0    0  501  503 -0.00000000000E+00 -0.00000000000E+00 -0.52485996901E+03  0.52485996901E+03  0.00000000000E+00 0.  1.
          6    2    1    2  501    0  0.32220676585E+03  0.12437415208E+03  0.37467092039E+02  0.37940591088E+03  0.15250879504E+03 0.  0.
         24    2    3    3    0    0  0.27751904193E+03  0.14160409459E+03  0.68062298524E+01  0.32234417188E+03  0.82406930169E+02 0.  0.
         -6    2    1    2    0  502 -0.32220676585E+03 -0.12437415208E+03 -0.24867566163E+03  0.45910545755E+03  0.17219787108E+03 0.  0.
        -24    2    5    5    0    0 -0.19051164186E+03 -0.10990000008E+03 -0.86218424772E+02  0.24942105049E+03  0.80028419674E+02 0.  0.
          5    1    3    3  501    0  0.44687723921E+02 -0.17229942519E+02  0.30660862187E+02  0.57061739007E+02  0.47000000000E+01 0. -1.
        -13    1    4    4    0    0  0.17551055551E+02 -0.94475160522E+01 -0.76034216478E+01  0.21333240055E+02  0.00000000000E+00 0.  1.
         14    1    4    4    0    0  0.25996798638E+03  0.15105161065E+03  0.14409651500E+02  0.30101093182E+03  0.00000000000E+00 0. -1.
         -5    1    5    5    0  502 -0.13169512399E+03 -0.14474151992E+02 -0.16245723685E+03  0.20968440706E+03  0.47000000000E+01 0.  1.
         13    1    6    6    0    0 -0.17621004366E+03 -0.82398691509E+02 -0.48273162414E+02  0.20042410549E+03  0.00000000000E+00 0. -1.
        -14    1    6    6    0    0 -0.14301598193E+02 -0.27501308574E+02 -0.37945262359E+02  0.48996945003E+02  0.00000000000E+00 0.  1.
</event>
<event>
12    1  0.1032880E+000  0.3389664E+03  0.7818608E-02  0.1067369E+00
         21   -1    0    0  503  502  0.00000000000E+00  0.00000000000E+00  0.85084000553E+03  0.85084000553E+03  0.00000000000E+00 0.  1.
         21   -1    0    0  501  503 -0.00000000000E+00 -0.00000000000E+00 -0.13537010755E+03  0.13537010755E+03  0.00000000000E+00 0.  1.
          6    2    1    2  501    0 -0.29053018200E+03  0.17470458507E+02  0.39547948161E+03  0.52006411510E+03  0.17131742431E+03 0.  0.
         24    2    3    3    0    0 -0.26052774537E+03  0.62985183436E+02  0.29510769072E+03  0.40574734995E+03  0.75501810773E+02 0.  0.
         -6    2    1    2    0  502  0.29053018200E+03 -0.17470458507E+02  0.31999041636E+03  0.46614599798E+03  0.17373894580E+03 0.  0.
        -24    2    5    5    0    0  0.28387623644E+03 -0.46510573168E+02  0.24614254907E+03  0.38637632482E+03  0.77146347205E+02 0.  0.
          5    1    3    3  501    0 -0.30002436634E+02 -0.45514724929E+02  0.10037179089E+03  0.11431676516E+03  0.47000000000E+01 0. -1.
        -13    1    4    4    0    0 -0.16961232796E+02 -0.11633133850E+02  0.83927070187E+01  0.22213751422E+02  0.00000000000E+00 0.  1.
         14    1    4    4    0    0 -0.24356651257E+03  0.74618317285E+02  0.28671498370E+03  0.38353359853E+03  0.00000000000E+00 0. -1.
         -5    1    5    5    0  502  0.66539455609E+01  0.29040114661E+02  0.73847867296E+02  0.79769673155E+02  0.47000000000E+01 0.  1.
         11    1    6    6    0    0  0.92136244227E+02  0.37630339255E+01  0.12032562177E+03  0.15159651441E+03  0.00000000000E+00 0. -1.
        -12    1    6    6    0    0  0.19173999221E+03 -0.50273607093E+02  0.12581692729E+03  0.23477981041E+03  0.00000000000E+00 0.  1.
</event>
<event>
12    1  0.1032880E+000  0.2131072E+03  0.7818608E-02  0.1139284E+00
         21   -1    0    0  503  502  0.00000000000E+00  0.00000000000E+00  0.68766360276E+02  0.68766360276E+02  0.00000000000E+00 0. -1.
         21   -1    0    0  501  503 -0.00000000000E+00 -0.00000000000E+00 -0.65896107947E+03  0.65896107947E+03  0.00000000000E+00 0. -1.
          6    2    1    2  501    0  0.11714660223E+03  0.44073902956E+02 -0.30878301408E+03  0.37472995959E+03  0.17149273305E+03 0.  0.
         24    2    3    3    0    0  0.37376593948E+02  0.78648514274E+02 -0.22645588163E+03  0.25490298138E+03  0.78170742718E+02 0.  0.
         -6    2    1    2    0  502 -0.11714660223E+03 -0.44073902956E+02 -0.28141170511E+03  0.35299748016E+03  0.17247851429E+03 0.  0.
        -24    2    5    5    0    0  0.44681144040E+01  0.94505778298E+01 -0.11463558355E+03  0.13971041054E+03  0.79173255137E+02 0.  0.
          5    1    3    3  501    0  0.79770008282E+02 -0.34574611319E+02 -0.82327132453E+02  0.11982697821E+03  0.47000000000E+01 0. -1.
        -13    1    4    4    0    0  0.43630446881E+02  0.68588011733E+02 -0.22881409500E+03  0.24282467197E+03  0.00000000000E+00 0.  1.
         14    1    4    4    0    0 -0.62538529329E+01  0.10060502541E+02  0.23582133642E+01  0.12078309408E+02  0.00000000000E+00 0. -1.
         -5    1    5    5    0  502 -0.12161471663E+03 -0.53524480785E+02 -0.16677612156E+03  0.21328706962E+03  0.47000000000E+01 0.  1.
         11    1    6    6    0    0 -0.34699339832E+02 -0.38235106254E+01 -0.73555890037E+02  0.81419484016E+02  0.00000000000E+00 0. -1.
        -12    1    6    6    0    0  0.39167454236E+02  0.13274088455E+02 -0.41079693516E+02  0.58290926524E+02  0.00000000000E+00 0.  1.
</event>
<event>
12    1  0.1032880E+000  0.3891730E+03  0.7818608E-02  0.1047653E+00
         21   -1    0    0  501  502  0.00000000000E+00  0.00000000000E+00  0.12386939436E+03  0.12386939436E+03  0.00000000000E+00 0.  1.
         21   -1    0    0  502  503 -0.00000000000E+00 -0.00000000000E+00 -0.19618007299E+04  0.19618007299E+04  0.00000000000E+00 0.  1.
         -6    2    1    2    0  503  0.34835270590E+03  0.18794800501E+02 -0.27752162878E+03  0.47746179118E+03  0.17102238261E+03 0.  0.
        -24    2    3    3    0    0  0.18749509857E+03 -0.48519829405E+02 -0.11380368982E+03  0.23822951331E+03  0.79331175213E+02 0.  0.
          6    2    1    2  501    0 -0.34835270590E+03 -0.18794800501E+02 -0.15604097068E+04  0.16082083331E+04  0.17248981827E+03 0.  0.
         24    2    5    5    0    0 -0.14374289556E+03 -0.55851177178E+02 -0.55414111926E+03  0.58066908335E+03  0.79516226595E+02 0.  0.
          5    1    5    5  501    0 -0.20460981034E+03  0.37056376677E+02 -0.10062685876E+04  0.10275392498E+04  0.47000000000E+01 0. -1.
        -13    1    6    6    0    0 -0.10937184500E+02 -0.33555488400E+02 -0.16951793045E+03  0.17315288490E+03  0.00000000000E+00 0.  1.
         14    1    6    6    0    0 -0.13280571106E+03 -0.22295688778E+02 -0.38462318881E+03  0.40751619845E+03  0.00000000000E+00 0. -1.
         -5    1    3    3    0  503  0.16085760733E+03  0.67314629906E+02 -0.16371793896E+03  0.23923227787E+03  0.47000000000E+01 0.  1.
         11    1    4    4    0    0  0.58726877668E+02  0.13638094145E+02 -0.90215505452E+01  0.60960906709E+02  0.00000000000E+00 0. -1.
        -12    1    4    4    0    0  0.12876822090E+03 -0.62157923550E+02 -0.10478213927E+03  0.17726860660E+03  0.00000000000E+00 0.  1.
</event>
<event>
12    1  0.1032880E+000  0.3724650E+03  0.7818608E-02  0.1053861E+00
         21   -1    0    0  501  502  0.00000000000E+00  0.00000000000E+00  0.65341876990E+03  0.65341876990E+03  0.00000000000E+00 0.  1.
         21   -1    0    0  502  503 -0.00000000000E+00 -0.00000000000E+00 -0.27371744113E+03  0.27371744113E+03  0.00000000000E+00 0. -1.
         -6    2    1    2    0  503  0.24622217236E+03  0.22031095771E+03  0.41033561768E+03  0.55341348879E+03  0.16949600052E+03 0.  0.
        -24    2    3    3    0    0  0.23224270115E+03  0.14125152528E+03  0.37375542100E+03  0.46506180369E+03  0.51968268142E+02 0.  0.
          6    2    1    2  501    0 -0.24622217236E+03 -0.22031095771E+03 -0.30634288907E+02  0.37372272224E+03  0.17195329951E+03 0.  0.
         24    2    5    5    0    0 -0.89467442174E+02 -0.13739328456E+03  0.32979481678E+02  0.18526533245E+03  0.79713608290E+02 0.  0.
          5    1    5    5  501    0 -0.15675473019E+03 -0.82917673150E+02 -0.63613770586E+02  0.18845738978E+03  0.47000000000E+01 0. -1.
        -11    1    6    6    0    0 -0.92244684556E+02 -0.12116965301E+03  0.44777302054E+01  0.15235227831E+03  0.00000000000E+00 0.  1.
         12    1    6    6    0    0  0.27772423823E+01 -0.16223631548E+02  0.28501751473E+02  0.32913054141E+02  0.00000000000E+00 0. -1.
         -5    1    3    3    0  503  0.13979471205E+02  0.79059432423E+02  0.36580196682E+02  0.88351685097E+02  0.47000000000E+01 0.  1.
         11    1    4    4    0    0  0.26641813225E+02 -0.28393032436E+00  0.28338360389E+02  0.38896394407E+02  0.00000000000E+00 0. -1.
        -12    1    4    4    0    0  0.20560088793E+03  0.14153545561E+03  0.34541706061E+03  0.42616540928E+03  0.00000000000E+00 0.  1.
</event>
<event>
12    1  0.1032880E+000  0.1807883E+03  0.7818608E-02  0.1167497E+00
         21   -1    0    0  501  502  0.00000000000E+00  0.00000000000E+00  0.60514798401E+03  0.60514798401E+03  0.00000000000E+00 0. -1.
         21   -1    0    0  502  503 -0.00000000000E+00 -0.00000000000E+00 -0.95847858686E+02  0.95847858686E+02  0.00000000000E+00 0. -1.
         -6    2    1    2    0  503 -0.53063768555E+02 -0.14579399843E+02  0.48701683660E+03  0.51883945282E+03  0.17023705894E+03 0.  0.
        -24    2    3    3    0    0 -0.11322550980E+02 -0.68431982010E+02  0.32937666267E+03  0.34704031345E+03  0.84479920261E+02 0.  0.
          6    2    1    2  501    0  0.53063768555E+02  0.14579399843E+02  0.22283288725E+02  0.18215638988E+03  0.17220941607E+03 0.  0.
         24    2    5    5    0    0 -0.34722860781E+02 -0.11933237672E+02  0.20056090362E+01  0.88120829946E+02  0.80082326268E+02 0.  0.
          5    1    5    5  501    0  0.87786629336E+02  0.26512637515E+02  0.20277679689E+02  0.94035559932E+02  0.47000000000E+01 0. -1.
        -13    1    6    6    0    0 -0.99299143876E+00 -0.23272561108E+02 -0.31545109456E+02  0.39213416876E+02  0.00000000000E+00 0.  1.
         14    1    6    6    0    0 -0.33729869342E+02  0.11339323437E+02  0.33550718492E+02  0.48907413070E+02  0.00000000000E+00 0. -1.
         -5    1    3    3    0  503 -0.41741217575E+02  0.53852582166E+02  0.15764017394E+03  0.17179913937E+03  0.47000000000E+01 0.  1.
         11    1    4    4    0    0 -0.37940957047E+02 -0.66233328443E+02  0.18356494312E+03  0.19880256126E+03  0.00000000000E+00 0. -1.
        -12    1    4    4    0    0  0.26618406067E+02 -0.21986535669E+01  0.14581171954E+03  0.14823775219E+03  0.00000000000E+00 0.  1.
</event>
<event>
12    1  0.1032880E+000  0.1894530E+03  0.7818608E-02  0.1159849E+00
         21   -1    0    0  501  502  0.00000000000E+00  0.00000000000E+00  0.26697812137E+02  0.26697812137E+02  0.00000000000E+00 0. -1.
         21   -1    0    0  502  503 -0.00000000000E+00 -0.00000000000E+00 -0.13939844322E+04  0.13939844322E+04  0.00000000000E+00 0. -1.
         -6    2    1    2    0  503 -0.78414700615E+02 -0.16532363446E+01 -0.50984476853E+03  0.54255984050E+03  0.16816032252E+03 0.  0.
        -24    2    3    3    0    0  0.18868164830E+02  0.45395162233E+02 -0.13927117190E+03  0.15652306992E+03  0.51829371010E+02 0.  0.
          6    2    1    2  501    0  0.78414700615E+02  0.16532363446E+01 -0.85744185154E+03  0.87812240384E+03  0.17245529533E+03 0.  0.
         24    2    5    5    0    0  0.31561960025E+02  0.91515724448E+01 -0.79311618125E+03  0.79805189614E+03  0.82302146828E+02 0.  0.
          5    1    5    5  501    0  0.46852740590E+02 -0.74983361002E+01 -0.64325670292E+02  0.80070507701E+02  0.47000000000E+01 0. -1.
        -13    1    6    6    0    0  0.50532290449E+02  0.24001988659E+02 -0.68516728613E+03  0.68744732003E+03  0.00000000000E+00 0.  1.
         14    1    6    6    0    0 -0.18970330424E+02 -0.14850416215E+02 -0.10794889512E+03  0.11060457611E+03  0.00000000000E+00 0. -1.
         -5    1    3    3    0  503 -0.97282865445E+02 -0.47048398577E+02 -0.37057359663E+03  0.38603677058E+03  0.47000000000E+01 0.  1.
         13    1    4    4    0    0 -0.61286071229E+01  0.35288764781E+02 -0.11427451237E+03  0.11975608929E+03  0.00000000000E+00 0. -1.
        -14    1    4    4    0    0  0.24996771953E+02  0.10106397451E+02 -0.24996659531E+02  0.36766980638E+02  0.00000000000E+00 0.  1.
</event>
<event>
12    1  0.1032880E+000  0.4092445E+03  0.7818608E-02  0.1040736E+00
         21   -1    0    0  501  502  0.00000000000E+00  0.00000000000E+00  0.34720486997E+03  0.34720486997E+03  0.00000000000E+00 0.  1.
         21   -1    0    0  502  503 -0.00000000000E+00 -0.00000000000E+00 -0.50274714100E+03  0.50274714100E+03  0.00000000000E+00 0.  1.
         -6    2    1    2    0  503 -0.35278238108E+03 -0.11555097457E+03  0.10881500081E+02  0.40938913802E+03  0.17226033542E+03 0.  0.
        -24    2    3    3    0    0 -0.25069640727E+03 -0.13116658869E+02 -0.58425936091E+01  0.26373159310E+03  0.80619364555E+02 0.  0.
          6    2    1    2  501    0  0.35278238108E+03  0.11555097457E+03 -0.16642377111E+03  0.44056287295E+03  0.16908973153E+03 0.  0.
         24    2    5    5    0    0  0.17142069651E+03 -0.33739354903E+01 -0.96217756605E+02  0.21255811568E+03  0.80787729423E+02 0.  0.
          5    1    5    5  501    0  0.18136168457E+03  0.11892491006E+03 -0.70206014507E+02  0.22800475727E+03  0.47000000000E+01 0. -1.
        -13    1    6    6    0    0  0.80805171509E+02  0.71222374074E+01 -0.89945399954E+02  0.12112133165E+03  0.00000000000E+00 0.  1.
         14    1    6    6    0    0  0.90615524997E+02 -0.10496172898E+02 -0.62723566510E+01  0.91436784031E+02  0.00000000000E+00 0. -1.
         -5    1    3    3    0  503 -0.10208597381E+03 -0.10243431570E+03  0.16724093691E+02  0.14565754492E+03  0.47000000000E+01 0.  1.
         13    1    4    4    0    0 -0.96289475377E+02 -0.93708224801E-01  0.36693780948E+02  0.10304419154E+03  0.00000000000E+00 0. -1.
        -14    1    4    4    0    0 -0.15440693190E+03 -0.13022950645E+02 -0.42536374558E+02  0.16068740156E+03  0.00000000000E+00 0.  1.
</event>
<event>
12    1  0.1032880E+000  0.1858700E+03  0.7818608E-02  0.1162634E+00
         21   -1    0    0  503  502  0.00000000000E+00  0.00000000000E+00  0.40825512660E+03  0.40825512660E+03  0.00000000000E+00 0.  1.
         21   -1    0    0  501  503 -0.00000000000E+00 -0.00000000000E+00 -0.96629276167E+02  0.96629276167E+02  0.00000000000E+00 0.  1.
          6    2    1    2  501    0  0.69497942415E+02 -0.14449644861E+02  0.24821336127E+03  0.31009275480E+03  0.17178151131E+03 0.  0.
         24    2    3    3    0    0 -0.16281965178E+02 -0.49424787769E+02  0.16729099920E+03  0.18699940871E+03  0.65380336557E+02 0.  0.
         -6    2    1    2    0  502 -0.69497942415E+02  0.14449644861E+02  0.63412489164E+02  0.19479164797E+03  0.16995259957E+03 0.  0.
        -24    2    5    5    0    0 -0.91582365851E+02  0.97980629377E+00  0.93900406100E+02  0.15453296706E+03  0.81699827955E+02 0.  0.
          5    1    3    3  501    0  0.85779907592E+02  0.34975142908E+02  0.80922362078E+02  0.12309334609E+03  0.47000000000E+01 0. -1.
        -13    1    4    4    0    0 -0.16351076422E+02 -0.23601400007E+02  0.14733288502E+02  0.32271559809E+02  0.00000000000E+00 0.  1.
         14    1    4    4    0    0  0.69111244340E-01 -0.25823387762E+02  0.15255771069E+03  0.15472784890E+03  0.00000000000E+00 0. -1.
         -5    1    5    5    0  502  0.22084423437E+02  0.13469838567E+02 -0.30487916937E+02  0.40258680911E+02  0.47000000000E+01 0.  1.
         11    1    6    6    0    0 -0.53361847973E+02 -0.34272588474E+02  0.24895229626E+02  0.68131267403E+02  0.00000000000E+00 0. -1.
        -12    1    6    6    0    0 -0.38220517878E+02  0.35252394767E+02  0.69005176474E+02  0.86401699659E+02  0.00000000000E+00 0.  1.
</event>
<event>
12    1  0.1032880E+000  0.2043575E+03  0.7818608E-02  0.1146197E+00
         21   -1    0    0  503  502  0.00000000000E+00  0.00000000000E+00  0.17488681775E+04  0.17488681775E+04  0.00000000000E+00 0. -1.
         21   -1    0    0  501  503 -0.00000000000E+00 -0.00000000000E+00 -0.11218851640E+03  0.11218851640E+03  0.00000000000E+00 0. -1.
          6    2    1    2  501    0 -0.61137956588E+00  0.10933571801E+03  0.16439663619E+04  0.16565692804E+04  0.17216767695E+03 0.  0.
         24    2    3    3    0    0  0.25603608045E+02  0.13799780647E+03  0.13264257737E+04  0.13366273232E+04  0.86419492078E+02 0.  0.
         -6    2    1    2    0  502  0.61137956588E+00 -0.10933571801E+03 -0.72867007710E+01  0.20448741344E+03  0.17264800384E+03 0.  0.
        -24    2    5    5    0    0 -0.19333010154E+01 -0.68152202328E+02 -0.72893544147E+02  0.12684138804E+03  0.78273933126E+02 0.  0.
          5    1    3    3  501    0 -0.26214987611E+02 -0.28662088462E+02  0.31754058812E+03  0.31994195722E+03  0.47000000000E+01 0. -1.
        -11    1    4    4    0    0 -0.48208754192E+01  0.12856726827E+03  0.91958075388E+03  0.92853731546E+03  0.00000000000E+00 0.  1.
         12    1    4    4    0    0  0.30424483464E+02  0.94305381965E+01  0.40684501986E+03  0.40809000775E+03  0.00000000000E+00 0. -1.
         -5    1    5    5    0  502  0.25446805813E+01 -0.41183515678E+02  0.65606843376E+02  0.77646025401E+02  0.47000000000E+01 0.  1.
         13    1    6    6    0    0 -0.35076167029E+02 -0.11216604331E+02 -0.17519247310E+02  0.40780801028E+02  0.00000000000E+00 0. -1.
        -14    1    6    6    0    0  0.33142866014E+02 -0.56935597997E+02 -0.55374296837E+02  0.86060587014E+02  0.00000000000E+00 0.  1.
</event>
<event>
12    1  0.1032880E+000  0.1780590E+03  0.7818608E-02  0.1169759E+00
         21   -1    0    0  501  502  0.00000000000E+00  0.00000000000E+00  0.67166573953E+03  0.67166573953E+03  0.00000000000E+00 0. -1.
         21   -1    0    0  502  503 -0.00000000000E+00 -0.00000000000E+00 -0.49936066037E+02  0.49936066037E+02  0.00000000000E+00 0. -1.
         -6    2    1    2    0  503 -0.16367128003E+01 -0.46310003265E+02  0.22561573287E+03  0.28741513118E+03  0.17192353964E+03 0.  0.
        -24    2    3    3    0    0 -0.28919397678E+02 -0.75769039461E+02  0.20061290849E+03  0.23988186983E+03  0.10353981609E+03 0.  0.
          6    2    1    2  501    0  0.16367128003E+01  0.46310003265E+02  0.39611394062E+03  0.43418667439E+03  0.17165232020E+03 0.  0.
         24    2    5    5    0    0  0.24682860356E+02  0.38302150134E+02  0.39899874610E+03  0.40917342327E+03  0.78400208021E+02 0.  0.
          5    1    5    5  501    0 -0.23046147555E+02  0.80078531314E+01 -0.28848054786E+01  0.25013251119E+02  0.47000000000E+01 0. -1.
        -13    1    6    6    0    0  0.20622778137E+02 -0.19769463629E+02  0.19316650880E+03  0.19526758767E+03  0.00000000000E+00 0.  1.
         14    1    6    6    0    0  0.40600822185E+01  0.58071613762E+02  0.20583223730E+03  0.21390583560E+03  0.00000000000E+00 0. -1.
         -5    1    3    3    0  503  0.27282684878E+02  0.29459036196E+02  0.25002824379E+02  0.47533261351E+02  0.47000000000E+01 0.  1.
         11    1    4    4    0    0 -0.25516105174E+02 -0.47648161377E+01  0.15095192891E+03  0.15316742454E+03  0.00000000000E+00 0. -1.
        -12    1    4    4    0    0 -0.34032925037E+01 -0.71004223323E+02  0.49660979574E+02  0.86714445290E+02  0.00000000000E+00 0.  1.
</event>
<event>
12    1  0.1032880E+000  0.1809311E+03  0.7818608E-02  0.1166979E+00
         21   -1    0    0  501  502  0.00000000000E+00  0.00000000000E+00  0.52920927588E+02  0.52920927588E+02  0.00000000000E+00 0. -1.
         21   -1    0    0  502  503 -0.00000000000E+00 -0.00000000000E+00 -0.72752303364E+03  0.72752303364E+03  0.00000000000E+00 0. -1.
         -6    2    1    2    0  503  0.53942924195E+02 -0.86977366363E+01 -0.18581456497E+03  0.25935132913E+03  0.17248353449E+03 0.  0.
        -24    2    3    3    0    0 -0.26394621178E+02 -0.41500952044E+02 -0.11547745328E+03  0.14754984694E+03  0.77568744149E+02 0.  0.
          6    2    1    2  501    0 -0.53942924195E+02  0.86977366363E+01 -0.48878754108E+03  0.52109263210E+03  0.17215917409E+03 0.  0.
         24    2    5    5    0    0 -0.57555495807E+02  0.26504981611E+02 -0.49173190198E+03  0.50209505572E+03  0.79271889139E+02 0.  0.
          5    1    5    5  501    0  0.36125716129E+01 -0.17807244974E+02  0.29443608993E+01  0.18997576381E+02  0.47000000000E+01 0. -1.
        -13    1    6    6    0    0 -0.45697711054E+02  0.92660292686E+01 -0.10607297873E+03  0.11586896440E+03  0.00000000000E+00 0.  1.
         14    1    6    6    0    0 -0.11857784753E+02  0.17238952342E+02 -0.38565892325E+03  0.38622609132E+03  0.00000000000E+00 0. -1.
         -5    1    3    3    0  503  0.80337545372E+02  0.32803215408E+02 -0.70337111693E+02  0.11180148219E+03  0.47000000000E+01 0.  1.
         11    1    4    4    0    0 -0.54768373974E+01 -0.50643999838E+02 -0.11377498875E+03  0.12465776563E+03  0.00000000000E+00 0. -1.
        -12    1    4    4    0    0 -0.20917783780E+02  0.91430477938E+01 -0.17024645309E+01  0.22892081310E+02  0.00000000000E+00 0.  1.
</event>
<event>
12    1  0.1032880E+000  0.2082815E+03  0.7818608E-02  0.1142969E+00
         21   -1    0    0  503  502  0.00000000000E+00  0.00000000000E+00  0.44945696534E+03  0.44945696534E+03  0.00000000000E+00 0.  1.
         21   -1    0    0  501  503 -0.00000000000E+00 -0.00000000000E+00 -0.10205058732E+03  0.10205058732E+03  0.00000000000E+00 0.  1.
          6    2    1    2  501    0  0.11476561248E+03  0.21669421851E+02  0.23830615453E+03  0.31638193329E+03  0.17224109490E+03 0.  0.
         24    2    3    3    0    0  0.94443910704E+02  0.65020725418E+02  0.10566087101E+03  0.17528208097E+03  0.80076471226E+02 0.  0.
         -6    2    1    2    0  502 -0.11476561248E+03 -0.21669421851E+02  0.10910022349E+03  0.23512561936E+03  0.17245430834E+03 0.  0.
        -24    2    5    5    0    0 -0.11821982603E+03 -0.28022721268E+02  0.21653005510E+02  0.14725411126E+03  0.80335051263E+02 0.  0.
          5    1    3    3  501    0  0.20321701778E+02 -0.43351303567E+02  0.13264528352E+03  0.14109985232E+03  0.47000000000E+01 0. -1.
        -11    1    4    4    0    0 -0.30154847425E+01  0.35285761865E+02  0.42822373068E+02  0.55569180071E+02  0.00000000000E+00 0.  1.
         12    1    4    4    0    0  0.97459395447E+02  0.29734963553E+02  0.62838497945E+02  0.11971290090E+03  0.00000000000E+00 0. -1.
         -5    1    5    5    0  502  0.34542135455E+01  0.63532994166E+01  0.87447217978E+02  0.87871508106E+02  0.47000000000E+01 0.  1.
         11    1    6    6    0    0 -0.23345370649E+02 -0.43641528105E+02  0.81168790730E+01  0.50154491642E+02  0.00000000000E+00 0. -1.
        -12    1    6    6    0    0 -0.94874455379E+02  0.15618806837E+02  0.13536126437E+02  0.97099619615E+02  0.00000000000E+00 0.  1.
</event>
<event>
12    1  0.1032880E+000  0.3486523E+03  0.7818608E-02  0.1063915E+00
         21   -1    0    0  503  502  0.00000000000E+00  0.00000000000E+00  0.11541607356E+04  0.11541607356E+04  0.00000000000E+00 0. -1.
         21   -1    0    0  501  503 -0.00000000000E+00 -0.00000000000E+00 -0.23054080343E+03  0.23054080343E+03  0.00000000000E+00 0.  1.
          6    2    1    2  501    0  0.21744858936E+03 -0.19944638575E+03  0.97855705707E+03  0.10388129560E+04  0.18573016368E+03 0.  0.
         24    2    3    3    0    0  0.92525850495E+02 -0.12821590560E+02  0.30918465177E+03  0.33275629261E+03  0.80038585621E+02 0.  0.
         -6    2    1    2    0  502 -0.21744858936E+03  0.19944638575E+03 -0.54937124944E+02  0.34588858304E+03  0.17192461830E+03 0.  0.
        -24    2    5    5    0    0 -0.70071707886E+02  0.10327539005E+03  0.29987903509E+02  0.15043230644E+03  0.78452240417E+02 0.  0.
          5    1    3    3  501    0  0.12492273887E+03 -0.18662479519E+03  0.66937240530E+03  0.70605666334E+03  0.47000000000E+01 0. -1.
        -11    1    4    4    0    0  0.10163721757E+03  0.72112456636E+00  0.29139776637E+03  0.30861513615E+03  0.00000000000E+00 0.  1.
         12    1    4    4    0    0 -0.91113670774E+01 -0.13542715127E+02  0.17786885402E+02  0.24141156462E+02  0.00000000000E+00 0. -1.
         -5    1    5    5    0  502 -0.14737688147E+03  0.96170995696E+02 -0.84925028453E+02  0.19545627660E+03  0.47000000000E+01 0.  1.
         13    1    6    6    0    0 -0.50901737044E+02  0.11054572361E+02  0.19662461321E+02  0.55675872596E+02  0.00000000000E+00 0. -1.
        -14    1    6    6    0    0 -0.19169970843E+02  0.92220817693E+02  0.10325442188E+02  0.94756433842E+02  0.00000000000E+00 0.  1.
</event>
<event>
12    1  0.1032880E+000  0.2533176E+03  0.7818608E-02  0.1112657E+00
         21   -1    0    0  501  502  0.00000000000E+00  0.00000000000E+00  0.18555284258E+03  0.18555284258E+03  0.00000000000E+00 0.  1.
         21   -1    0    0  502  503 -0.00000000000E+00 -0.00000000000E+00 -0.39930614062E+03  0.39930614062E+03  0.00000000000E+00 0.  1.
         -6    2    1    2    0  503  0.93981136183E+02 -0.15996701893E+03 -0.22709881422E+03  0.34021122129E+03  0.17247580284E+03 0.  0.
        -24    2    3    3    0    0 -0.33299106940E+01 -0.11785111072E+03 -0.15100645336E+03  0.20961517636E+03  0.85062333632E+02 0.  0.
          6    2    1    2  501    0 -0.93981136183E+02  0.15996701893E+03  0.13345516189E+02  0.24464776191E+03  0.15891042603E+03 0.  0.
         24    2    5    5    0    0 -0.56994728070E+02  0.11031530757E+03  0.67001547867E+02  0.16258469737E+03  0.80788057843E+02 0.  0.
          5    1    5    5  501    0 -0.36986408112E+02  0.49651711367E+02 -0.53656031678E+02  0.82063064543E+02  0.47000000000E+01 0. -1.
        -11    1    6    6    0    0 -0.16062180332E+02  0.67056068534E+02 -0.50125338568E+01  0.69134907680E+02  0.00000000000E+00 0.  1.
         12    1    6    6    0    0 -0.40932547738E+02  0.43259239034E+02  0.72014081724E+02  0.93449789687E+02  0.00000000000E+00 0. -1.
         -5    1    3    3    0  503  0.97311046877E+02 -0.42115908218E+02 -0.76092360861E+02  0.13059604493E+03  0.47000000000E+01 0.  1.
         11    1    4    4    0    0 -0.68027019872E+01 -0.18879574962E+02  0.85583166091E+01  0.21816504950E+02  0.00000000000E+00 0. -1.
        -12    1    4    4    0    0  0.34727912932E+01 -0.98971535755E+02 -0.15956476997E+03  0.18779867141E+03  0.00000000000E+00 0.  1.
</event>
<event>
12    1  0.1032880E+000  0.2237296E+03  0.7818608E-02  0.1132019E+00
         21   -1    0    0  503  502  0.00000000000E+00  0.00000000000E+00  0.87155184249E+02  0.87155184249E+02  0.00000000000E+00 0.  1.
         21   -1    0    0  501  503 -0.00000000000E+00 -0.00000000000E+00 -0.10491441636E+04  0.10491441636E+04  0.00000000000E+00 0.  1.
          6    2    1    2  501    0 -0.77543916792E+02 -0.11986825010E+03 -0.91086638121E+02  0.23711871708E+03  0.16597305182E+03 0.  0.
         24    2    3    3    0    0 -0.17928280177E+02 -0.12639526097E+03 -0.36765752364E+02  0.15606642143E+03  0.81901295024E+02 0.  0.
         -6    2    1    2    0  502  0.77543916792E+02  0.11986825010E+03 -0.87090234126E+03  0.89918063081E+03  0.17225986877E+03 0.  0.
        -24    2    5    5    0    0  0.79981214157E+02  0.53934444827E+02 -0.29481667635E+03  0.31930996384E+03  0.75736790225E+02 0.  0.
          5    1    3    3  501    0 -0.59615636615E+02  0.65270108651E+01 -0.54320885757E+02  0.81052295645E+02  0.47000000000E+01 0. -1.
        -13    1    4    4    0    0  0.13295518055E+02  0.38061573637E+01 -0.15023365317E+02  0.20419577363E+02  0.00000000000E+00 0.  1.
         14    1    4    4    0    0 -0.31223798232E+02 -0.13020141833E+03 -0.21742387047E+02  0.13564684407E+03  0.00000000000E+00 0. -1.
         -5    1    5    5    0  502 -0.24372973650E+01  0.65933805274E+02 -0.57608566491E+03  0.57987066697E+03  0.47000000000E+01 0.  1.
         11    1    6    6    0    0  0.62918292071E+02  0.73452977052E+02 -0.23141072414E+03  0.25080864132E+03  0.00000000000E+00 0. -1.
        -12    1    6    6    0    0  0.17062922085E+02 -0.19518532226E+02 -0.63405952213E+02  0.68501322516E+02  0.00000000000E+00 0.  1.
</event>
<event>
12    1  0.1032880E+000  0.2023008E+03  0.7818608E-02  0.1148163E+00
         21   -1    0    0  501  502  0.00000000000E+00  0.00000000000E+00  0.23405936716E+03  0.23405936716E+03  0.00000000000E+00 0.  1.
         21   -1    0    0  502  503 -0.00000000000E+00 -0.00000000000E+00 -0.40084969992E+03  0.40084969992E+03  0.00000000000E+00 0.  1.
         -6    2    1    2    0  503 -0.48858949427E+02  0.97676804401E+02  0.15588396056E+03  0.25406222673E+03  0.16828502855E+03 0.  0.
        -24    2    3    3    0    0 -0.12143805375E+02  0.86667188566E+02  0.17345508286E+03  0.21163525674E+03  0.83929390228E+02 0.  0.
          6    2    1    2  501    0  0.48858949427E+02 -0.97676804401E+02 -0.32267429332E+03  0.38084684036E+03  0.17028699652E+03 0.  0.
         24    2    5    5    0    0  0.62673635364E+02 -0.52704668272E+02 -0.96930051168E+02  0.15020449507E+03  0.80375300261E+02 0.  0.
          5    1    5    5  501    0 -0.13814685937E+02 -0.44972136129E+02 -0.22574424215E+03  0.23064234529E+03  0.47000000000E+01 0. -1.
        -11    1    6    6    0    0  0.18711026249E+02 -0.13883585803E+02  0.12209416100E+02  0.26304492003E+02  0.00000000000E+00 0.  1.
         12    1    6    6    0    0  0.43962609115E+02 -0.38821082469E+02 -0.10913946727E+03  0.12390000307E+03  0.00000000000E+00 0. -1.
         -5    1    3    3    0  503 -0.36715144052E+02  0.11009615834E+02 -0.17571122300E+02  0.42426969989E+02  0.47000000000E+01 0.  1.
         13    1    4    4    0    0  0.97779765150E+01  0.33153342561E+02  0.14130133760E+03  0.14546759417E+03  0.00000000000E+00 0. -1.
        -14    1    4    4    0    0 -0.21921781890E+02  0.53513846005E+02  0.32153745261E+02  0.66167662569E+02  0.00000000000E+00 0.  1.
</event>
<event>
12    1  0.1032880E+000  0.2364379E+03  0.7818608E-02  0.1122475E+00
         21   -1    0    0  503  502  0.00000000000E+00  0.00000000000E+00  0.51106140530E+03  0.51106140530E+03  0.00000000000E+00 0.  1.
         21   -1    0    0  501  503 -0.00000000000E+00 -0.00000000000E+00 -0.13536292800E+03  0.13536292800E+03  0.00000000000E+00 0.  1.
          6    2    1    2  501    0  0.15320242508E+03  0.45070703805E+02  0.44700256825E+02  0.24062622006E+03  0.17435743008E+03 0.  0.
         24    2    3    3    0    0  0.12931617668E+03 -0.39090586255E+01  0.83860311260E+02  0.17335683732E+03  0.79259617392E+02 0.  0.
         -6    2    1    2    0  502 -0.15320242508E+03 -0.45070703805E+02  0.33099822047E+03  0.40579811324E+03  0.17207537698E+03 0.  0.
        -24    2    5    5    0    0 -0.16398874471E+03 -0.75471755098E+02  0.25050244025E+03  0.31895210445E+03  0.79941717198E+02 0.  0.
          5    1    3    3  501    0  0.23886248403E+02  0.48979762431E+02 -0.39160054435E+02  0.67269382738E+02  0.47000000000E+01 0. -1.
        -13    1    4    4    0    0  0.26554533884E+02 -0.35356957697E+02  0.26249814531E+02  0.51422859608E+02  0.00000000000E+00 0.  1.
         14    1    4    4    0    0  0.10276164280E+03  0.31447899072E+02  0.57610496729E+02  0.12193397771E+03  0.00000000000E+00 0. -1.
         -5    1    5    5    0  502  0.10786319626E+02  0.30401051293E+02  0.80495780220E+02  0.86846008797E+02  0.47000000000E+01 0.  1.
         11    1    6    6    0    0 -0.11850823264E+03 -0.61190086135E+02  0.11780059242E+03  0.17794776599E+03  0.00000000000E+00 0. -1.
        -12    1    6    6    0    0 -0.45480512071E+02 -0.14281668964E+02  0.13270184783E+03  0.14100433846E+03  0.00000000000E+00 0.  1.
</event>
<event>
12    1  0.1032880E+000  0.1951580E+03  0.7818608E-02  0.1158664E+00
         21   -1    0    0  503  502  0.00000000000E+00  0.00000000000E+00  0.35215488839E+02  0.35215488839E+02  0.00000000000E+00 0.  1.
         21   -1    0    0  501  503 -0.00000000000E+00 -0.00000000000E+00 -0.10415341447E+04  0.10415341447E+04  0.00000000000E+00 0.  1.
          6    2    1    2  501    0  0.24564596924E+02 -0.14513287228E+02 -0.38854851112E+03  0.43480637705E+03  0.19306109163E+03 0.  0.
         24    2    3    3    0    0  0.90118511388E+02  0.49389495835E+01 -0.29757554423E+03  0.32090345381E+03  0.79259591355E+02 0.  0.
         -6    2    1    2    0  502 -0.24564596924E+02  0.14513287228E+02 -0.61777014469E+03  0.64194325644E+03  0.17215440131E+03 0.  0.
        -24    2    5    5    0    0  0.11848167337E+02 -0.41586014559E+02 -0.21644309088E+03  0.23505443234E+03  0.80828206059E+02 0.  0.
          5    1    3    3  501    0 -0.65553914465E+02 -0.19452236812E+02 -0.90972966890E+02  0.11390292324E+03  0.47000000000E+01 0. -1.
        -11    1    4    4    0    0  0.50427068867E+02 -0.24831420718E+02 -0.80192578541E+02  0.97930273065E+02  0.00000000000E+00 0.  1.
         12    1    4    4    0    0  0.39691442521E+02  0.29770370302E+02 -0.21738296569E+03  0.22297318074E+03  0.00000000000E+00 0. -1.
         -5    1    5    5    0  502 -0.36412764261E+02  0.56099301787E+02 -0.40132705381E+03  0.40688882411E+03  0.47000000000E+01 0.  1.
         13    1    6    6    0    0 -0.26788322666E+00  0.75916796025E+01  0.41949845732E+01  0.86777448786E+01  0.00000000000E+00 0. -1.
        -14    1    6    6    0    0  0.12116050564E+02 -0.49177694161E+02 -0.22063807545E+03  0.22637668746E+03  0.00000000000E+00 0.  1.
</event>
<event>
12    1  0.1032880E+000  0.2133016E+03  0.7818608E-02  0.1139233E+00
         21   -1    0    0  501  502  0.00000000000E+00  0.00000000000E+00  0.34826096001E+02  0.34826096001E+02  0.00000000000E+00 0.  1.
         21   -1    0    0  502  503 -0.00000000000E+00 -0.00000000000E+00 -0.32137552521E+04  0.32137552521E+04  0.00000000000E+00 0.  1.
         -6    2    1    2    0  503  0.36779413155E+02 -0.12099690309E+03 -0.33749344327E+03  0.39924852663E+03  0.17176899016E+03 0.  0.
        -24    2    3    3    0    0  0.46342536984E+02 -0.62200078451E+01 -0.19608862386E+03  0.21681332726E+03  0.79818238745E+02 0.  0.
          6    2    1    2  501    0 -0.36779413155E+02  0.12099690309E+03 -0.28414357128E+04  0.28493328214E+04  0.17014006451E+03 0.  0.
         24    2    5    5    0    0 -0.13147827193E+02  0.14956297505E+03 -0.25111801654E+04  0.25169696332E+04  0.81045433972E+02 0.  0.
          5    1    5    5  501    0 -0.23631585962E+02 -0.28566071956E+02 -0.33025554738E+03  0.33236318825E+03  0.47000000000E+01 0. -1.
        -11    1    6    6    0    0  0.10390217402E+02  0.32207725469E+02 -0.21273097496E+03  0.21540603962E+03  0.00000000000E+00 0.  1.
         12    1    6    6    0    0 -0.23538044595E+02  0.11735524958E+03 -0.22984491905E+04  0.23015635936E+04  0.00000000000E+00 0. -1.
         -5    1    3    3    0  503 -0.95631238286E+01 -0.11477689525E+03 -0.14140481940E+03  0.18243519937E+03  0.47000000000E+01 0.  1.
         13    1    4    4    0    0 -0.22059496936E+02  0.37744760313E+01 -0.62728708796E+02  0.66601493839E+02  0.00000000000E+00 0. -1.
        -14    1    4    4    0    0  0.68402033920E+02 -0.99944838764E+01 -0.13335991507E+03  0.15021183342E+03  0.00000000000E+00 0.  1.
</event>
<event>
12    1  0.1032880E+000  0.2342053E+03  0.7818608E-02  0.1124043E+00
         21   -1    0    0  501  502  0.00000000000E+00  0.00000000000E+00  0.15702461297E+03  0.15702461297E+03  0.00000000000E+00 0.  1.
         21   -1    0    0  502  503 -0.00000000000E+00 -0.00000000000E+00 -0.42399119244E+03  0.42399119244E+03  0.00000000000E+00 0.  1.
         -6    2    1    2    0  503 -0.13237832551E+03  0.83285364608E+02 -0.25724359698E+03  0.34660872725E+03  0.17176399099E+03 0.  0.
        -24    2    3    3    0    0 -0.23067900274E+02  0.88204585802E+02 -0.11872934249E+03  0.17002657499E+03  0.80623833042E+02 0.  0.
          6    2    1    2  501    0  0.13237832551E+03 -0.83285364608E+02 -0.97229824895E+01  0.23440707815E+03  0.17433206496E+03 0.  0.
         24    2    5    5    0    0  0.16973265528E+02 -0.50027444423E+02  0.40822310052E+02  0.10401791555E+03  0.79764834477E+02 0.  0.
          5    1    5    5  501    0  0.11540505998E+03 -0.33257920185E+02 -0.50545292542E+02  0.13038916260E+03  0.47000000000E+01 0. -1.
        -13    1    6    6    0    0 -0.17977244395E+02  0.74860184234E+01  0.30127325598E+02  0.35873075357E+02  0.00000000000E+00 0.  1.
         14    1    6    6    0    0  0.34950509923E+02 -0.57513462846E+02  0.10694984455E+02  0.68144840193E+02  0.00000000000E+00 0. -1.
         -5    1    3    3    0  503 -0.10931042524E+03 -0.49192211936E+01 -0.13851425449E+03  0.17658215227E+03  0.47000000000E+01 0.  1.
         13    1    4    4    0    0 -0.12530425406E+02  0.74493652122E+02 -0.32764464185E+02  0.82339698085E+02  0.00000000000E+00 0. -1.
        -14    1    4    4    0    0 -0.10537474867E+02  0.13710933680E+02 -0.85964878305E+02  0.87686876903E+02  0.00000000000E+00 0.  1.
</event>
<event>
12    1  0.1032880E+000  0.2096059E+03  0.7818608E-02  0.1142511E+00
         21   -1    0    0  501  502  0.00000000000E+00  0.00000000000E+00  0.98909182983E+02  0.98909182983E+02  0.00000000000E+00 0.  1.
         21   -1    0    0  502  503 -0.00000000000E+00 -0.00000000000E+00 -0.67615874133E+03  0.67615874133E+03  0.00000000000E+00 0.  1.
         -6    2    1    2    0  503  0.11236972722E+03 -0.25159742673E+02 -0.56981076893E+02  0.21416337776E+03  0.17134509331E+03 0.  0.
        -24    2    3    3    0    0  0.39258667210E+02  0.37566689460E+02 -0.67666224950E+02  0.11712681366E+03  0.78660494344E+02 0.  0.
          6    2    1    2  501    0 -0.11236972722E+03  0.25159742673E+02 -0.52026848145E+03  0.56090454655E+03  0.17514179771E+03 0.  0.
         24    2    5    5    0    0 -0.18646478999E+02  0.22878771848E+02 -0.39612944894E+03  0.40527087578E+03  0.80341851232E+02 0.  0.
          5    1    5    5  501    0 -0.93723248220E+02  0.22809708244E+01 -0.12413903252E+03  0.15563367077E+03  0.47000000000E+01 0. -1.
        -13    1    6    6    0    0 -0.38028158960E+02 -0.11996498267E+02 -0.27144209930E+03  0.27435537195E+03  0.00000000000E+00 0.  1.
         14    1    6    6    0    0  0.19381679961E+02  0.34875270116E+02 -0.12468734963E+03  0.13091550383E+03  0.00000000000E+00 0. -1.
         -5    1    3    3    0  503  0.73111060009E+02 -0.62726432133E+02  0.10685148056E+02  0.97036564102E+02  0.47000000000E+01 0.  1.
         11    1    4    4    0    0 -0.24157960561E+02  0.77663529237E+01 -0.21018623050E+02  0.32950050245E+02  0.00000000000E+00 0. -1.
        -12    1    4    4    0    0  0.63416627771E+02  0.29800336536E+02 -0.46647601900E+02  0.84176763412E+02  0.00000000000E+00 0.  1.
</event>
<event>
12    1  0.1032880E+000  0.2151446E+03  0.7818608E-02  0.1137643E+00
         21   -1    0    0  503  502  0.00000000000E+00  0.00000000000E+00  0.12522204730E+03  0.12522204730E+03  0.00000000000E+00 0.  1.
         21   -1    0    0  501  503 -0.00000000000E+00 -0.00000000000E+00 -0.95316253670E+03  0.95316253670E+03  0.00000000000E+00 0.  1.
          6    2    1    2  501    0 -0.56048991723E+02  0.11608290312E+03  0.83609598167E+01  0.21485271149E+03  0.17168299891E+03 0.  0.
         24    2    3    3    0    0 -0.63986480821E+02  0.95656696107E+02 -0.52533916510E+02  0.14996427161E+03  0.80529479935E+02 0.  0.
         -6    2    1    2    0  502  0.56048991723E+02 -0.11608290312E+03 -0.83630144922E+03  0.86353187252E+03  0.17225112776E+03 0.  0.
        -24    2    5    5    0    0  0.53987265565E+02 -0.14017704950E+03 -0.51160046441E+03  0.53789772483E+03  0.70955599772E+02 0.  0.
          5    1    3    3  501    0  0.79374890979E+01  0.20426207014E+02  0.60894876327E+02  0.64888439872E+02  0.47000000000E+01 0. -1.
        -13    1    4    4    0    0  0.17978733345E+02  0.14654411312E+02 -0.18897150635E+02  0.29918036796E+02  0.00000000000E+00 0.  1.
         14    1    4    4    0    0 -0.81965214166E+02  0.81002284796E+02 -0.33636765875E+02  0.12004623482E+03  0.00000000000E+00 0. -1.
         -5    1    5    5    0  502  0.20617261579E+01  0.24094146382E+02 -0.32470098481E+03  0.32563414769E+03  0.47000000000E+01 0.  1.
         11    1    6    6    0    0  0.16886536866E+02 -0.21009334227E+02 -0.29747184030E+02  0.40142772821E+02  0.00000000000E+00 0. -1.
        -12    1    6    6    0    0  0.37100728698E+02 -0.11916771528E+03 -0.48185328038E+03  0.49775495200E+03  0.00000000000E+00 0.  1.
</event>
<event>
12    1  0.1032880E+000  0.2624285E+03  0.7818608E-02  0.1105746E+00
         21   -1    0    0  503  502  0.00000000000E+00  0.00000000000E+00  0.44402745105E+03  0.44402745105E+03  0.00000000000E+00 0.  1.
         21   -1    0    0  501  503 -0.00000000000E+00 -0.00000000000E+00 -0.16897190335E+03  0.16897190335E+03  0.00000000000E+00 0.  1.
          6    2    1    2  501    0 -0.45456573591E+02  0.19267474825E+03  0.48960265746E+02  0.26660680614E+03  0.17173299846E+03 0.  0.
         24    2    3    3    0    0 -0.18632855015E+01  0.26288416589E+02 -0.68497602511E+01  0.85715581550E+02  0.81275390035E+02 0.  0.
         -6    2    1    2    0  502  0.45456573591E+02 -0.19267474825E+03  0.22609528196E+03  0.34639254826E+03  0.17227554170E+03 0.  0.
        -24    2    5    5    0    0  0.53555001224E+02 -0.19697255668E+03  0.14131390767E+03  0.26098747163E+03  0.80489214213E+02 0.  0.
          5    1    3    3  501    0 -0.43593288090E+02  0.16638633167E+03  0.55810025997E+02  0.18089122459E+03  0.47000000000E+01 0. -1.
        -13    1    4    4    0    0 -0.18959068431E+02  0.17431694208E+02  0.32761521970E+02  0.41672863599E+02  0.00000000000E+00 0.  1.
         14    1    4    4    0    0  0.17095782930E+02  0.88567223810E+01 -0.39611282221E+02  0.44042717951E+02  0.00000000000E+00 0. -1.
         -5    1    5    5    0  502 -0.80984276333E+01  0.42978084304E+01  0.84781374286E+02  0.85405076625E+02  0.47000000000E+01 0.  1.
         13    1    6    6    0    0  0.15023224357E+02 -0.12528746242E+03  0.42891865885E+02  0.13327549538E+03  0.00000000000E+00 0. -1.
        -14    1    6    6    0    0  0.38531776867E+02 -0.71685094261E+02  0.98422041789E+02  0.12771197625E+03  0.00000000000E+00 0.  1.
</event>
<event>
12    1  0.1032880E+000  0.4431638E+03  0.7818608E-02  0.1029869E+00
         21   -1    0    0  501  502  0.00000000000E+00  0.00000000000E+00  0.40125967731E+03  0.40125967731E+03  0.00000000000E+00 0. -1.
         21   -1    0    0  502  503 -0.00000000000E+00 -0.00000000000E+00 -0.95047507754E+03  0.95047507754E+03  0.00000000000E+00 0.  1.
         -6    2    1    2    0  503  0.17221411161E+03 -0.36978243586E+03 -0.74615995569E+03  0.86784145685E+03  0.17319747299E+03 0.  0.
        -24    2    3    3    0    0  0.18310142907E+02 -0.14790488599E+03 -0.35128512538E+03  0.38944381856E+03  0.77808302018E+02 0.  0.
          6    2    1    2  501    0 -0.17221411161E+03  0.36978243586E+03  0.19694455546E+03  0.48389329801E+03  0.17020227914E+03 0.  0.
         24    2    5    5    0    0 -0.34469633145E+02  0.20924685047E+03  0.63916459503E+02  0.23396574883E+03  0.75380752110E+02 0.  0.
          5    1    5    5  501    0 -0.13774447847E+03  0.16053558538E+03  0.13302809596E+03  0.24992754917E+03  0.47000000000E+01 0. -1.
        -11    1    6    6    0    0 -0.35934946171E+02  0.21540210971E+03  0.59805116560E+02  0.22642005474E+03  0.00000000000E+00 0.  1.
         12    1    6    6    0    0  0.14653130257E+01 -0.61552592336E+01  0.41113429431E+01  0.75456940895E+01  0.00000000000E+00 0. -1.
         -5    1    3    3    0  503  0.15390396870E+03 -0.22187754987E+03 -0.39487483030E+03  0.47839763829E+03  0.47000000000E+01 0.  1.
         11    1    4    4    0    0 -0.14445744013E+02 -0.14164221956E+02 -0.10815155797E+03  0.11002756107E+03  0.00000000000E+00 0. -1.
        -12    1    4    4    0    0  0.32755886919E+02 -0.13374066403E+03 -0.24313356741E+03  0.27941625748E+03  0.00000000000E+00 0.  1.
</event>
<event>
12    1  0.1032880E+000  0.1931136E+03  0.7818608E-02  0.1156009E+00
         21   -1    0    0  503  502  0.00000000000E+00  0.00000000000E+00  0.17716748630E+03  0.17716748630E+03  0.00000000000E+00 0. -1.
         21   -1    0    0  501  503 -0.00000000000E+00 -0.00000000000E+00 -0.47756976501E+03  0.47756976501E+03  0.00000000000E+00 0. -1.
          6    2    1    2  501    0  0.84961119686E+02  0.77612369260E+01 -0.39549525473E+03  0.43948034425E+03  0.17160375232E+03 0.  0.
         24    2    3    3    0    0  0.86131279901E+02 -0.47896677240E+02 -0.21477192818E+03  0.25031855254E+03  0.82581520588E+02 0.  0.
         -6    2    1    2    0  502 -0.84961119686E+02 -0.77612369260E+01  0.95092976023E+02  0.21525690705E+03  0.17324616385E+03 0.  0.
        -24    2    5    5    0    0 -0.68791103299E+02  0.19854266941E+02  0.12882358209E+03  0.16852437803E+03  0.81722352385E+02 0.  0.
          5    1    3    3  501    0 -0.11701602143E+01  0.55657914166E+02 -0.18072332655E+03  0.18916179171E+03  0.47000000000E+01 0. -1.
        -11    1    4    4    0    0  0.54305963792E+02  0.16064731085E+02 -0.10606791348E+03  0.12023982517E+03  0.00000000000E+00 0.  1.
         12    1    4    4    0    0  0.31825316108E+02 -0.63961408326E+02 -0.10870401470E+03  0.13007872736E+03  0.00000000000E+00 0. -1.
         -5    1    5    5    0  502 -0.16170016387E+02 -0.27615503867E+02 -0.33730606062E+02  0.46732529025E+02  0.47000000000E+01 0.  1.
         13    1    6    6    0    0  0.13309130248E+02  0.57795481913E+01 -0.70134599279E+00  0.14526803209E+02  0.00000000000E+00 0. -1.
        -14    1    6    6    0    0 -0.82100233547E+02  0.14074718749E+02  0.12952492808E+03  0.15399757482E+03  0.00000000000E+00 0.  1.
</event>
<event>
12    1  0.1032880E+000  0.1726469E+03  0.7818608E-02  0.1175777E+00
         21   -1    0    0  501  502  0.00000000000E+00  0.00000000000E+00  0.77415881690E+03  0.77415881690E+03  0.00000000000E+00 0.  1.
         21   -1    0    0  502  503 -0.00000000000E+00 -0.00000000000E+00 -0.44528712639E+02  0.44528712639E+02  0.00000000000E+00 0.  1.
         -6    2    1    2    0  503 -0.39957552934E+01  0.62009619305E+01  0.52004186676E+03  0.54714712429E+03  0.16991766963E+03 0.  0.
        -24    2    3    3    0    0 -0.62982750891E+02 -0.12745679418E+02  0.38558422837E+03  0.39902762055E+03  0.80115950607E+02 0.  0.
          6    2    1    2  501    0  0.39957552934E+01 -0.62009619305E+01  0.20958823751E+03  0.27154040525E+03  0.17248925877E+03 0.  0.
         24    2    5    5    0    0 -0.35578902101E+02  0.59527215243E+01  0.21286585673E+03  0.22974688521E+03  0.78552308276E+02 0.  0.
          5    1    5    5  501    0  0.39574657394E+02 -0.12153683455E+02 -0.32776192205E+01  0.41793520038E+02  0.47000000000E+01 0. -1.
        -11    1    6    6    0    0 -0.28672410567E+02 -0.32633274194E+02  0.77779771421E+02  0.89088330070E+02  0.00000000000E+00 0.  1.
         12    1    6    6    0    0 -0.69064915341E+01  0.38585995719E+02  0.13508608531E+03  0.14065855514E+03  0.00000000000E+00 0. -1.
         -5    1    3    3    0  503  0.58986995597E+02  0.18946641349E+02  0.13445763839E+03  0.14811950374E+03  0.47000000000E+01 0.  1.
         11    1    4    4    0    0 -0.74059209971E+02  0.20942785036E-01  0.36478465836E+03  0.37222656272E+03  0.00000000000E+00 0. -1.
        -12    1    4    4    0    0  0.11076459080E+02 -0.12766622203E+02  0.20799570010E+02  0.26801057830E+02  0.00000000000E+00 0.  1.
</event>
<event>
12    1  0.1032880E+000  0.1928174E+03  0.7818608E-02  0.1156079E+00
         21   -1    0    0  503  502  0.00000000000E+00  0.00000000000E+00  0.38181435271E+03  0.38181435271E+03  0.00000000000E+00 0. -1.
         21   -1    0    0  501  503 -0.00000000000E+00 -0.00000000000E+00 -0.98839649810E+02  0.98839649810E+02  0.00000000000E+00 0. -1.
          6    2    1    2  501    0  0.86276793721E+02 -0.11378353192E+02  0.10951696131E+03  0.22174877214E+03  0.17206220119E+03 0.  0.
         24    2    3    3    0    0  0.54371074177E+02  0.45808124303E+02  0.17706217788E+02  0.10887906508E+03  0.80539075634E+02 0.  0.
         -6    2    1    2    0  502 -0.86276793721E+02  0.11378353192E+02  0.17345774159E+03  0.25890523038E+03  0.17138021514E+03 0.  0.
        -24    2    5    5    0    0 -0.14083300156E+02 -0.25527481805E+02  0.14903801569E+03  0.17409748201E+03  0.85132904625E+02 0.  0.
          5    1    3    3  501    0  0.31905719544E+02 -0.57186477495E+02  0.91810743520E+02  0.11286970707E+03  0.47000000000E+01 0. -1.
        -11    1    4    4    0    0  0.29329882169E+02  0.64709514325E+02  0.27238875705E+02  0.76088892632E+02  0.00000000000E+00 0.  1.
         12    1    4    4    0    0  0.25041192008E+02 -0.18901390022E+02 -0.95326579161E+01  0.32790172444E+02  0.00000000000E+00 0. -1.
         -5    1    5    5    0  502 -0.72193493564E+02  0.36905834998E+02  0.24419725897E+02  0.84807748365E+02  0.47000000000E+01 0.  1.
         13    1    6    6    0    0 -0.28922263615E+02 -0.41285361572E+02  0.44179878624E+02  0.67028651247E+02  0.00000000000E+00 0. -1.
        -14    1    6    6    0    0  0.14838963459E+02  0.15757879767E+02  0.10485813707E+03  0.10706883076E+03  0.00000000000E+00 0.  1.
</event>
<event>
12    1  0.1032880E+000  0.2054306E+03  0.7818608E-02  0.1145423E+00
         21   -1    0    0  501  502  0.00000000000E+00  0.00000000000E+00  0.60594257897E+03  0.60594257897E+03  0.00000000000E+00 0. -1.
         21   -1    0    0  502  503 -0.00000000000E+00 -0.00000000000E+00 -0.73080640138E+02  0.73080640138E+02  0.00000000000E+00 0. -1.
         -6    2    1    2    0  503  0.21051292134E+02 -0.10787388527E+03  0.18901776839E+03  0.27848539075E+03  0.17247163265E+03 0.  0.
        -24    2    3    3    0    0 -0.13538306316E+02 -0.43348607154E+02  0.18345857123E+03  0.20491266136E+03  0.79181841015E+02 0.  0.
          6    2    1    2  501    0 -0.21051292134E+02  0.10787388527E+03  0.34384417044E+03  0.40053782836E+03  0.17355634929E+03 0.  0.
         24    2    5    5    0    0 -0.42275610454E+02  0.13958614890E+03  0.31156156315E+03  0.35033428181E+03  0.66272024059E+02 0.  0.
          5    1    5    5  501    0  0.21224318320E+02 -0.31712263633E+02  0.32282607287E+02  0.50203546549E+02  0.47000000000E+01 0. -1.
        -11    1    6    6    0    0 -0.18267853168E+02  0.56552022433E+02  0.60482140759E+02  0.84793484723E+02  0.00000000000E+00 0.  1.
         12    1    6    6    0    0 -0.24007757287E+02  0.83034126470E+02  0.25107942240E+03  0.26554079709E+03  0.00000000000E+00 0. -1.
         -5    1    3    3    0  503  0.34589598450E+02 -0.64525278117E+02  0.55591971619E+01  0.73572729391E+02  0.47000000000E+01 0.  1.
         11    1    4    4    0    0 -0.30616790437E+02 -0.21964053131E+01  0.22927007579E+02  0.38312657562E+02  0.00000000000E+00 0. -1.
        -12    1    4    4    0    0  0.17078484121E+02 -0.41152201841E+02  0.16053156365E+03  0.16660000380E+03  0.00000000000E+00 0.  1.
</event>
<event>
12    1  0.1339344E+000  0.1943623E+03  0.7818608E-02  0.1154772E+00
         21   -1    0    0  503  502  0.00000000000E+00  0.00000000000E+00  0.27137997099E+03  0.27137997099E+03  0.00000000000E+00 0. -1.
         21   -1    0    0  501  503 -0.00000000000E+00 -0.00000000000E+00 -0.28135648138E+03  0.28135648138E+03  0.00000000000E+00 0. -1.
          6    2    1    2  501    0  0.88999210344E+02 -0.18546748875E+02  0.19188225811E+03  0.27251570295E+03  0.17082495731E+03 0.  0.
         24    2    3    3    0    0  0.65476978004E+02 -0.22795269976E+02  0.21380038005E+03  0.23974621385E+03  0.83431322435E+02 0.  0.
         -6    2    1    2    0  502 -0.88999210344E+02  0.18546748875E+02 -0.20185876850E+03  0.28022074943E+03  0.17179017624E+03 0.  0.
        -24    2    5    5    0    0 -0.46522463005E+02 -0.55269630060E+02 -0.10992743091E+03  0.15481503706E+03  0.81636903802E+02 0.  0.
          5    1    3    3  501    0  0.23522232340E+02  0.42485211010E+01 -0.21918121948E+02  0.32769489095E+02  0.47000000000E+01 0. -1.
        -13    1    4    4    0    0 -0.52051312731E+01 -0.32857439834E+02  0.41142054048E+02  0.52909104655E+02  0.00000000000E+00 0.  1.
         14    1    4    4    0    0  0.70682109277E+02  0.10062169859E+02  0.17265832600E+03  0.18683710920E+03  0.00000000000E+00 0. -1.
         -5    1    5    5    0  502 -0.42476747339E+02  0.73816378935E+02 -0.91931337586E+02  0.12540571237E+03  0.47000000000E+01 0.  1.
         11    1    6    6    0    0 -0.30881513534E+02 -0.15910695149E+02 -0.10684441532E+03  0.11235010985E+03  0.00000000000E+00 0. -1.
        -12    1    6    6    0    0 -0.15640949470E+02 -0.39358934912E+02 -0.30830155892E+01  0.42464927209E+02  0.00000000000E+00 0.  1.
</event>
<event>
12    1  0.1032880E+000  0.3364675E+03  0.7818608E-02  0.1068320E+00
         21   -1    0    0  501  502  0.00000000000E+00  0.00000000000E+00  0.49681180444E+03  0.49681180444E+03  0.00000000000E+00 0. -1.
         21   -1    0    0  502  503 -0.00000000000E+00 -0.00000000000E+00 -0.23320988679E+03  0.23320988679E+03  0.00000000000E+00 0. -1.
         -6    2    1    2    0  503 -0.14751346069E+03 -0.24872815974E+03  0.18731641817E+03  0.38501470150E+03  0.17182247037E+03 0.  0.
        -24    2    3    3    0    0 -0.14506284800E+03 -0.14277063353E+03  0.75919645517E+02  0.23118254030E+03  0.79087866930E+02 0.  0.
          6    2    1    2  501    0  0.14751346069E+03  0.24872815974E+03  0.76285499485E+02  0.34500698973E+03  0.17200124127E+03 0.  0.
         24    2    5    5    0    0  0.11044312976E+03  0.68947221440E+02  0.23117615950E+02  0.15384133107E+03  0.78621413899E+02 0.  0.
          5    1    5    5  501    0  0.37070330932E+02  0.17978093830E+03  0.53167883535E+02  0.19116565866E+03  0.47000000000E+01 0. -1.
        -13    1    6    6    0    0  0.69773368293E+02  0.30144121077E+02  0.50562076758E+02  0.91288085556E+02  0.00000000000E+00 0.  1.
         14    1    6    6    0    0  0.40669761467E+02  0.38803100363E+02 -0.27444460808E+02  0.62553245516E+02  0.00000000000E+00 0. -1.
         -5    1    3    3    0  503 -0.24506126904E+01 -0.10595752621E+03  0.11139677265E+03  0.15383216120E+03  0.47000000000E+01 0.  1.
         11    1    4    4    0    0 -0.90197987060E+02 -0.10271289600E+03  0.10867904854E+02  0.13712668314E+03  0.00000000000E+00 0. -1.
        -12    1    4    4    0    0 -0.54864860941E+02 -0.40057737534E+02  0.65051740663E+02  0.94055857158E+02  0.00000000000E+00 0.  1.
</event>
<event>
12    1  0.1032880E+000  0.5040436E+03  0.7818608E-02  0.1012775E+00
         21   -1    0    0  503  502  0.00000000000E+00  0.00000000000E+00  0.34826801459E+03  0.34826801459E+03  0.00000000000E+00 0. -1.
         21   -1    0    0  501  503 -0.00000000000E+00 -0.00000000000E+00 -0.90383582001E+03  0.90383582001E+03  0.00000000000E+00 0. -1.
          6    2    1    2  501    0  0.14957428951E+03 -0.44892323629E+03 -0.18462305130E+01  0.50332644930E+03  0.17155047608E+03 0.  0.
         24    2    3    3    0    0  0.77913203861E+02 -0.16442504786E+03  0.51132954374E+02  0.20515969320E+03  0.79811383843E+02 0.  0.
         -6    2    1    2    0  502 -0.14957428951E+03  0.44892323629E+03 -0.55372157491E+03  0.74877738530E+03  0.17365324659E+03 0.  0.
        -24    2    5    5    0    0 -0.31664662868E+02  0.10615128507E+03 -0.22121240550E+03  0.25686303469E+03  0.69086496830E+02 0.  0.
          5    1    3    3  501    0  0.71661085648E+02 -0.28449818843E+03 -0.52979184887E+02  0.29816675611E+03  0.47000000000E+01 0. -1.
        -13    1    4    4    0    0  0.61970898429E+02 -0.16007559015E+03  0.65040124463E+02  0.18356144640E+03  0.00000000000E+00 0.  1.
         14    1    4    4    0    0  0.15942305432E+02 -0.43494577067E+01 -0.13907170089E+02  0.21598246798E+02  0.00000000000E+00 0. -1.
         -5    1    5    5    0  502 -0.11790962664E+03  0.34277195121E+03 -0.33250916941E+03  0.49191435061E+03  0.47000000000E+01 0.  1.
         11    1    6    6    0    0 -0.30726278067E+02  0.12964087434E+02 -0.89537652019E+02  0.95546652772E+02  0.00000000000E+00 0. -1.
        -12    1    6    6    0    0 -0.93838480048E+00  0.93187197638E+02 -0.13167475348E+03  0.16131638191E+03  0.00000000000E+00 0.  1.
</event>
<event>
12    1  0.1032880E+000  0.2858440E+03  0.7818608E-02  0.1092713E+00
         21   -1    0    0  501  502  0.00000000000E+00  0.00000000000E+00  0.65178956409E+03  0.65178956409E+03  0.00000000000E+00 0. -1.
         21   -1    0    0  502  503 -0.00000000000E+00 -0.00000000000E+00 -0.12557082743E+03  0.12557082743E+03  0.00000000000E+00 0. -1.
         -6    2    1    2    0  503 -0.29563503767E+02 -0.22634444193E+03  0.29441022645E+03  0.41034638738E+03  0.17204932156E+03 0.  0.
        -24    2    3    3    0    0 -0.65371573659E+02 -0.91950680825E+02  0.11471245820E+03  0.18306401057E+03  0.87321896189E+02 0.  0.
          6    2    1    2  501    0  0.29563503767E+02  0.22634444193E+03  0.23180851020E+03  0.36701400414E+03  0.16987726948E+03 0.  0.
         24    2    5    5    0    0  0.56432898741E+02  0.10573300815E+03  0.56925405141E+02  0.15282886745E+03  0.75842072111E+02 0.  0.
          5    1    5    5  501    0 -0.26869394974E+02  0.12061143378E+03  0.17488310506E+03  0.21418513669E+03  0.47000000000E+01 0. -1.
        -11    1    6    6    0    0  0.72413461386E+02  0.67956801741E+02  0.50165248688E+02  0.11125820630E+03  0.00000000000E+00 0.  1.
         12    1    6    6    0    0 -0.15980562645E+02  0.37776206408E+02  0.67601564528E+01  0.41570661149E+02  0.00000000000E+00 0. -1.
         -5    1    3    3    0  503  0.35808069892E+02 -0.13439376110E+03  0.17969776825E+03  0.22728237681E+03  0.47000000000E+01 0.  1.
         11    1    4    4    0    0 -0.27964614208E+02 -0.98054088757E+02  0.98730126718E+02  0.14193048260E+03  0.00000000000E+00 0. -1.
        -12    1    4    4    0    0 -0.37406959451E+02  0.61034079324E+01  0.15982331482E+02  0.41133527972E+02  0.00000000000E+00 0.  1.
</event>
<event>
12    1  0.1032880E+000  0.2125029E+03  0.7818608E-02  0.1142626E+00
         21   -1    0    0  501  502  0.00000000000E+00  0.00000000000E+00  0.59022606373E+03  0.59022606373E+03  0.00000000000E+00 0.  1.
         21   -1    0    0  502  503 -0.00000000000E+00 -0.00000000000E+00 -0.72440350565E+02  0.72440350565E+02  0.00000000000E+00 0.  1.
         -6    2    1    2    0  503  0.20442924949E+02 -0.10900677120E+03  0.29247194375E+03  0.35295077213E+03  0.16350541372E+03 0.  0.
        -24    2    3    3    0    0  0.71389277268E+02 -0.90694917904E+02  0.18769875738E+03  0.23492380331E+03  0.81463935569E+02 0.  0.
          6    2    1    2  501    0 -0.20442924949E+02  0.10900677120E+03  0.22531376942E+03  0.30971564217E+03  0.18126526133E+03 0.  0.
         24    2    5    5    0    0  0.41156296011E+01 -0.12972204258E+02  0.52153871388E+02  0.96435466481E+02  0.79965970290E+02 0.  0.
          5    1    5    5  501    0 -0.24558554550E+02  0.12197897546E+03  0.17315989803E+03  0.21328017568E+03  0.47000000000E+01 0. -1.
        -11    1    6    6    0    0 -0.22283850372E+02  0.20227487747E+02  0.43897098171E+02  0.53222894282E+02  0.00000000000E+00 0.  1.
         12    1    6    6    0    0  0.26399479974E+02 -0.33199692005E+02  0.82567732173E+01  0.43212572199E+02  0.00000000000E+00 0. -1.
         -5    1    3    3    0  503 -0.50946352319E+02 -0.18311853296E+02  0.10477318637E+03  0.11802696881E+03  0.47000000000E+01 0.  1.
         13    1    4    4    0    0  0.47354202017E+02 -0.11001147899E+02  0.11326858601E+03  0.12326077348E+03  0.00000000000E+00 0. -1.
        -14    1    4    4    0    0  0.24035075251E+02 -0.79693770005E+02  0.74430171373E+02  0.11166302983E+03  0.00000000000E+00 0.  1.
</event>
<event>
12    1  0.1032880E+000  0.3813545E+03  0.7818608E-02  0.1050493E+00
         21   -1    0    0  501  502  0.00000000000E+00  0.00000000000E+00  0.14599670226E+03  0.14599670226E+03  0.00000000000E+00 0. -1.
         21   -1    0    0  502  503 -0.00000000000E+00 -0.00000000000E+00 -0.10929876832E+04  0.10929876832E+04  0.00000000000E+00 0. -1.
         -6    2    1    2    0  503 -0.84972240155E+02 -0.32873645627E+03 -0.28713442920E+03  0.47685451498E+03  0.17220949087E+03 0.  0.
        -24    2    3    3    0    0 -0.46660295250E+01 -0.23363603242E+03 -0.23877057092E+03  0.34323441593E+03  0.78682344047E+02 0.  0.
          6    2    1    2  501    0  0.84972240155E+02  0.32873645627E+03 -0.65985655177E+03  0.76212987051E+03  0.17361834965E+03 0.  0.
         24    2    5    5    0    0  0.56813803604E+02  0.11685665756E+03 -0.15070640594E+03  0.20991441650E+03  0.66845753545E+02 0.  0.
          5    1    5    5  501    0  0.28158436551E+02  0.21187979871E+03 -0.50915014583E+03  0.55221545401E+03  0.47000000000E+01 0. -1.
        -13    1    6    6    0    0  0.52656696200E+02  0.11607193732E+03 -0.15706680800E+03  0.20227556565E+03  0.00000000000E+00 0.  1.
         14    1    6    6    0    0  0.41571074042E+01  0.78472024276E+00  0.63604020592E+01  0.76388508419E+01  0.00000000000E+00 0. -1.
         -5    1    3    3    0  503 -0.80306210630E+02 -0.95100423854E+02 -0.48363858280E+02  0.13362009905E+03  0.47000000000E+01 0.  1.
         13    1    4    4    0    0 -0.38071227437E+01 -0.30101582554E+02 -0.11547128383E+01  0.30363346614E+02  0.00000000000E+00 0. -1.
        -14    1    4    4    0    0 -0.85890678127E+00 -0.20353444986E+03 -0.23761585808E+03  0.31287106931E+03  0.00000000000E+00 0.  1.
</event>
<event>
12    1  0.1032880E+000  0.2126146E+03  0.7818608E-02  0.1139703E+00
         21   -1    0    0  503  502  0.00000000000E+00  0.00000000000E+00  0.24327531313E+03  0.24327531313E+03  0.00000000000E+00 0.  1.
         21   -1    0    0  501  503 -0.00000000000E+00 -0.00000000000E+00 -0.19300377949E+03  0.19300377949E+03  0.00000000000E+00 0.  1.
          6    2    1    2  501    0  0.74689176882E+02  0.98718139117E+02 -0.19329719787E+02  0.21349144517E+03  0.17286183777E+03 0.  0.
         24    2    3    3    0    0 -0.17271183557E+01  0.60102366916E+02 -0.62522885391E+02  0.11747911473E+03  0.79227228615E+02 0.  0.
         -6    2    1    2    0  502 -0.74689176882E+02 -0.98718139117E+02  0.69601253430E+02  0.22278764745E+03  0.17165738330E+03 0.  0.
        -24    2    5    5    0    0 -0.10248751126E+03 -0.52557673499E+02  0.38888603331E+01  0.13767745660E+03  0.75325691591E+02 0.  0.
          5    1    3    3  501    0  0.76416295238E+02  0.38615772201E+02  0.43193165604E+02  0.96012330435E+02  0.47000000000E+01 0. -1.
        -11    1    4    4    0    0  0.29032211684E+02  0.47044422746E+02 -0.11464534280E+02  0.56457794617E+02  0.00000000000E+00 0.  1.
         12    1    4    4    0    0 -0.30759330040E+02  0.13057944170E+02 -0.51058351111E+02  0.61021320115E+02  0.00000000000E+00 0. -1.
         -5    1    5    5    0  502  0.27798334375E+02 -0.46160465618E+02  0.65712393097E+02  0.85110190851E+02  0.47000000000E+01 0.  1.
         11    1    6    6    0    0 -0.34720515969E+02 -0.23995565484E+02  0.37834150037E+02  0.56680898908E+02  0.00000000000E+00 0. -1.
        -12    1    6    6    0    0 -0.67766995288E+02 -0.28562108015E+02 -0.33945289704E+02  0.80996557690E+02  0.00000000000E+00 0.  1.
</event>
<event>
12    1  0.1032880E+000  0.4072849E+03  0.7818608E-02  0.1041672E+00
         21   -1    0    0  501  502  0.00000000000E+00  0.00000000000E+00  0.45240276913E+03  0.45240276913E+03  0.00000000000E+00 0.  1.
         21   -1    0    0  502  503 -0.00000000000E+00 -0.00000000000E+00 -0.38487174874E+03  0.38487174874E+03  0.00000000000E+00 0.  1.
         -6    2    1    2    0  503  0.25499613737E+03  0.26244857779E+03 -0.67130292609E+02  0.40830517524E+03  0.16823897850E+03 0.  0.
        -24    2    3    3    0    0  0.12328069943E+03  0.18821072579E+03  0.92817469550E+01  0.23883215364E+03  0.79581647572E+02 0.  0.
          6    2    1    2  501    0 -0.25499613737E+03 -0.26244857779E+03  0.13466131300E+03  0.42896934263E+03  0.17882600941E+03 0.  0.
         24    2    5    5    0    0 -0.84288181744E+02 -0.76967351255E+02  0.11337008401E+03  0.17594780611E+03  0.71248745858E+02 0.  0.
          5    1    5    5  501    0 -0.17070795562E+03 -0.18548122653E+03  0.21291228992E+02  0.25302153652E+03  0.47000000000E+01 0. -1.
        -11    1    6    6    0    0 -0.10948406828E+02  0.35224070768E+01  0.47082703160E+02  0.48467059954E+02  0.00000000000E+00 0.  1.
         12    1    6    6    0    0 -0.73339774917E+02 -0.80489758332E+02  0.66287380846E+02  0.12748074616E+03  0.00000000000E+00 0. -1.
         -5    1    3    3    0  503  0.13171543793E+03  0.74237851998E+02 -0.76412039564E+02  0.16947302160E+03  0.47000000000E+01 0.  1.
         13    1    4    4    0    0  0.72364360087E+02  0.49049371491E+02 -0.14920561103E+02  0.88685199431E+02  0.00000000000E+00 0. -1.
        -14    1    4    4    0    0  0.50916339346E+02  0.13916135430E+03  0.24202308058E+02  0.15014695421E+03  0.00000000000E+00 0.  1.
</event>
<event>
12    1  0.1032880E+000  0.2532639E+03  0.7818608E-02  0.1111318E+00
         21   -1    0    0  501  502  0.00000000000E+00  0.00000000000E+00  0.38135050719E+03  0.38135050719E+03  0.00000000000E+00 0.  1.
         21   -1    0    0  502  503 -0.00000000000E+00 -0.00000000000E+00 -0.58115716640E+03  0.58115716640E+03  0.00000000000E+00 0.  1.
         -6    2    1    2    0  503  0.11426802311E+03 -0.14726122468E+03  0.30591874130E+03  0.39690996645E+03  0.17090405434E+03 0.  0.
        -24    2    3    3    0    0  0.25742756004E+02 -0.10986465335E+03  0.10546009499E+03  0.17455667697E+03  0.81334311926E+02 0.  0.
          6    2    1    2  501    0 -0.11426802311E+03  0.14726122468E+03 -0.50572540051E+03  0.56559770714E+03  0.17146292953E+03 0.  0.
         24    2    5    5    0    0 -0.62265957842E+02  0.16374153161E+03 -0.34410999697E+03  0.39495936453E+03  0.83023315604E+02 0.  0.
          5    1    5    5  501    0 -0.52002065269E+02 -0.16480306929E+02 -0.16161540353E+03  0.17063834261E+03  0.47000000000E+01 0. -1.
        -11    1    6    6    0    0 -0.18852775266E+02  0.44079203990E+02 -0.18544967095E+03  0.19154629679E+03  0.00000000000E+00 0.  1.
         12    1    6    6    0    0 -0.43413182576E+02  0.11966232762E+03 -0.15866032602E+03  0.20341306774E+03  0.00000000000E+00 0. -1.
         -5    1    3    3    0  503  0.88525267108E+02 -0.37396571330E+02  0.20045864630E+03  0.22235328948E+03  0.47000000000E+01 0.  1.
         13    1    4    4    0    0  0.43476226021E+02 -0.11297584265E+03  0.93204809837E+02  0.15277715742E+03  0.00000000000E+00 0. -1.
        -14    1    4    4    0    0 -0.17733470018E+02  0.31111892992E+01  0.12255285155E+02  0.21779519553E+02  0.00000000000E+00 0.  1.
</event>
<event>
12    1  0.1032880E+000  0.2304905E+03  0.7818608E-02  0.1126418E+00
         21   -1    0    0  501  502  0.00000000000E+00  0.00000000000E+00  0.10211168931E+03  0.10211168931E+03  0.00000000000E+00 0. -1.
         21   -1    0    0  502  503 -0.00000000000E+00 -0.00000000000E+00 -0.17298563156E+04  0.17298563156E+04  0.00000000000E+00 0. -1.
         -6    2    1    2    0  503 -0.14541750086E+03 -0.49116609155E+02 -0.47792740164E+02  0.23539332694E+03  0.17195110207E+03 0.  0.
        -24    2    3    3    0    0 -0.65810283679E+02 -0.67635835671E+02 -0.79783853713E+02  0.14749684166E+03  0.80524873682E+02 0.  0.
          6    2    1    2  501    0  0.14541750086E+03  0.49116609155E+02 -0.15799518861E+04  0.15965746779E+04  0.17100891505E+03 0.  0.
         24    2    5    5    0    0  0.62726406301E+02  0.29237222469E+02 -0.39972464770E+03  0.41327782957E+03  0.78926251692E+02 0.  0.
          5    1    5    5  501    0  0.82691094562E+02  0.19879386686E+02 -0.11802272384E+04  0.11832968484E+04  0.47000000000E+01 0. -1.
        -13    1    6    6    0    0 -0.61907890400E+01 -0.10505885916E+02 -0.16475388701E+03  0.16520454835E+03  0.00000000000E+00 0.  1.
         14    1    6    6    0    0  0.68917195341E+02  0.39743108385E+02 -0.23497076069E+03  0.24807328122E+03  0.00000000000E+00 0. -1.
         -5    1    3    3    0  503 -0.79607217184E+02  0.18519226516E+02  0.31991113549E+02  0.87896485280E+02  0.47000000000E+01 0.  1.
         11    1    4    4    0    0 -0.72574254666E+02 -0.55091172394E+02 -0.30331190714E+02  0.96031457586E+02  0.00000000000E+00 0. -1.
        -12    1    4    4    0    0  0.67639709864E+01 -0.12544663277E+02 -0.49452662998E+02  0.51465384074E+02  0.00000000000E+00 0.  1.
</event>
<event>
12    1  0.1032880E+000  0.2237471E+03  0.7818608E-02  0.1131331E+00
         21   -1    0    0  503  502  0.00000000000E+00  0.00000000000E+00  0.15419072300E+03  0.15419072300E+03  0.00000000000E+00 0. -1.
         21   -1    0    0  501  503 -0.00000000000E+00 -0.00000000000E+00 -0.35966187059E+03  0.35966187059E+03  0.00000000000E+00 0. -1.
          6    2    1    2  501    0  0.14061439827E+03  0.21731024048E+02 -0.20474470600E+02  0.22353112604E+03  0.17117918668E+03 0.  0.
         24    2    3    3    0    0  0.16478751395E+03  0.20279857425E+02 -0.43551910611E+02  0.18975090040E+03  0.80885338066E+02 0.  0.
         -6    2    1    2    0  502 -0.14061439827E+03 -0.21731024048E+02 -0.18499667699E+03  0.29032146755E+03  0.17267929122E+03 0.  0.
        -24    2    5    5    0    0 -0.69462140265E+02  0.36859179363E+02 -0.15704843136E+03  0.19389195864E+03  0.82135825315E+02 0.  0.
          5    1    3    3  501    0 -0.24173115683E+02  0.14511666230E+01  0.23077440011E+02  0.33780225633E+02  0.47000000000E+01 0. -1.
        -13    1    4    4    0    0  0.14082069081E+03 -0.22621150726E-01 -0.62132214187E+01  0.14095769433E+03  0.00000000000E+00 0.  1.
         14    1    4    4    0    0  0.23966823144E+02  0.20302478576E+02 -0.37338689192E+02  0.48793206070E+02  0.00000000000E+00 0. -1.
         -5    1    5    5    0  502 -0.71152258004E+02 -0.58590203411E+02 -0.27948245630E+02  0.96429508910E+02  0.47000000000E+01 0.  1.
         13    1    6    6    0    0 -0.15562916713E+02  0.13603865128E+02 -0.12561373015E+03  0.12730309786E+03  0.00000000000E+00 0. -1.
        -14    1    6    6    0    0 -0.53899223552E+02  0.23255314235E+02 -0.31434701205E+02  0.66588860776E+02  0.00000000000E+00 0.  1.
</event>
<event>
12    1  0.1032880E+000  0.2392533E+03  0.7818608E-02  0.1120296E+00
         21   -1    0    0  503  502  0.00000000000E+00  0.00000000000E+00  0.51322028456E+02  0.51322028456E+02  0.00000000000E+00 0.  1.
         21   -1    0    0  501  503 -0.00000000000E+00 -0.00000000000E+00 -0.12635560264E+04  0.12635560264E+04  0.00000000000E+00 0.  1.
          6    2    1    2  501    0 -0.16595891207E+03  0.11665575474E+02 -0.38088647732E+03  0.44979621710E+03  0.17194092637E+03 0.  0.
         24    2    3    3    0    0 -0.17375357827E+03  0.55903561460E+02 -0.29742872246E+03  0.35490131169E+03  0.64618743026E+02 0.  0.
         -6    2    1    2    0  502  0.16595891207E+03 -0.11665575474E+02 -0.83134752064E+03  0.86508183777E+03  0.17189950503E+03 0.  0.
        -24    2    5    5    0    0  0.30041236599E+02  0.10808249209E+02 -0.47199794577E+03  0.48020147421E+03  0.82414203100E+02 0.  0.
          5    1    3    3  501    0  0.77946662019E+01 -0.44237985986E+02 -0.83457754865E+02  0.94894905408E+02  0.47000000000E+01 0. -1.
        -11    1    4    4    0    0 -0.79173092227E+02  0.58110643977E+02 -0.13526090393E+03  0.16715483124E+03  0.00000000000E+00 0.  1.
         12    1    4    4    0    0 -0.94580486045E+02 -0.22070825172E+01 -0.16216781853E+03  0.18774648045E+03  0.00000000000E+00 0. -1.
         -5    1    5    5    0  502  0.13591767547E+03 -0.22473824683E+02 -0.35934957486E+03  0.38488036356E+03  0.47000000000E+01 0.  1.
         13    1    6    6    0    0  0.53482503508E+02 -0.12780974384E+02 -0.30693437072E+03  0.31182116576E+03  0.00000000000E+00 0. -1.
        -14    1    6    6    0    0 -0.23441266910E+02  0.23589223593E+02 -0.16506357506E+03  0.16838030846E+03  0.00000000000E+00 0.  1.
</event>
<event>
12    1  0.1032880E+000  0.2032934E+03  0.7818608E-02  0.1147238E+00
         21   -1    0    0  503  502  0.00000000000E+00  0.00000000000E+00  0.40945773759E+03  0.40945773759E+03  0.00000000000E+00 0.  1.
         21   -1    0    0  501  503 -0.00000000000E+00 -0.00000000000E+00 -0.26355781785E+03  0.26355781785E+03  0.00000000000E+00 0.  1.
          6    2    1    2  501    0 -0.17842188136E+02  0.10508965349E+03  0.33784583678E+03  0.39429432954E+03  0.17310698983E+03 0.  0.
         24    2    3    3    0    0  0.12454214741E+02  0.12823813737E+03  0.31525033876E+03  0.34972560885E+03  0.79530485066E+02 0.  0.
         -6    2    1    2    0  502  0.17842188136E+02 -0.10508965349E+03 -0.19194591704E+03  0.27872122590E+03  0.17169772203E+03 0.  0.
        -24    2    5    5    0    0 -0.25506864157E+02 -0.96740136240E+02 -0.19521557917E+03  0.23420566162E+03  0.82060438120E+02 0.  0.
          5    1    3    3  501    0 -0.30296402877E+02 -0.23148483883E+02  0.22595498028E+02  0.44568720696E+02  0.47000000000E+01 0. -1.
        -13    1    4    4    0    0 -0.97756033874E+01  0.60606560810E+02  0.64414664125E+02  0.88982956734E+02  0.00000000000E+00 0.  1.
         14    1    4    4    0    0  0.22229818128E+02  0.67631576562E+02  0.25083567463E+03  0.26074265211E+03  0.00000000000E+00 0. -1.
         -5    1    5    5    0  502  0.43349052293E+02 -0.83495172493E+01  0.32696621305E+01  0.44515564283E+02  0.47000000000E+01 0.  1.
         11    1    6    6    0    0  0.60292550012E+01 -0.95016974658E+02 -0.16499095927E+03  0.19049040404E+03  0.00000000000E+00 0. -1.
        -12    1    6    6    0    0 -0.31536119158E+02 -0.17231615820E+01 -0.30224619904E+02  0.43715257585E+02  0.00000000000E+00 0.  1.
</event>
<event>
12    1  0.1032880E+000  0.2156507E+03  0.7818608E-02  0.1137297E+00
         21   -1    0    0  503  502  0.00000000000E+00  0.00000000000E+00  0.60815845018E+03  0.60815845018E+03  0.00000000000E+00 0. -1.
         21   -1    0    0  501  503 -0.00000000000E+00 -0.00000000000E+00 -0.95558634329E+02  0.95558634329E+02  0.00000000000E+00 0. -1.
          6    2    1    2  501    0  0.53649538641E+02 -0.11766152529E+03  0.98373629757E+02  0.23702870086E+03  0.17257672633E+03 0.  0.
         24    2    3    3    0    0  0.26525742924E+02 -0.79788952121E+01 -0.18792418042E+01  0.85903891879E+02  0.81293722290E+02 0.  0.
         -6    2    1    2    0  502 -0.53649538641E+02  0.11766152529E+03  0.41422618609E+03  0.46668838364E+03  0.17173295157E+03 0.  0.
        -24    2    5    5    0    0 -0.98271398113E+02  0.11090363781E+03  0.34416138019E+03  0.38321415761E+03  0.80306602552E+02 0.  0.
          5    1    3    3  501    0  0.27123795717E+02 -0.10968263007E+03  0.10025287156E+03  0.15112480898E+03  0.47000000000E+01 0. -1.
        -11    1    4    4    0    0  0.56091184274E+01 -0.21626187628E+02  0.34904638771E+02  0.41442586896E+02  0.00000000000E+00 0.  1.
         12    1    4    4    0    0  0.20916624497E+02  0.13647292416E+02 -0.36783880575E+02  0.44461304983E+02  0.00000000000E+00 0. -1.
         -5    1    5    5    0  502  0.44621859472E+02  0.67578874797E+01  0.70064805904E+02  0.83474226036E+02  0.47000000000E+01 0.  1.
         11    1    6    6    0    0 -0.34938019350E+02  0.80706921088E+02  0.25510596730E+03  0.26983944645E+03  0.00000000000E+00 0. -1.
        -12    1    6    6    0    0 -0.63333378763E+02  0.30196716717E+02  0.89055412887E+02  0.11337471116E+03  0.00000000000E+00 0.  1.
</event>
<event>
12    1  0.1032880E+000  0.2227960E+03  0.7818608E-02  0.1131874E+00
         21   -1    0    0  503  502  0.00000000000E+00  0.00000000000E+00  0.37182635044E+03  0.37182635044E+03  0.00000000000E+00 0.  1.
         21   -1    0    0  501  503 -0.00000000000E+00 -0.00000000000E+00 -0.13834073510E+03  0.13834073510E+03  0.00000000000E+00 0.  1.
          6    2    1    2  501    0 -0.13257759387E+03  0.52726055267E+02  0.16532146818E+03  0.27717697883E+03  0.17070159476E+03 0.  0.
         24    2    3    3    0    0 -0.54376569509E+02  0.51831543014E+02  0.16660008364E+03  0.19881930390E+03  0.78295642093E+02 0.  0.
         -6    2    1    2    0  502  0.13257759387E+03 -0.52726055267E+02  0.68164147155E+02  0.23299010671E+03  0.17111745547E+03 0.  0.
        -24    2    5    5    0    0  0.11077561314E+03 -0.10095319316E+03  0.49425178253E+02  0.17664809620E+03  0.79365722899E+02 0.  0.
          5    1    3    3  501    0 -0.78201024360E+02  0.89451225355E+00 -0.12786154620E+01  0.78357674931E+02  0.47000000000E+01 0. -1.
        -13    1    4    4    0    0  0.71046857424E+01 -0.79911585738E+01 -0.79686799211E+00  0.10722414534E+02  0.00000000000E+00 0.  1.
         14    1    4    4    0    0 -0.61481255252E+02  0.59822701587E+02  0.16739695163E+03  0.18809688936E+03  0.00000000000E+00 0. -1.
         -5    1    5    5    0  502  0.21801980726E+02  0.48227137889E+02  0.18738968903E+02  0.56342010508E+02  0.47000000000E+01 0.  1.
         13    1    6    6    0    0  0.11331764055E+03 -0.59420226491E+02  0.38729002671E+02  0.13368465366E+03  0.00000000000E+00 0. -1.
        -14    1    6    6    0    0 -0.25420274046E+01 -0.41532966665E+02  0.10696175582E+02  0.42963442546E+02  0.00000000000E+00 0.  1.
</event>
<event>
12    1  0.1032880E+000  0.2219042E+03  0.7818608E-02  0.1133230E+00
         21   -1    0    0  503  502  0.00000000000E+00  0.00000000000E+00  0.15745486856E+04  0.15745486856E+04  0.00000000000E+00 0. -1.
         21   -1    0    0  501  503 -0.00000000000E+00 -0.00000000000E+00 -0.49733100126E+02  0.49733100126E+02  0.00000000000E+00 0. -1.
          6    2    1    2  501    0 -0.83407686170E+02 -0.11859542636E+03  0.26438941620E+03  0.34517131022E+03  0.16798735885E+03 0.  0.
         24    2    3    3    0    0 -0.17944984618E+02 -0.13169301599E+03  0.18947450001E+03  0.24471611216E+03  0.79500418005E+02 0.  0.
         -6    2    1    2    0  502  0.83407686170E+02  0.11859542636E+03  0.12604261693E+04  0.12791104756E+04  0.16256618068E+03 0.  0.
        -24    2    5    5    0    0 -0.10078959111E+02  0.21754350392E+02  0.25129553910E+03  0.26103156619E+03  0.66431870359E+02 0.  0.
          5    1    3    3  501    0 -0.65462701551E+02  0.13097589634E+02  0.74914916187E+02  0.10045519805E+03  0.47000000000E+01 0. -1.
        -11    1    4    4    0    0 -0.20882388489E+02 -0.12661990320E+02  0.77541877676E+02  0.81296635486E+02  0.00000000000E+00 0.  1.
         12    1    4    4    0    0  0.29374038706E+01 -0.11903102567E+03  0.11193262233E+03  0.16341947667E+03  0.00000000000E+00 0. -1.
         -5    1    5    5    0  502  0.93486645281E+02  0.96841075966E+02  0.10091306302E+04  0.10180789094E+04  0.47000000000E+01 0.  1.
         11    1    6    6    0    0 -0.21188839991E+01 -0.23872316708E+02  0.73875239686E+02  0.77665489203E+02  0.00000000000E+00 0. -1.
        -12    1    6    6    0    0 -0.79600751123E+01  0.45626667100E+02  0.17742029941E+03  0.18336607699E+03  0.00000000000E+00 0.  1.
</event>
<event>
12    1  0.1032880E+000  0.1752788E+03  0.7818608E-02  0.1172852E+00
         21   -1    0    0  501  502  0.00000000000E+00  0.00000000000E+00  0.29093832573E+03  0.29093832573E+03  0.00000000000E+00 0. -1.
         21   -1    0    0  502  503 -0.00000000000E+00 -0.00000000000E+00 -0.17706995130E+03  0.17706995130E+03  0.00000000000E+00 0. -1.
         -6    2    1    2    0  503  0.34226690912E+02  0.32488765427E+00  0.20674390469E+03  0.27104556986E+03  0.17190429574E+03 0.  0.
        -24    2    3    3    0    0  0.16603497160E+02  0.59438240765E+02  0.17638818385E+03  0.20213602581E+03  0.77055830040E+02 0.  0.
          6    2    1    2  501    0 -0.34226690912E+02 -0.32488765427E+00 -0.92875530259E+02  0.19696270717E+03  0.17028467920E+03 0.  0.
         24    2    5    5    0    0 -0.26212393308E+02  0.38434122886E+02 -0.11721879016E+03  0.15025966480E+03  0.81691191281E+02 0.  0.
          5    1    5    5  501    0 -0.80142976038E+01 -0.38759010540E+02  0.24343259901E+02  0.46703042371E+02  0.47000000000E+01 0. -1.
        -11    1    6    6    0    0 -0.14024569205E+00  0.38084067213E+02 -0.92562089458E+01  0.39193025507E+02  0.00000000000E+00 0.  1.
         12    1    6    6    0    0 -0.26072147616E+02  0.35005567213E+00 -0.10796258121E+03  0.11106663929E+03  0.00000000000E+00 0. -1.
         -5    1    3    3    0  503  0.17623193752E+02 -0.59113353111E+02  0.30355720832E+02  0.68909544051E+02  0.47000000000E+01 0.  1.
         13    1    4    4    0    0  0.27527185033E+02  0.66410704843E+02  0.17489183638E+03  0.18909067155E+03  0.00000000000E+00 0. -1.
        -14    1    4    4    0    0 -0.10923687873E+02 -0.69724640771E+01  0.14963474734E+01  0.13045354262E+02  0.00000000000E+00 0.  1.
</event>
<event>
12    1  0.1032880E+000  0.1853313E+03  0.7818608E-02  0.1162860E+00
         21   -1    0    0  503  502  0.00000000000E+00  0.00000000000E+00  0.84564278746E+03  0.84564278746E+03  0.00000000000E+00 0.  1.
         21   -1    0    0  501  503 -0.00000000000E+00 -0.00000000000E+00 -0.54494485216E+02  0.54494485216E+02  0.00000000000E+00 0.  1.
          6    2    1    2  501    0 -0.65414949530E+02  0.15188170772E+02  0.62401467697E+03  0.65095468479E+03  0.17273647103E+03 0.  0.
         24    2    3    3    0    0 -0.52181568164E+02  0.65951668420E+02  0.53210854612E+03  0.54502602029E+03  0.82712268211E+02 0.  0.
         -6    2    1    2    0  502  0.65414949530E+02 -0.15188170772E+02  0.16713362527E+03  0.24918258788E+03  0.17218744801E+03 0.  0.
        -24    2    5    5    0    0  0.16414880223E+02 -0.47091633337E+02  0.34696609483E+02  0.10433614897E+03  0.84823976847E+02 0.  0.
          5    1    3    3  501    0 -0.13233381367E+02 -0.50763497648E+02  0.91906130847E+02  0.10592866450E+03  0.47000000000E+01 0. -1.
        -13    1    4    4    0    0 -0.10285201525E+02 -0.11222590598E+02  0.22760352332E+03  0.22811202454E+03  0.00000000000E+00 0.  1.
         14    1    4    4    0    0 -0.41896366638E+02  0.77174259018E+02  0.30450502280E+03  0.31691399575E+03  0.00000000000E+00 0. -1.
         -5    1    5    5    0  502  0.49000069307E+02  0.31903462565E+02  0.13243701579E+03  0.14484643892E+03  0.47000000000E+01 0.  1.
         11    1    6    6    0    0 -0.25940545080E+02 -0.45767978138E+02  0.32637971238E+02  0.61910070816E+02  0.00000000000E+00 0. -1.
        -12    1    6    6    0    0  0.42355425304E+02 -0.13236551994E+01  0.20586382456E+01  0.42426078150E+02  0.00000000000E+00 0.  1.
</event>
<event>
12    1  0.1032880E+000  0.2288334E+03  0.7818608E-02  0.1127636E+00
         21   -1    0    0  501  502  0.00000000000E+00  0.00000000000E+00  0.15408869073E+03  0.15408869073E+03  0.00000000000E+00 0. -1.
         21   -1    0    0  502  503 -0.00000000000E+00 -0.00000000000E+00 -0.64726552200E+03  0.64726552200E+03  0.00000000000E+00 0. -1.
         -6    2    1    2    0  503 -0.14868970623E+03  0.29733581230E+02  0.29921462875E+02  0.23078132552E+03  0.17138264695E+03 0.  0.
        -24    2    3    3    0    0 -0.51970239726E+02  0.68326032951E+02  0.44166903288E+02  0.12557174847E+03  0.80300660470E+02 0.  0.
          6    2    1    2  501    0  0.14868970623E+03 -0.29733581230E+02 -0.52309829414E+03  0.57057288721E+03  0.17008491910E+03 0.  0.
         24    2    5    5    0    0  0.49760231043E+01 -0.16158729747E+01 -0.17708385886E+03  0.19481723834E+03  0.81041294644E+02 0.  0.
          5    1    5    5  501    0  0.14371368312E+03 -0.28117708255E+02 -0.34601443528E+03  0.37575564887E+03  0.47000000000E+01 0. -1.
        -11    1    6    6    0    0  0.32056513075E+02  0.26394220143E+02 -0.10429399217E+03  0.11225645501E+03  0.00000000000E+00 0.  1.
         12    1    6    6    0    0 -0.27080489971E+02 -0.28010093118E+02 -0.72789866681E+02  0.82560783335E+02  0.00000000000E+00 0. -1.
         -5    1    3    3    0  503 -0.96719466500E+02 -0.38592451722E+02 -0.14245440412E+02  0.10520957705E+03  0.47000000000E+01 0.  1.
         13    1    4    4    0    0 -0.17363797045E+02  0.79032799171E+02  0.25631874682E+02  0.84880373423E+02  0.00000000000E+00 0. -1.
        -14    1    4    4    0    0 -0.34606442680E+02 -0.10706766220E+02  0.18535028606E+02  0.40691375048E+02  0.00000000000E+00 0.  1.
</event>
<event>
12    1  0.1032880E+000  0.4250941E+03  0.7818608E-02  0.1035478E+00
         21   -1    0    0  501  502  0.00000000000E+00  0.00000000000E+00  0.17658423217E+04  0.17658423217E+04  0.00000000000E+00 0. -1.
         21   -1    0    0  502  503 -0.00000000000E+00 -0.00000000000E+00 -0.10383643148E+03  0.10383643148E+03  0.00000000000E+00 0. -1.
         -6    2    1    2    0  503 -0.85560809948E+02  0.37865919814E+03  0.71298169225E+03  0.83008906276E+03  0.17320946308E+03 0.  0.
        -24    2    3    3    0    0 -0.59785736316E+02  0.18571035508E+03  0.24313582040E+03  0.32149212633E+03  0.78609731435E+02 0.  0.
          6    2    1    2  501    0  0.85560809948E+02 -0.37865919814E+03  0.94902419801E+03  0.10395896905E+04  0.17145365428E+03 0.  0.
         24    2    5    5    0    0  0.86641908068E+01 -0.18591970272E+03  0.33340313407E+03  0.38991824465E+03  0.78977108352E+02 0.  0.
          5    1    5    5  501    0  0.76896619141E+02 -0.19273949542E+03  0.61562106393E+03  0.64967144580E+03  0.47000000000E+01 0. -1.
        -11    1    6    6    0    0  0.28462757882E+02 -0.76284536308E+02  0.20108853142E+03  0.21694712843E+03  0.00000000000E+00 0.  1.
         12    1    6    6    0    0 -0.19798567075E+02 -0.10963516641E+03  0.13231460265E+03  0.17297111622E+03  0.00000000000E+00 0. -1.
         -5    1    3    3    0  503 -0.25775073632E+02  0.19294884306E+03  0.46984587185E+03  0.50859693644E+03  0.47000000000E+01 0.  1.
         13    1    4    4    0    0 -0.32052213028E+01  0.12013124440E+03  0.11160435265E+03  0.16400402695E+03  0.00000000000E+00 0. -1.
        -14    1    4    4    0    0 -0.56580515013E+02  0.65579110682E+02  0.13153146775E+03  0.15748809938E+03  0.00000000000E+00 0.  1.
</event>
<event>
12    1  0.1032880E+000  0.1827241E+03  0.7818608E-02  0.1167364E+00
         21   -1    0    0  501  502  0.00000000000E+00  0.00000000000E+00  0.35795712125E+03  0.35795712125E+03  0.00000000000E+00 0. -1.
         21   -1    0    0  502  503 -0.00000000000E+00 -0.00000000000E+00 -0.89432879774E+02  0.89432879774E+02  0.00000000000E+00 0. -1.
         -6    2    1    2    0  503 -0.26397117208E+02  0.12019456452E+02  0.11850163829E+03  0.21778598328E+03  0.18040737542E+03 0.  0.
        -24    2    3    3    0    0 -0.62189335318E+02 -0.48052399805E+02  0.82207281891E+02  0.13886145542E+03  0.79673835424E+02 0.  0.
          6    2    1    2  501    0  0.26397117208E+02 -0.12019456452E+02  0.15002260319E+03  0.22960401775E+03  0.17137662725E+03 0.  0.
         24    2    5    5    0    0  0.89682528671E+01  0.32749934164E+02  0.14428486839E+02  0.85673763676E+02  0.77322860803E+02 0.  0.
          5    1    5    5  501    0  0.17428864341E+02 -0.44769390616E+02  0.13559411635E+03  0.14393025407E+03  0.47000000000E+01 0. -1.
        -11    1    6    6    0    0  0.36430946930E+02  0.31275549180E+02  0.27382281223E+02  0.55273530697E+02  0.00000000000E+00 0.  1.
         12    1    6    6    0    0 -0.27462694062E+02  0.14743849840E+01 -0.12953794384E+02  0.30400232979E+02  0.00000000000E+00 0. -1.
         -5    1    3    3    0  503  0.35792218109E+02  0.60071856257E+02  0.36294356398E+02  0.78924527859E+02  0.47000000000E+01 0.  1.
         11    1    4    4    0    0 -0.45277968102E+02 -0.21593925153E+02  0.92992282563E+02  0.10565962623E+03  0.00000000000E+00 0. -1.
        -12    1    4    4    0    0 -0.16911367216E+02 -0.26458474652E+02 -0.10785000672E+02  0.33201829189E+02  0.00000000000E+00 0.  1.
</event>
<event>
12    1  0.1032880E+000  0.2478038E+03  0.7818608E-02  0.1114873E+00
         21   -1    0    0  503  502  0.00000000000E+00  0.00000000000E+00  0.36021278829E+02  0.36021278829E+02  0.00000000000E+00 0.  1.
         21   -1    0    0  501  503 -0.00000000000E+00 -0.00000000000E+00 -0.16973795814E+04  0.16973795814E+04  0.00000000000E+00 0.  1.
          6    2    1    2  501    0 -0.16640662151E+03 -0.63937666878E+02 -0.83559843969E+03  0.87156838645E+03  0.17212643879E+03 0.  0.
         24    2    3    3    0    0 -0.18125484328E+03 -0.63383075790E+02 -0.58942901745E+03  0.62490616457E+03  0.78806188792E+02 0.  0.
         -6    2    1    2    0  502  0.16640662151E+03  0.63937666878E+02 -0.82575986287E+03  0.86183247376E+03  0.17057746855E+03 0.  0.
        -24    2    5    5    0    0  0.11407923237E+03  0.60182066621E+02 -0.77178401239E+03  0.78641534956E+03  0.78502151872E+02 0.  0.
          5    1    3    3  501    0  0.14848221777E+02 -0.55459108887E+00 -0.24616942223E+03  0.24666222188E+03  0.47000000000E+01 0. -1.
        -11    1    4    4    0    0 -0.61307217433E+02 -0.41104089612E+02 -0.33096836232E+03  0.33909906804E+03  0.00000000000E+00 0.  1.
         12    1    4    4    0    0 -0.11994762585E+03 -0.22278986177E+02 -0.25846065513E+03  0.28580709653E+03  0.00000000000E+00 0. -1.
         -5    1    5    5    0  502  0.52327389140E+02  0.37556002579E+01 -0.53975850484E+02  0.75417124202E+02  0.47000000000E+01 0.  1.
         11    1    6    6    0    0  0.90053575558E+02  0.68725039713E+02 -0.46605900429E+03  0.47962878671E+03  0.00000000000E+00 0. -1.
        -12    1    6    6    0    0  0.24025656809E+02 -0.85429730921E+01 -0.30572500809E+03  0.30678656285E+03  0.00000000000E+00 0.  1.
</event>
<event>
12    1  0.1032880E+000  0.1898726E+03  0.7818608E-02  0.1159138E+00
         21   -1    0    0  501  502  0.00000000000E+00  0.00000000000E+00  0.64386995885E+03  0.64386995885E+03  0.00000000000E+00 0.  1.
         21   -1    0    0  502  503 -0.00000000000E+00 -0.00000000000E+00 -0.55265703596E+02  0.55265703596E+02  0.00000000000E+00 0.  1.
         -6    2    1    2    0  503 -0.92406333540E+01  0.64280517885E+02  0.29618474766E+03  0.35181956369E+03  0.17842148515E+03 0.  0.
        -24    2    3    3    0    0 -0.72371660731E+01  0.10945099203E+03  0.17314523878E+03  0.22065098376E+03  0.81704875576E+02 0.  0.
          6    2    1    2  501    0  0.92406333540E+01 -0.64280517885E+02  0.29241950759E+03  0.34731609876E+03  0.17578944721E+03 0.  0.
         24    2    5    5    0    0 -0.16455502987E+02 -0.70424312825E+02  0.81661246543E+02  0.13485628552E+03  0.79292440637E+02 0.  0.
          5    1    5    5  501    0  0.25696136341E+02  0.61437949396E+01  0.21075826105E+03  0.21245981323E+03  0.47000000000E+01 0. -1.
        -11    1    6    6    0    0 -0.42278215885E+02 -0.69455127089E+02  0.65135289940E+02  0.10418285950E+03  0.00000000000E+00 0.  1.
         12    1    6    6    0    0  0.25822712898E+02 -0.96918573604E+00  0.16525956603E+02  0.30673426024E+02  0.00000000000E+00 0. -1.
         -5    1    3    3    0  503 -0.20034672809E+01 -0.45170474143E+02  0.12303950888E+03  0.13116857993E+03  0.47000000000E+01 0.  1.
         11    1    4    4    0    0  0.18279588561E+02  0.96863031980E+02  0.92668137385E+02  0.13529218015E+03  0.00000000000E+00 0. -1.
        -12    1    4    4    0    0 -0.25516754634E+02  0.12587960048E+02  0.80477101396E+02  0.85358803614E+02  0.00000000000E+00 0.  1.
</event>
<event>
12    1  0.1032880E+000  0.1810083E+03  0.7818608E-02  0.1167103E+00
         21   -1    0    0  501  502  0.00000000000E+00  0.00000000000E+00  0.22901347240E+03  0.22901347240E+03  0.00000000000E+00 0. -1.
         21   -1    0    0  502  503 -0.00000000000E+00 -0.00000000000E+00 -0.16258782720E+03  0.16258782720E+03  0.00000000000E+00 0. -1.
         -6    2    1    2    0  503 -0.49288009613E+02  0.23984001169E+02  0.10249902243E+03  0.20703342679E+03  0.17132498359E+03 0.  0.
        -24    2    3    3    0    0 -0.49143633854E+02 -0.50573414406E+02  0.62639486630E+02  0.12235933597E+03  0.77944434181E+02 0.  0.
          6    2    1    2  501    0  0.49288009613E+02 -0.23984001169E+02 -0.36073377231E+02  0.18456787281E+03  0.17250933577E+03 0.  0.
         24    2    5    5    0    0 -0.38898613513E+02 -0.25059729647E+02 -0.11440264112E+02  0.92878626158E+02  0.79714913102E+02 0.  0.
          5    1    5    5  501    0  0.88186623126E+02  0.10757284778E+01 -0.24633113119E+02  0.91689246655E+02  0.47000000000E+01 0. -1.
        -11    1    6    6    0    0  0.24240550444E+02 -0.12185109495E+00 -0.17359629228E+01  0.24302936053E+02  0.00000000000E+00 0.  1.
         12    1    6    6    0    0 -0.63139163957E+02 -0.24937878552E+02 -0.97043011894E+01  0.68575690105E+02  0.00000000000E+00 0. -1.
         -5    1    3    3    0  503 -0.14437575904E+00  0.74557415575E+02  0.39859535802E+02  0.84674090819E+02  0.47000000000E+01 0.  1.
         13    1    4    4    0    0  0.14563170674E+02  0.93496100462E+01  0.14163859550E+02  0.22363274926E+02  0.00000000000E+00 0. -1.
        -14    1    4    4    0    0 -0.63706804528E+02 -0.59923024452E+02  0.48475627081E+02  0.99996061040E+02  0.00000000000E+00 0.  1.
</event>
<event>
12    1  0.1032880E+000  0.2222013E+03  0.7818608E-02  0.1132637E+00
         21   -1    0    0  501  502  0.00000000000E+00  0.00000000000E+00  0.37869667551E+03  0.37869667551E+03  0.00000000000E+00 0. -1.
         21   -1    0    0  502  503 -0.00000000000E+00 -0.00000000000E+00 -0.18297060915E+03  0.18297060915E+03  0.00000000000E+00 0. -1.
         -6    2    1    2    0  503 -0.63687415250E+02 -0.12426640158E+03  0.24983536660E+03  0.33297269718E+03  0.17016133885E+03 0.  0.
        -24    2    3    3    0    0 -0.91928868138E+02 -0.13350347371E+03  0.21597280114E+03  0.28767737179E+03  0.99196396686E+02 0.  0.
          6    2    1    2  501    0  0.63687415250E+02  0.12426640158E+03 -0.54109300239E+02  0.22869458748E+03  0.17284435932E+03 0.  0.
         24    2    5    5    0    0  0.16547420792E+02  0.11089970890E+02  0.19638617711E+02  0.85544564973E+02  0.80841775721E+02 0.  0.
          5    1    5    5  501    0  0.47139994458E+02  0.11317643069E+03 -0.73747917950E+02  0.14315002251E+03  0.47000000000E+01 0. -1.
        -11    1    6    6    0    0 -0.31396660575E+02  0.68017532769E+01  0.19163789242E+02  0.37406750206E+02  0.00000000000E+00 0.  1.
         12    1    6    6    0    0  0.47944081367E+02  0.42882176135E+01  0.47482846918E+00  0.48137814767E+02  0.00000000000E+00 0. -1.
         -5    1    3    3    0  503  0.28241452889E+02  0.92370721291E+01  0.33862565459E+02  0.45295325391E+02  0.47000000000E+01 0.  1.
         13    1    4    4    0    0 -0.26436085191E+02  0.23857726683E+01  0.81076209758E+02  0.85310669322E+02  0.00000000000E+00 0. -1.
        -14    1    4    4    0    0 -0.65492782947E+02 -0.13588924638E+03  0.13489659139E+03  0.20236670247E+03  0.00000000000E+00 0.  1.
</event>
<event>
12    1  0.1032880E+000  0.4467425E+03  0.7818608E-02  0.1028714E+00
         21   -1    0    0  501  502  0.00000000000E+00  0.00000000000E+00  0.40805695435E+03  0.40805695435E+03  0.00000000000E+00 0.  1.
         21   -1    0    0  502  503 -0.00000000000E+00 -0.00000000000E+00 -0.66820651629E+03  0.66820651629E+03  0.00000000000E+00 0.  1.
         -6    2    1    2    0  503 -0.71588509219E+02  0.40562888831E+03 -0.40884189002E+03  0.60542562430E+03  0.17242037537E+03 0.  0.
        -24    2    3    3    0    0 -0.10829362975E+03  0.33135007499E+03 -0.28796541373E+03  0.45880427353E+03  0.77826084733E+02 0.  0.
          6    2    1    2  501    0  0.71588509219E+02 -0.40562888831E+03  0.14869232807E+03  0.47083784634E+03  0.17297155671E+03 0.  0.
         24    2    5    5    0    0  0.77615546118E+02 -0.32301720459E+03  0.55552018492E+02  0.34610524142E+03  0.79614847346E+02 0.  0.
          5    1    5    5  501    0 -0.60270368987E+01 -0.82611683723E+02  0.93140309582E+02  0.12473260492E+03  0.47000000000E+01 0. -1.
        -11    1    6    6    0    0  0.95619641885E+00 -0.35905985977E+02 -0.17696912034E+02  0.40041663753E+02  0.00000000000E+00 0.  1.
         12    1    6    6    0    0  0.76659349699E+02 -0.28711121861E+03  0.73248930526E+02  0.30606357766E+03  0.00000000000E+00 0. -1.
         -5    1    3    3    0  503  0.36705120534E+02  0.74278813319E+02 -0.12087647629E+03  0.14662135077E+03  0.47000000000E+01 0.  1.
         13    1    4    4    0    0 -0.88988668870E+02  0.22736577067E+03 -0.15622159923E+03  0.28986094067E+03  0.00000000000E+00 0. -1.
        -14    1    4    4    0    0 -0.19304960884E+02  0.10398430433E+03 -0.13174381450E+03  0.16894333287E+03  0.00000000000E+00 0.  1.
</event>
<event>
12    1  0.1032880E+000  0.2379172E+03  0.7818608E-02  0.1121519E+00
         21   -1    0    0  503  502  0.00000000000E+00  0.00000000000E+00  0.67326043670E+03  0.67326043670E+03  0.00000000000E+00 0.  1.
         21   -1    0    0  501  503 -0.00000000000E+00 -0.00000000000E+00 -0.14169360232E+03  0.14169360232E+03  0.00000000000E+00 0.  1.
          6    2    1    2  501    0 -0.14350962530E+03  0.74784469695E+02  0.52782067392E+03  0.57896393307E+03  0.17440425029E+03 0.  0.
         24    2    3    3    0    0 -0.15001873982E+03  0.10498630477E+03  0.39747259784E+03  0.44492203532E+03  0.80270822818E+02 0.  0.
         -6    2    1    2    0  502  0.14350962530E+03 -0.74784469695E+02  0.37461604540E+01  0.23599010595E+03  0.17172526584E+03 0.  0.
        -24    2    5    5    0    0  0.11040365820E+03 -0.11644323265E+03  0.18185081842E+02  0.18065449320E+03  0.80977494012E+02 0.  0.
          5    1    3    3  501    0  0.65091145221E+01 -0.30201835074E+02  0.13034807609E+03  0.13404189775E+03  0.47000000000E+01 0. -1.
        -11    1    4    4    0    0 -0.74654782219E+02  0.63296186226E+01  0.16995186753E+03  0.18573378222E+03  0.00000000000E+00 0.  1.
         12    1    4    4    0    0 -0.75363957602E+02  0.98656686146E+02  0.22752073030E+03  0.25918825310E+03  0.00000000000E+00 0. -1.
         -5    1    5    5    0  502  0.33105967094E+02  0.41658762951E+02 -0.14438921388E+02  0.55335612753E+02  0.47000000000E+01 0.  1.
         11    1    6    6    0    0  0.29489100361E+02 -0.40153185303E+02 -0.31404194371E+02  0.58890650821E+02  0.00000000000E+00 0. -1.
        -12    1    6    6    0    0  0.80914557844E+02 -0.76290047343E+02  0.49589276213E+02  0.12176384238E+03  0.00000000000E+00 0.  1.
</event>
<event>
12    1  0.1032880E+000  0.3878821E+03  0.7818608E-02  0.1048068E+00
         21   -1    0    0  501  502  0.00000000000E+00  0.00000000000E+00  0.15124589472E+03  0.15124589472E+03  0.00000000000E+00 0.  1.
         21   -1    0    0  502  503 -0.00000000000E+00 -0.00000000000E+00 -0.10450651361E+04  0.10450651361E+04  0.00000000000E+00 0.  1.
         -6    2    1    2    0  503  0.13136176386E+03  0.32179556935E+03 -0.31524665203E+03  0.49974891143E+03  0.17193086226E+03 0.  0.
        -24    2    3    3    0    0  0.93659572776E+02  0.30623884875E+03 -0.22145522642E+03  0.39736537620E+03  0.79388140392E+02 0.  0.
          6    2    1    2  501    0 -0.13136176386E+03 -0.32179556935E+03 -0.57857258932E+03  0.69656211936E+03  0.17217503754E+03 0.  0.
         24    2    5    5    0    0 -0.98539066295E+02 -0.31832734270E+03 -0.56492310734E+03  0.66053773276E+03  0.78292620885E+02 0.  0.
          5    1    5    5  501    0 -0.32822697570E+02 -0.34682266515E+01 -0.13649481974E+02  0.36024386601E+02  0.47000000000E+01 0. -1.
        -11    1    6    6    0    0 -0.61148988778E+02 -0.13075241144E+03 -0.30888355121E+03  0.34094638894E+03  0.00000000000E+00 0.  1.
         12    1    6    6    0    0 -0.37390077517E+02 -0.18757493126E+03 -0.25603955614E+03  0.31959134381E+03  0.00000000000E+00 0. -1.
         -5    1    3    3    0  503  0.37702191089E+02  0.15556720601E+02 -0.93791425607E+02  0.10238353523E+03  0.47000000000E+01 0.  1.
         13    1    4    4    0    0  0.55213324202E+02  0.14661084365E+03 -0.15454669254E+03  0.22006346998E+03  0.00000000000E+00 0. -1.
        -14    1    4    4    0    0  0.38446248574E+02  0.15962800510E+03 -0.66908533882E+02  0.17730190622E+03  0.00000000000E+00 0.  1.
</event>
<event>
12    1  0.1032880E+000  0.3104665E+03  0.7818608E-02  0.1080503E+00
         21   -1    0    0  503  502  0.00000000000E+00  0.00000000000E+00  0.53066783721E+03  0.53066783721E+03  0.00000000000E+00 0. -1.
         21   -1    0    0  501  503 -0.00000000000E+00 -0.00000000000E+00 -0.18441352972E+03  0.18441352972E+03  0.00000000000E+00 0. -1.
          6    2    1    2  501    0  0.13584642300E+03  0.21935010154E+03  0.11739715607E+03  0.33192096226E+03  0.17268675469E+03 0.  0.
         24    2    3    3    0    0  0.31988353354E+01  0.58558962091E+02  0.60343548921E+02  0.11575811363E+03  0.79493473857E+02 0.  0.
         -6    2    1    2    0  502 -0.13584642300E+03 -0.21935010154E+03  0.22885715141E+03  0.38316040467E+03  0.16693586274E+03 0.  0.
        -24    2    5    5    0    0 -0.15962653928E+03 -0.15446119648E+03  0.19541289249E+03  0.30624049577E+03  0.79108466284E+02 0.  0.
          5    1    3    3  501    0  0.13264758766E+03  0.16079113945E+03  0.57053607148E+02  0.21616284863E+03  0.47000000000E+01 0. -1.
        -11    1    4    4    0    0  0.68364827357E+01  0.68362752070E+02  0.72392574248E+02  0.99804249273E+02  0.00000000000E+00 0.  1.
         12    1    4    4    0    0 -0.36376474003E+01 -0.98037899783E+01 -0.12049025327E+02  0.15953864356E+02  0.00000000000E+00 0. -1.
         -5    1    5    5    0  502  0.23780116285E+02 -0.64888905064E+02  0.33444258924E+02  0.76919908904E+02  0.47000000000E+01 0.  1.
         13    1    6    6    0    0 -0.50465690598E+02 -0.67013975989E+01  0.55552097720E+02  0.75350714784E+02  0.00000000000E+00 0. -1.
        -14    1    6    6    0    0 -0.10916084868E+03 -0.14775979888E+03  0.13986079477E+03  0.23088978099E+03  0.00000000000E+00 0.  1.
</event>
<event>
12    1  0.1032880E+000  0.3397706E+03  0.7818608E-02  0.1066946E+00
         21   -1    0    0  501  502  0.00000000000E+00  0.00000000000E+00  0.33495511152E+03  0.33495511152E+03  0.00000000000E+00 0. -1.
         21   -1    0    0  502  503 -0.00000000000E+00 -0.00000000000E+00 -0.36161960720E+03  0.36161960720E+03  0.00000000000E+00 0. -1.
         -6    2    1    2    0  503  0.24526141239E+03 -0.16025905215E+03  0.63201152865E+02  0.34559870487E+03  0.17206962219E+03 0.  0.
        -24    2    3    3    0    0  0.31258787767E+02 -0.40563173620E+02  0.23014999561E+02  0.97080609755E+02  0.79198937611E+02 0.  0.
          6    2    1    2  501    0 -0.24526141239E+03  0.16025905215E+03 -0.89865648551E+02  0.35097601384E+03  0.17109121339E+03 0.  0.
         24    2    5    5    0    0 -0.22540466707E+03  0.11918946136E+03 -0.20469704018E+02  0.26779615607E+03  0.79261470988E+02 0.  0.
          5    1    5    5  501    0 -0.19856745319E+02  0.41069590786E+02 -0.69395944533E+02  0.83179857776E+02  0.47000000000E+01 0. -1.
        -11    1    6    6    0    0 -0.10411550175E+03  0.95375089881E+02 -0.28062734968E+02  0.14395819730E+03  0.00000000000E+00 0.  1.
         12    1    6    6    0    0 -0.12128916532E+03  0.23814371482E+02  0.75930309495E+01  0.12383795877E+03  0.00000000000E+00 0. -1.
         -5    1    3    3    0  503  0.21400262463E+03 -0.11969587853E+03  0.40186153304E+02  0.24851809512E+03  0.47000000000E+01 0.  1.
         11    1    4    4    0    0 -0.19501619704E+02  0.87287783501E+01  0.14484538599E+02  0.25812915391E+02  0.00000000000E+00 0. -1.
        -12    1    4    4    0    0  0.50760407471E+02 -0.49291951971E+02  0.85304609616E+01  0.71267694364E+02  0.00000000000E+00 0.  1.
</event>
<event>
12    1  0.1032880E+000  0.2345806E+03  0.7818608E-02  0.1123889E+00
         21   -1    0    0  501  502  0.00000000000E+00  0.00000000000E+00  0.13169097522E+03  0.13169097522E+03  0.00000000000E+00 0. -1.
         21   -1    0    0  502  503 -0.00000000000E+00 -0.00000000000E+00 -0.41395381668E+03  0.41395381668E+03  0.00000000000E+00 0. -1.
         -6    2    1    2    0  503  0.13837352328E+03  0.61753173803E+02 -0.15181289913E+03  0.27941945434E+03  0.17907369628E+03 0.  0.
        -24    2    3    3    0    0  0.15482187942E+03  0.43182268816E+01 -0.11973214296E+03  0.21144455850E+03  0.79903403131E+02 0.  0.
          6    2    1    2  501    0 -0.13837352328E+03 -0.61753173803E+02 -0.13044994234E+03  0.26622533757E+03  0.17577843009E+03 0.  0.
         24    2    5    5    0    0 -0.33321206239E+02  0.24655507254E+02 -0.40387489095E+02  0.10302060429E+03  0.85228509376E+02 0.  0.
          5    1    5    5  501    0 -0.10505231704E+03 -0.86408681056E+02 -0.90062453243E+02  0.16320473327E+03  0.47000000000E+01 0. -1.
        -11    1    6    6    0    0 -0.61169512631E+02  0.72849044137E+01 -0.30519718950E+02  0.68747598886E+02  0.00000000000E+00 0.  1.
         12    1    6    6    0    0  0.27848306393E+02  0.17370602840E+02 -0.98677701450E+01  0.34273005407E+02  0.00000000000E+00 0. -1.
         -5    1    3    3    0  503 -0.16448356135E+02  0.57434946921E+02 -0.32080756169E+02  0.67974895835E+02  0.47000000000E+01 0.  1.
         13    1    4    4    0    0  0.84723692978E+02  0.38165594138E+02 -0.43900385251E+02  0.10277139949E+03  0.00000000000E+00 0. -1.
        -14    1    4    4    0    0  0.70098186440E+02 -0.33847367257E+02 -0.75831757710E+02  0.10867315901E+03  0.00000000000E+00 0.  1.
</event>
<event>
12    1  0.1032880E+000  0.1769665E+03  0.7818608E-02  0.1170975E+00
         21   -1    0    0  501  502  0.00000000000E+00  0.00000000000E+00  0.81826268988E+02  0.81826268988E+02  0.00000000000E+00 0. -1.
         21   -1    0    0  502  503 -0.00000000000E+00 -0.00000000000E+00 -0.39016685104E+03  0.39016685104E+03  0.00000000000E+00 0. -1.
         -6    2    1    2    0  503  0.59422887003E+01 -0.38521027485E+02 -0.11825076054E+03  0.21283890561E+03  0.17262090551E+03 0.  0.
        -24    2    3    3    0    0  0.23920605338E+02  0.39547062039E+02 -0.84772111645E+02  0.12588629551E+03  0.80776747951E+02 0.  0.
          6    2    1    2  501    0 -0.59422887003E+01  0.38521027485E+02 -0.19008982151E+03  0.25915421442E+03  0.17177772340E+03 0.  0.
         24    2    5    5    0    0 -0.52034411218E+02 -0.20321769720E+02 -0.80894907658E+02  0.12674357379E+03  0.79996207011E+02 0.  0.
          5    1    5    5  501    0  0.46092122517E+02  0.58842797205E+02 -0.10919491385E+03  0.13241064063E+03  0.47000000000E+01 0. -1.
        -13    1    6    6    0    0 -0.44354929551E+02  0.94586285499E+01 -0.59589216524E+01  0.45742039491E+02  0.00000000000E+00 0.  1.
         14    1    6    6    0    0 -0.76794816668E+01 -0.29780398270E+02 -0.74935986006E+02  0.81001534297E+02  0.00000000000E+00 0. -1.
         -5    1    3    3    0  503 -0.17978316638E+02 -0.78068089524E+02 -0.33478648900E+02  0.86952610100E+02  0.47000000000E+01 0.  1.
         11    1    4    4    0    0  0.10959864713E+02 -0.18134236170E+02 -0.56523592409E+02  0.60364605977E+02  0.00000000000E+00 0. -1.
        -12    1    4    4    0    0  0.12960740625E+02  0.57681298208E+02 -0.28248519236E+02  0.65521689535E+02  0.00000000000E+00 0.  1.
</event>
<event>
12    1  0.1032880E+000  0.2482345E+03  0.7818608E-02  0.1114618E+00
         21   -1    0    0  501  502  0.00000000000E+00  0.00000000000E+00  0.16370371010E+04  0.16370371010E+04  0.00000000000E+00 0. -1.
         21   -1    0    0  502  503 -0.00000000000E+00 -0.00000000000E+00 -0.46867192397E+03  0.46867192397E+03  0.00000000000E+00 0. -1.
         -6    2    1    2    0  503  0.73549742466E+02  0.16289251407E+03  0.15941986619E+04  0.16134093527E+04  0.17226964344E+03 0.  0.
        -24    2    3    3    0    0  0.36838289299E+00  0.42812015827E+02  0.93631121586E+03  0.94064429781E+03  0.79372524456E+02 0.  0.
          6    2    1    2  501    0 -0.73549742466E+02 -0.16289251407E+03 -0.42583348490E+03  0.49229967224E+03  0.17053232735E+03 0.  0.
         24    2    5    5    0    0  0.14259268467E+02 -0.47127639165E+02 -0.21900552984E+03  0.23949179726E+03  0.83477887732E+02 0.  0.
          5    1    5    5  501    0 -0.87809010933E+02 -0.11576487491E+03 -0.20682795505E+03  0.25280787498E+03  0.47000000000E+01 0. -1.
        -13    1    6    6    0    0  0.27125311215E+02 -0.23607332488E+02 -0.25367768755E+02  0.44006957942E+02  0.00000000000E+00 0.  1.
         14    1    6    6    0    0 -0.12866042747E+02 -0.23520306677E+02 -0.19363776109E+03  0.19548483931E+03  0.00000000000E+00 0. -1.
         -5    1    3    3    0  503  0.73181359573E+02  0.12008049824E+03  0.65788744604E+03  0.67276505490E+03  0.47000000000E+01 0.  1.
         11    1    4    4    0    0 -0.13989135456E+02 -0.17546560287E+02  0.12772838165E+03  0.12968468363E+03  0.00000000000E+00 0. -1.
        -12    1    4    4    0    0  0.14357518349E+02  0.60358576114E+02  0.80858283421E+03  0.81095961418E+03  0.00000000000E+00 0.  1.
</event>
<event>
12    1  0.1032880E+000  0.2475470E+03  0.7818608E-02  0.1115958E+00
         21   -1    0    0  501  502  0.00000000000E+00  0.00000000000E+00  0.25931504674E+03  0.25931504674E+03  0.00000000000E+00 0.  1.
         21   -1    0    0  502  503 -0.00000000000E+00 -0.00000000000E+00 -0.23280171164E+03  0.23280171164E+03  0.00000000000E+00 0.  1.
         -6    2    1    2    0  503 -0.28436187912E+02  0.16597967085E+03  0.40390537867E+02  0.24418111025E+03  0.17214863094E+03 0.  0.
        -24    2    3    3    0    0 -0.76897220060E+02  0.96894957826E+02 -0.79312842533E+01  0.14682476632E+03  0.78694290959E+02 0.  0.
          6    2    1    2  501    0  0.28436187912E+02 -0.16597967085E+03 -0.13877202775E+02  0.24793564813E+03  0.18144321685E+03 0.  0.
         24    2    5    5    0    0  0.37699709190E+01 -0.97067923663E+02  0.63025825561E+02  0.14166515868E+03  0.81611077755E+02 0.  0.
          5    1    5    5  501    0  0.24666216993E+02 -0.68911747182E+02 -0.76903028337E+02  0.10627048945E+03  0.47000000000E+01 0. -1.
        -11    1    6    6    0    0  0.29209346101E+02 -0.57139343434E+01  0.27118484240E+02  0.40264713246E+02  0.00000000000E+00 0.  1.
         12    1    6    6    0    0 -0.25439375182E+02 -0.91353989320E+02  0.35907341322E+02  0.10140044544E+03  0.00000000000E+00 0. -1.
         -5    1    3    3    0  503  0.48461032148E+02  0.69084713020E+02  0.48321822120E+02  0.97356343927E+02  0.47000000000E+01 0.  1.
         11    1    4    4    0    0  0.49625977662E+01  0.19527551578E+02  0.22448401612E+02  0.30164273275E+02  0.00000000000E+00 0. -1.
        -12    1    4    4    0    0 -0.81859817826E+02  0.77367406247E+02 -0.30379685866E+02  0.11666049304E+03  0.00000000000E+00 0.  1.
</event>
<event>
12    1  0.1032880E+000  0.2148259E+03  0.7818608E-02  0.1138357E+00
         21   -1    0    0  503  502  0.00000000000E+00  0.00000000000E+00  0.52432163634E+03  0.52432163634E+03  0.00000000000E+00 0. -1.
         21   -1    0    0  501  503 -0.00000000000E+00 -0.00000000000E+00 -0.12557723518E+03  0.12557723518E+03  0.00000000000E+00 0. -1.
          6    2    1    2  501    0  0.11197760496E+03 -0.65123007235E+02  0.37890761663E+03  0.43415901364E+03  0.16775898518E+03 0.  0.
         24    2    3    3    0    0  0.11465161838E+03 -0.97954081553E+02  0.35252763427E+03  0.39169699229E+03  0.80067503723E+02 0.  0.
         -6    2    1    2    0  502 -0.11197760496E+03  0.65123007235E+02  0.19836784532E+02  0.21573985788E+03  0.17137735607E+03 0.  0.
        -24    2    5    5    0    0 -0.96878123387E+01 -0.52015862359E+01  0.37996893483E+02  0.90198511393E+02  0.81062305271E+02 0.  0.
          5    1    3    3  501    0 -0.26740134206E+01  0.32831074318E+02  0.26379982355E+02  0.42462021357E+02  0.47000000000E+01 0. -1.
        -11    1    4    4    0    0 -0.15369778115E+01 -0.59492850051E+01  0.90121125730E+02  0.90330358107E+02  0.00000000000E+00 0.  1.
         12    1    4    4    0    0  0.11618859619E+03 -0.92004796548E+02  0.26240650854E+03  0.30136663418E+03  0.00000000000E+00 0. -1.
         -5    1    5    5    0  502 -0.10228979262E+03  0.70324593471E+02 -0.18160108951E+02  0.12554134649E+03  0.47000000000E+01 0.  1.
         13    1    6    6    0    0 -0.36016665931E+02 -0.28611174168E+02  0.16185588462E+02  0.48762411609E+02  0.00000000000E+00 0. -1.
        -14    1    6    6    0    0  0.26328853592E+02  0.23409587932E+02  0.21811305021E+02  0.41436099784E+02  0.00000000000E+00 0.  1.
</event>
<event>
12    1  0.1032880E+000  0.2670543E+03  0.7818608E-02  0.1103210E+00
         21   -1    0    0  503  502  0.00000000000E+00  0.00000000000E+00  0.12790868333E+04  0.12790868333E+04  0.00000000000E+00 0. -1.
         21   -1    0    0  501  503 -0.00000000000E+00 -0.00000000000E+00 -0.14751280074E+03  0.14751280074E+03  0.00000000000E+00 0.  1.
          6    2    1    2  501    0 -0.51799974559E+02  0.19777861834E+03  0.15600562649E+01  0.26545813399E+03  0.16931027107E+03 0.  0.
         24    2    3    3    0    0 -0.74077671910E+02  0.13632997388E+03  0.52606263354E+02  0.18239167287E+03  0.80161961886E+02 0.  0.
         -6    2    1    2    0  502  0.51799974559E+02 -0.19777861834E+03  0.11300139763E+04  0.11611415000E+04  0.17180913038E+03 0.  0.
        -24    2    5    5    0    0  0.32036377825E+02 -0.55557696256E+02  0.70309647761E+03  0.71069946036E+03  0.81462132410E+02 0.  0.
          5    1    3    3  501    0  0.22277697351E+02  0.61448644456E+02 -0.51046207089E+02  0.83066461120E+02  0.47000000000E+01 0. -1.
        -13    1    4    4    0    0 -0.41228784099E+02  0.18564712227E+02  0.38375419808E+02  0.59305429969E+02  0.00000000000E+00 0.  1.
         14    1    4    4    0    0 -0.32848887811E+02  0.11776526166E+03  0.14230843546E+02  0.12308624290E+03  0.00000000000E+00 0. -1.
         -5    1    5    5    0  502  0.19763596734E+02 -0.14222092208E+03  0.42691749868E+03  0.45044203968E+03  0.47000000000E+01 0.  1.
         13    1    6    6    0    0  0.27619152345E+02 -0.45851219875E+02  0.18744940900E+03  0.19494212699E+03  0.00000000000E+00 0. -1.
        -14    1    6    6    0    0  0.44172254795E+01 -0.97064763806E+01  0.51564706861E+03  0.51575733338E+03  0.00000000000E+00 0.  1.
</event>
<event>
12    1  0.1032880E+000  0.1916658E+03  0.7818608E-02  0.1157634E+00
         21   -1    0    0  503  502  0.00000000000E+00  0.00000000000E+00  0.22182124332E+02  0.22182124332E+02  0.00000000000E+00 0.  1.
         21   -1    0    0  501  503 -0.00000000000E+00 -0.00000000000E+00 -0.17995538978E+04  0.17995538978E+04  0.00000000000E+00 0.  1.
          6    2    1    2  501    0 -0.45907416149E+02 -0.67381084101E+02 -0.61585177666E+03  0.64498775371E+03  0.17345918904E+03 0.  0.
         24    2    3    3    0    0 -0.60328536346E+02  0.33620833728E+01 -0.48520645501E+03  0.49564635114E+03  0.81173674983E+02 0.  0.
         -6    2    1    2    0  502  0.45907416149E+02  0.67381084101E+02 -0.11615199968E+04  0.11767482684E+04  0.17017662269E+03 0.  0.
        -24    2    5    5    0    0  0.38122637092E+02  0.45636798135E+02 -0.11413722481E+04  0.11457411961E+04  0.80350649567E+02 0.  0.
          5    1    3    3  501    0  0.14421120197E+02 -0.70743167474E+02 -0.13064532165E+03  0.14934140257E+03  0.47000000000E+01 0. -1.
        -13    1    4    4    0    0 -0.14049283192E+02 -0.15076580503E+02 -0.36425247739E+03  0.36483496669E+03  0.00000000000E+00 0.  1.
         14    1    4    4    0    0 -0.46279253154E+02  0.18438663875E+02 -0.12095397763E+03  0.13081138445E+03  0.00000000000E+00 0. -1.
         -5    1    5    5    0  502  0.77847790573E+01  0.21744285966E+02 -0.20147748721E+02  0.31007072349E+02  0.47000000000E+01 0.  1.
         13    1    6    6    0    0  0.78493201318E+01  0.12997927076E+02 -0.90991892640E+03  0.91004560905E+03  0.00000000000E+00 0. -1.
        -14    1    6    6    0    0  0.30273316960E+02  0.32638871059E+02 -0.23145332169E+03  0.23569558703E+03  0.00000000000E+00 0.  1.
</event>
<event>
12    1  0.1032880E+000  0.2380608E+03  0.7818608E-02  0.1121561E+00
         21   -1    0    0  503  502  0.00000000000E+00  0.00000000000E+00  0.47095263946E+02  0.47095263946E+02  0.00000000000E+00 0. -1.
         21   -1    0    0  501  503 -0.00000000000E+00 -0.00000000000E+00 -0.13321855700E+04  0.13321855700E+04  0.00000000000E+00 0. -1.
          6    2    1    2  501    0 -0.15305244360E+03  0.46795460079E+02 -0.41341544431E+03  0.47568246991E+03  0.17247207605E+03 0.  0.
         24    2    3    3    0    0 -0.46824642454E+02 -0.33447146904E+02 -0.21728235016E+03  0.23858860173E+03  0.80010264389E+02 0.  0.
         -6    2    1    2    0  502  0.15305244360E+03 -0.46795460079E+02 -0.87167486176E+03  0.90359836405E+03  0.17623300855E+03 0.  0.
        -24    2    5    5    0    0  0.16733995805E+03 -0.68208115837E+02 -0.64105446410E+03  0.67149818586E+03  0.85463319873E+02 0.  0.
          5    1    3    3  501    0 -0.10622780114E+03  0.80242606983E+02 -0.19613309414E+03  0.23709386818E+03  0.47000000000E+01 0. -1.
        -13    1    4    4    0    0 -0.59314145149E+02 -0.30837955326E+02 -0.21559078940E+03  0.22571782335E+03  0.00000000000E+00 0.  1.
         14    1    4    4    0    0  0.12489502695E+02 -0.26091915777E+01 -0.16915607571E+01  0.12870778378E+02  0.00000000000E+00 0. -1.
         -5    1    5    5    0  502 -0.14287514458E+02  0.21412655758E+02 -0.23062039766E+03  0.23210017819E+03  0.47000000000E+01 0.  1.
         11    1    6    6    0    0  0.56037288271E+01  0.16195785740E+02 -0.66660682830E+02  0.68828423546E+02  0.00000000000E+00 0. -1.
        -12    1    6    6    0    0  0.16173622923E+03 -0.84403901578E+02 -0.57439378127E+03  0.60266976231E+03  0.00000000000E+00 0.  1.
</event>
<event>
12    1  0.1032880E+000  0.1842805E+03  0.7818608E-02  0.1164473E+00
         21   -1    0    0  501  502  0.00000000000E+00  0.00000000000E+00  0.60509050671E+03  0.60509050671E+03  0.00000000000E+00 0. -1.
         21   -1    0    0  502  503 -0.00000000000E+00 -0.00000000000E+00 -0.11073655204E+03  0.11073655204E+03  0.00000000000E+00 0. -1.
         -6    2    1    2    0  503  0.46754187113E+02  0.42201882682E+02  0.50179130053E+03  0.53455945630E+03  0.17318299605E+03 0.  0.
        -24    2    3    3    0    0  0.53852211332E+02  0.76338128206E+02  0.47388971713E+03  0.48965674411E+03  0.80403311897E+02 0.  0.
          6    2    1    2  501    0 -0.46754187113E+02 -0.42201882682E+02 -0.74373458577E+01  0.18126760245E+03  0.16981070835E+03 0.  0.
         24    2    5    5    0    0 -0.10031357089E+02 -0.61229355416E+02  0.47570279026E+02  0.11228543259E+03  0.80594198523E+02 0.  0.
          5    1    5    5  501    0 -0.36722830024E+02  0.19027472733E+02 -0.55007624884E+02  0.68982169863E+02  0.47000000000E+01 0. -1.
        -11    1    6    6    0    0 -0.44946769282E+02 -0.38968129211E+02  0.34960323213E+02  0.68999647552E+02  0.00000000000E+00 0.  1.
         12    1    6    6    0    0  0.34915412193E+02 -0.22261226204E+02  0.12609955814E+02  0.43285785038E+02  0.00000000000E+00 0. -1.
         -5    1    3    3    0  503 -0.70980242187E+01 -0.34136245523E+02  0.27901583398E+02  0.44902712194E+02  0.47000000000E+01 0.  1.
         13    1    4    4    0    0  0.14755646881E+02 -0.42674321698E+01  0.21795483708E+03  0.21849542581E+03  0.00000000000E+00 0. -1.
        -14    1    4    4    0    0  0.39096564451E+02  0.80605560376E+02  0.25593488005E+03  0.27116131830E+03  0.00000000000E+00 0.  1.
</event>
<event>
12    1  0.1032880E+000  0.1886888E+03  0.7818608E-02  0.1159896E+00
         21   -1    0    0  503  502  0.00000000000E+00  0.00000000000E+00  0.19513568972E+04  0.19513568972E+04  0.00000000000E+00 0.  1.
         21   -1    0    0  501  503 -0.00000000000E+00 -0.00000000000E+00 -0.18145387526E+02  0.18145387526E+02  0.00000000000E+00 0.  1.
          6    2    1    2  501    0 -0.33449513185E+02  0.67920553853E+02  0.97920179406E+03  0.99701167495E+03  0.17165096833E+03 0.  0.
         24    2    3    3    0    0 -0.44321186122E+02  0.92224223602E+01  0.84822018673E+03  0.85299106750E+03  0.77890021399E+02 0.  0.
         -6    2    1    2    0  502  0.33449513185E+02 -0.67920553853E+02  0.95400971566E+03  0.97249060983E+03  0.17283337945E+03 0.  0.
        -24    2    5    5    0    0  0.31742596022E+02 -0.75960940126E+02  0.34840920679E+03  0.36681608690E+03  0.79921270029E+02 0.  0.
          5    1    3    3  501    0  0.10871672937E+02  0.58698131493E+02  0.13098160733E+03  0.14402060745E+03  0.47000000000E+01 0. -1.
        -13    1    4    4    0    0 -0.14246851662E+02 -0.24344729316E+02  0.11581347851E+03  0.11919899510E+03  0.00000000000E+00 0.  1.
         14    1    4    4    0    0 -0.30074334461E+02  0.33567151676E+02  0.73240670822E+03  0.73379207240E+03  0.00000000000E+00 0. -1.
         -5    1    5    5    0  502  0.17069171635E+01  0.80403862725E+01  0.60560050887E+03  0.60567452293E+03  0.47000000000E+01 0.  1.
         13    1    6    6    0    0 -0.10618021245E+02 -0.70455849303E+02  0.23779398236E+03  0.24823929407E+03  0.00000000000E+00 0. -1.
        -14    1    6    6    0    0  0.42360617267E+02 -0.55050908228E+01  0.11061522444E+03  0.11857679283E+03  0.00000000000E+00 0.  1.
</event>
<event>
12    1  0.1032880E+000  0.2675503E+03  0.7818608E-02  0.1104278E+00
         21   -1    0    0  501  502  0.00000000000E+00  0.00000000000E+00  0.57363910549E+03  0.57363910549E+03  0.00000000000E+00 0.  1.
         21   -1    0    0  502  503 -0.00000000000E+00 -0.00000000000E+00 -0.12688368640E+03  0.12688368640E+03  0.00000000000E+00 0.  1.
         -6    2    1    2    0  503 -0.42978600524E+02 -0.19998687091E+03  0.31024154465E+03  0.40967421246E+03  0.17245647477E+03 0.  0.
        -24    2    3    3    0    0  0.41257199068E+02 -0.80563319530E+02  0.13479090081E+03  0.18128272186E+03  0.80636427094E+02 0.  0.
          6    2    1    2  501    0  0.42978600524E+02  0.19998687091E+03  0.13651387445E+03  0.29084857942E+03  0.15528988890E+03 0.  0.
         24    2    5    5    0    0 -0.10854833891E+01  0.19484146432E+03  0.99252246830E+02  0.23272253025E+03  0.79651698609E+02 0.  0.
          5    1    5    5  501    0  0.44064083913E+02  0.51454065902E+01  0.37261627615E+02  0.58126049174E+02  0.47000000000E+01 0. -1.
        -13    1    6    6    0    0  0.10937494890E+02  0.13862669342E+03  0.29178160943E+02  0.14208572764E+03  0.00000000000E+00 0.  1.
         14    1    6    6    0    0 -0.12022978279E+02  0.56214770901E+02  0.70074085887E+02  0.90636802608E+02  0.00000000000E+00 0. -1.
         -5    1    3    3    0  503 -0.84235799592E+02 -0.11942355138E+03  0.17545064384E+03  0.22839149061E+03  0.47000000000E+01 0.  1.
         13    1    4    4    0    0 -0.17976072800E+02 -0.11499845981E+02  0.59414305661E+02  0.63130383874E+02  0.00000000000E+00 0. -1.
        -14    1    4    4    0    0  0.59233271868E+02 -0.69063473548E+02  0.75376595146E+02  0.11815233798E+03  0.00000000000E+00 0.  1.
</event>
<event>
12    1  0.1032880E+000  0.2098931E+03  0.7818608E-02  0.1142401E+00
         21   -1    0    0  503  502  0.00000000000E+00  0.00000000000E+00  0.92021160159E+02  0.92021160159E+02  0.00000000000E+00 0.  1.
         21   -1    0    0  501  503 -0.00000000000E+00 -0.00000000000E+00 -0.56313670369E+03  0.56313670369E+03  0.00000000000E+00 0.  1.
          6    2    1    2  501    0 -0.11794993869E+02 -0.11423463819E+03 -0.10072999726E+03  0.22943430179E+03  0.17118671691E+03 0.  0.
         24    2    3    3    0    0  0.56172600543E+02 -0.89260700446E+02 -0.77317605838E+02  0.15318784922E+03  0.79785157023E+02 0.  0.
         -6    2    1    2    0  502  0.11794993869E+02  0.11423463819E+03 -0.37038554627E+03  0.42572356206E+03  0.17568842867E+03 0.  0.
        -24    2    5    5    0    0  0.25888448194E+02  0.40966655146E+02 -0.32592586144E+03  0.33874324033E+03  0.78554676053E+02 0.  0.
          5    1    3    3  501    0 -0.67967594412E+02 -0.24973937740E+02 -0.23412391422E+02  0.76246452563E+02  0.47000000000E+01 0. -1.
        -13    1    4    4    0    0  0.38351455971E+01 -0.47087561562E+02 -0.71531815648E+02  0.85724835640E+02  0.00000000000E+00 0.  1.
         14    1    4    4    0    0  0.52337454946E+02 -0.42173138884E+02 -0.57857901900E+01  0.67463013583E+02  0.00000000000E+00 0. -1.
         -5    1    5    5    0  502 -0.14093454325E+02  0.73267983039E+02 -0.44459684828E+02  0.86980321731E+02  0.47000000000E+01 0.  1.
         13    1    6    6    0    0  0.38304493973E+02  0.10619024989E+02 -0.68186364527E+02  0.78926410393E+02  0.00000000000E+00 0. -1.
        -14    1    6    6    0    0 -0.12416045779E+02  0.30347630157E+02 -0.25773949691E+03  0.25981682994E+03  0.00000000000E+00 0.  1.
</event>
<event>
12    1  0.1032880E+000  0.1804305E+03  0.7818608E-02  0.1168085E+00
         21   -1    0    0  501  502  0.00000000000E+00  0.00000000000E+00  0.57490985839E+03  0.57490985839E+03  0.00000000000E+00 0. -1.
         21   -1    0    0  502  503 -0.00000000000E+00 -0.00000000000E+00 -0.59192095254E+02  0.59192095254E+02  0.00000000000E+00 0. -1.
         -6    2    1    2    0  503 -0.44121488839E+02  0.15426573655E+02  0.18312535550E+03  0.25707987958E+03  0.17427129340E+03 0.  0.
        -24    2    3    3    0    0 -0.53293982062E+02  0.51688747199E+02  0.53796853026E+02  0.12236896163E+03  0.81043730561E+02 0.  0.
          6    2    1    2  501    0  0.44121488839E+02 -0.15426573655E+02  0.33259240764E+03  0.37702207407E+03  0.17129871502E+03 0.  0.
         24    2    5    5    0    0  0.70560795804E+02  0.68356511950E+01  0.11640302653E+03  0.15803672727E+03  0.80002440900E+02 0.  0.
          5    1    5    5  501    0 -0.26439306966E+02 -0.22262224850E+02  0.21618938111E+03  0.21898534680E+03  0.47000000000E+01 0. -1.
        -11    1    6    6    0    0  0.29703124849E+02  0.36215912941E+02  0.23556361277E+02  0.52428714771E+02  0.00000000000E+00 0.  1.
         12    1    6    6    0    0  0.40857670956E+02 -0.29380261746E+02  0.92846665248E+02  0.10560801250E+03  0.00000000000E+00 0. -1.
         -5    1    3    3    0  503  0.91724932238E+01 -0.36262173545E+02  0.12932850248E+03  0.13471091795E+03  0.47000000000E+01 0.  1.
         11    1    4    4    0    0 -0.97391902821E+01 -0.18629888018E+02 -0.40825241824E+01  0.21414750958E+02  0.00000000000E+00 0. -1.
        -12    1    4    4    0    0 -0.43554791780E+02  0.70318635217E+02  0.57879377208E+02  0.10095421067E+03  0.00000000000E+00 0.  1.
</event>
<event>
12    1  0.1032880E+000  0.4072923E+03  0.7818608E-02  0.1041370E+00
         21   -1    0    0  501  502  0.00000000000E+00  0.00000000000E+00  0.78442322356E+03  0.78442322356E+03  0.00000000000E+00 0.  1.
         21   -1    0    0  502  503 -0.00000000000E+00 -0.00000000000E+00 -0.21614100707E+03  0.21614100707E+03  0.00000000000E+00 0.  1.
         -6    2    1    2    0  503  0.34142745524E+03  0.13728013183E+03  0.20693278753E+03  0.45684589131E+03  0.17455213568E+03 0.  0.
        -24    2    3    3    0    0  0.30274537394E+03  0.61313290255E+02  0.18497488349E+03  0.36868975720E+03  0.79387332319E+02 0.  0.
          6    2    1    2  501    0 -0.34142745524E+03 -0.13728013183E+03  0.36134942897E+03  0.54371833932E+03  0.17215597845E+03 0.  0.
         24    2    5    5    0    0 -0.59703850807E+02 -0.49305288253E+02  0.84213368320E+02  0.13883039371E+03  0.78653833739E+02 0.  0.
          5    1    5    5  501    0 -0.28172360443E+03 -0.87974843580E+02  0.27713606065E+03  0.40488794562E+03  0.47000000000E+01 0. -1.
        -11    1    6    6    0    0 -0.72147888572E+00 -0.47602485491E+02  0.55767295413E+02  0.73324677936E+02  0.00000000000E+00 0.  1.
         12    1    6    6    0    0 -0.58982371921E+02 -0.17028027620E+01  0.28446072907E+02  0.65505715770E+02  0.00000000000E+00 0. -1.
         -5    1    3    3    0  503  0.38682081294E+02  0.75966841578E+02  0.21957904033E+02  0.88156134115E+02  0.47000000000E+01 0.  1.
         11    1    4    4    0    0  0.22678871636E+03  0.24951658632E+02  0.10017570208E+03  0.24918041341E+03  0.00000000000E+00 0. -1.
        -12    1    4    4    0    0  0.75956657582E+02  0.36361631623E+02  0.84799181412E+02  0.11950934379E+03  0.00000000000E+00 0.  1.
</event>
<event>
12    1  0.1032880E+000  0.1854609E+03  0.7818608E-02  0.1163222E+00
         21   -1    0    0  501  502  0.00000000000E+00  0.00000000000E+00  0.10551935846E+03  0.10551935846E+03  0.00000000000E+00 0. -1.
         21   -1    0    0  502  503 -0.00000000000E+00 -0.00000000000E+00 -0.33129095191E+03  0.33129095191E+03  0.00000000000E+00 0.  1.
         -6    2    1    2    0  503  0.59719752073E+02 -0.26113949235E+02 -0.76040276678E+02  0.20044418958E+03  0.17362995804E+03 0.  0.
        -24    2    3    3    0    0  0.17205494017E+02  0.46859466369E+02 -0.66933076815E+02  0.11537003010E+03  0.79613871025E+02 0.  0.
          6    2    1    2  501    0 -0.59719752073E+02  0.26113949235E+02 -0.14973131678E+03  0.23636612079E+03  0.17088326044E+03 0.  0.
         24    2    5    5    0    0  0.30965354462E+02  0.29597590505E+00 -0.96968527661E+02  0.12821641802E+03  0.77959051518E+02 0.  0.
          5    1    5    5  501    0 -0.90685106535E+02  0.25817973330E+02 -0.52762789115E+02  0.10814970277E+03  0.47000000000E+01 0. -1.
        -13    1    6    6    0    0  0.28351119952E+02  0.12553402797E+02 -0.10747743434E+03  0.11186050607E+03  0.00000000000E+00 0.  1.
         14    1    6    6    0    0  0.26142345098E+01 -0.12257426892E+02  0.10508906682E+02  0.16355911951E+02  0.00000000000E+00 0. -1.
         -5    1    3    3    0  503  0.42514258056E+02 -0.72973415604E+02 -0.91071998628E+01  0.85074159487E+02  0.47000000000E+01 0.  1.
         13    1    4    4    0    0  0.31637628709E+02  0.58474025822E+02 -0.70058092542E+02  0.96583060506E+02  0.00000000000E+00 0. -1.
        -14    1    4    4    0    0 -0.14432134692E+02 -0.11614559453E+02  0.31250157261E+01  0.18786969589E+02  0.00000000000E+00 0.  1.
</event>
<event>
12    1  0.1032880E+000  0.3288173E+03  0.7818608E-02  0.1071745E+00
         21   -1    0    0  503  502  0.00000000000E+00  0.00000000000E+00  0.13890222960E+03  0.13890222960E+03  0.00000000000E+00 0. -1.
         21   -1    0    0  501  503 -0.00000000000E+00 -0.00000000000E+00 -0.80231649639E+03  0.80231649639E+03  0.00000000000E+00 0. -1.
          6    2    1    2  501    0 -0.19333240498E+03  0.20277891902E+03 -0.24710181055E+03  0.41071249438E+03  0.17067143713E+03 0.  0.
         24    2    3    3    0    0 -0.12623006155E+03  0.18695478049E+03 -0.24371573964E+03  0.34152663363E+03  0.79730554619E+02 0.  0.
         -6    2    1    2    0  502  0.19333240498E+03 -0.20277891902E+03 -0.41631245624E+03  0.53050623160E+03  0.17211650628E+03 0.  0.
        -24    2    5    5    0    0  0.81697630431E+02 -0.80185328184E+02 -0.88216352150E+02  0.16286421153E+03  0.75089526146E+02 0.  0.
          5    1    3    3  501    0 -0.67102343420E+02  0.15824138528E+02 -0.33860709131E+01  0.69185860758E+02  0.47000000000E+01 0. -1.
        -13    1    4    4    0    0 -0.54228980074E+02  0.13650211450E+03 -0.11953197139E+03  0.18937133291E+03  0.00000000000E+00 0.  1.
         14    1    4    4    0    0 -0.72001081481E+02  0.50452665988E+02 -0.12418376825E+03  0.15215530071E+03  0.00000000000E+00 0. -1.
         -5    1    5    5    0  502  0.11163477454E+03 -0.12259359084E+03 -0.32809610409E+03  0.36764202007E+03  0.47000000000E+01 0.  1.
         11    1    6    6    0    0 -0.28432904608E+01  0.11674855445E+02 -0.89636945539E+01  0.14991143064E+02  0.00000000000E+00 0. -1.
        -12    1    6    6    0    0  0.84540920891E+02 -0.91860183629E+02 -0.79252657596E+02  0.14787306847E+03  0.00000000000E+00 0.  1.
</event>
<event>
12    1  0.1032880E+000  0.1861715E+03  0.7818608E-02  0.1162115E+00
         21   -1    0    0  501  502  0.00000000000E+00  0.00000000000E+00  0.13596275479E+02  0.13596275479E+02  0.00000000000E+00 0. -1.
         21   -1    0    0  502  503 -0.00000000000E+00 -0.00000000000E+00 -0.25440530318E+04  0.25440530318E+04  0.00000000000E+00 0. -1.
         -6    2    1    2    0  503  0.64149371894E+02 -0.27758859240E+02 -0.13133660264E+04  0.13264021075E+04  0.17183287011E+03 0.  0.
        -24    2    3    3    0    0  0.20528613915E+02  0.63448486944E+01 -0.29333648640E+03  0.30486004477E+03  0.80197702886E+02 0.  0.
          6    2    1    2  501    0 -0.64149371894E+02  0.27758859240E+02 -0.12170907299E+04  0.12312471998E+04  0.17255180662E+03 0.  0.
         24    2    5    5    0    0 -0.93718006821E+02 -0.54469974404E+00 -0.56742851582E+03  0.58027985956E+03  0.77241396586E+02 0.  0.
          5    1    5    5  501    0  0.29568634927E+02  0.28303558984E+02 -0.64966221411E+03  0.65096734024E+03  0.47000000000E+01 0. -1.
        -11    1    6    6    0    0 -0.65669780486E+02  0.22677853097E+02 -0.48776939028E+03  0.49269238190E+03  0.00000000000E+00 0.  1.
         12    1    6    6    0    0 -0.28048226335E+02 -0.23222552841E+02 -0.79659125545E+02  0.87587477664E+02  0.00000000000E+00 0. -1.
         -5    1    3    3    0  503  0.43620757978E+02 -0.34103707935E+02 -0.10200295400E+04  0.10215420627E+04  0.47000000000E+01 0.  1.
         11    1    4    4    0    0  0.60885940344E+01 -0.17902620854E+02 -0.26202793349E+03  0.26270936934E+03  0.00000000000E+00 0. -1.
        -12    1    4    4    0    0  0.14440019881E+02  0.24247469549E+02 -0.31308552914E+02  0.42150675430E+02  0.00000000000E+00 0.  1.
</event>
<event>
12    1  0.1032880E+000  0.2154039E+03  0.7818608E-02  0.1137552E+00
         21   -1    0    0  501  502  0.00000000000E+00  0.00000000000E+00  0.55315790383E+02  0.55315790383E+02  0.00000000000E+00 0. -1.
         21   -1    0    0  502  503 -0.00000000000E+00 -0.00000000000E+00 -0.93079613626E+03  0.93079613626E+03  0.00000000000E+00 0. -1.
         -6    2    1    2    0  503  0.12580810660E+03 -0.27371180972E+02 -0.27849797557E+03  0.35145708256E+03  0.17141790236E+03 0.  0.
        -24    2    3    3    0    0  0.98410636058E+02 -0.76906322996E+02 -0.24248863846E+03  0.28420298197E+03  0.79820795353E+02 0.  0.
          6    2    1    2  501    0 -0.12580810660E+03  0.27371180972E+02 -0.59698237031E+03  0.63465484408E+03  0.17269035707E+03 0.  0.
         24    2    5    5    0    0 -0.21608482303E+01  0.40121290314E+02 -0.28760066666E+03  0.30120269108E+03  0.79965807995E+02 0.  0.
          5    1    5    5  501    0 -0.12364725837E+03 -0.12750109342E+02 -0.30938170365E+03  0.33345215300E+03  0.47000000000E+01 0. -1.
        -11    1    6    6    0    0  0.72269994593E+01  0.29335290704E+02 -0.28508788410E+03  0.28668430453E+03  0.00000000000E+00 0.  1.
         12    1    6    6    0    0 -0.93878476896E+01  0.10785999610E+02 -0.25127825587E+01  0.14518386550E+02  0.00000000000E+00 0. -1.
         -5    1    3    3    0  503  0.27397470544E+02  0.49535142023E+02 -0.36009337109E+02  0.67254100592E+02  0.47000000000E+01 0.  1.
         13    1    4    4    0    0 -0.12783443866E+02 -0.14823230879E+02 -0.46745097945E+02  0.50677892544E+02  0.00000000000E+00 0. -1.
        -14    1    4    4    0    0  0.11119407992E+03 -0.62083092116E+02 -0.19574354052E+03  0.23352508943E+03  0.00000000000E+00 0.  1.
</event>
<event>
12    1  0.1032880E+000  0.1885377E+03  0.7818608E-02  0.1160339E+00
         21   -1    0    0  501  502  0.00000000000E+00  0.00000000000E+00  0.33790894124E+03  0.33790894124E+03  0.00000000000E+00 0. -1.
         21   -1    0    0  502  503 -0.00000000000E+00 -0.00000000000E+00 -0.10457520163E+03  0.10457520163E+03  0.00000000000E+00 0. -1.
         -6    2    1    2    0  503  0.71027423697E+02  0.99306768759E+01  0.13573811320E+03  0.23231724236E+03  0.17436442431E+03 0.  0.
        -24    2    3    3    0    0  0.10734122442E+03 -0.15455563428E+02  0.13168151664E+03  0.18757688814E+03  0.78000347685E+02 0.  0.
          6    2    1    2  501    0 -0.71027423697E+02 -0.99306768759E+01  0.97595626414E+02  0.21016690050E+03  0.17176060815E+03 0.  0.
         24    2    5    5    0    0 -0.34047069286E+02 -0.16491136005E+01 -0.19849640742E+02  0.86669484822E+02  0.77172980110E+02 0.  0.
          5    1    5    5  501    0 -0.36980354411E+02 -0.82815632753E+01  0.11744526716E+03  0.12349741568E+03  0.47000000000E+01 0. -1.
        -11    1    6    6    0    0 -0.35204088055E+01 -0.37058543325E+02 -0.12938941694E+02  0.39409962239E+02  0.00000000000E+00 0.  1.
         12    1    6    6    0    0 -0.30526660480E+02  0.35409429724E+02 -0.69106990477E+01  0.47259522583E+02  0.00000000000E+00 0. -1.
         -5    1    3    3    0  503 -0.36313800727E+02  0.25386240304E+02  0.40565965565E+01  0.44740354219E+02  0.47000000000E+01 0.  1.
         13    1    4    4    0    0  0.54771924040E+02  0.21096699015E+01  0.12620368479E+02  0.56246671641E+02  0.00000000000E+00 0. -1.
        -14    1    4    4    0    0  0.52569300383E+02 -0.17565233329E+02  0.11906114816E+03  0.13133021650E+03  0.00000000000E+00 0.  1.
</event>
<event>
12    1  0.1032880E+000  0.1792330E+03  0.7818608E-02  0.1168764E+00
         21   -1    0    0  501  502  0.00000000000E+00  0.00000000000E+00  0.67657445192E+03  0.67657445192E+03  0.00000000000E+00 0.  1.
         21   -1    0    0  502  503 -0.00000000000E+00 -0.00000000000E+00 -0.71681606097E+02  0.71681606097E+02  0.00000000000E+00 0.  1.
         -6    2    1    2    0  503  0.18255149144E+02  0.46139321687E+02  0.52137772685E+03  0.55132493607E+03  0.17222765052E+03 0.  0.
        -24    2    3    3    0    0  0.71803595085E+02  0.61731019105E+02  0.37100875457E+03  0.39087726574E+03  0.78556132264E+02 0.  0.
          6    2    1    2  501    0 -0.18255149144E+02 -0.46139321687E+02  0.83515118973E+02  0.19693112194E+03  0.17130383597E+03 0.  0.
         24    2    5    5    0    0 -0.32198901772E+02 -0.72937216825E+02  0.51816615820E+01  0.11284321575E+03  0.79687733377E+02 0.  0.
          5    1    5    5  501    0  0.13943752628E+02  0.26797895139E+02  0.78333457390E+02  0.84087906193E+02  0.47000000000E+01 0. -1.
        -11    1    6    6    0    0  0.84581129156E+01 -0.66302963322E+02 -0.12526028692E+02  0.68003852936E+02  0.00000000000E+00 0.  1.
         12    1    6    6    0    0 -0.40657014688E+02 -0.66342535039E+01  0.17707690274E+02  0.44839362816E+02  0.00000000000E+00 0. -1.
         -5    1    3    3    0  503 -0.53548445942E+02 -0.15591697418E+02  0.15036897228E+03  0.16044767034E+03  0.47000000000E+01 0.  1.
         13    1    4    4    0    0 -0.14247122800E+02 -0.12873184068E+01  0.25009992267E+02  0.28812105268E+02  0.00000000000E+00 0. -1.
        -14    1    4    4    0    0  0.86050717885E+02  0.63018337512E+02  0.34599876230E+03  0.36206516047E+03  0.00000000000E+00 0.  1.
</event>
<event>
12    1  0.1032880E+000  0.2332991E+03  0.7818608E-02  0.1125662E+00
         21   -1    0    0  501  502  0.00000000000E+00  0.00000000000E+00  0.83750625225E+02  0.83750625225E+02  0.00000000000E+00 0.  1.
         21   -1    0    0  502  503 -0.00000000000E+00 -0.00000000000E+00 -0.63946749651E+03  0.63946749651E+03  0.00000000000E+00 0.  1.
         -6    2    1    2    0  503 -0.13830403924E+03 -0.52540137569E+02 -0.32837743783E+03  0.40281538307E+03  0.18038851913E+03 0.  0.
        -24    2    3    3    0    0 -0.15630939156E+03 -0.82515929290E+02 -0.24834326374E+03  0.31534939068E+03  0.80804437251E+02 0.  0.
          6    2    1    2  501    0  0.13830403924E+03  0.52540137569E+02 -0.22733943346E+03  0.32040273867E+03  0.17054683702E+03 0.  0.
         24    2    5    5    0    0  0.15792950182E+03  0.55771832101E+02 -0.14651726562E+03  0.23703658580E+03  0.81650530189E+02 0.  0.
          5    1    5    5  501    0 -0.19625462586E+02 -0.32316945327E+01 -0.80822167835E+02  0.83366152873E+02  0.47000000000E+01 0. -1.
        -13    1    6    6    0    0  0.24116404143E+02  0.43913029306E+02 -0.55508164655E+02  0.74773734927E+02  0.00000000000E+00 0.  1.
         14    1    6    6    0    0  0.13381309768E+03  0.11858802796E+02 -0.91009100967E+02  0.16226285087E+03  0.00000000000E+00 0. -1.
         -5    1    3    3    0  503  0.18005352325E+02  0.29975791721E+02 -0.80034174095E+02  0.87465992389E+02  0.47000000000E+01 0.  1.
         13    1    4    4    0    0 -0.11434467631E+02 -0.72535656930E+01 -0.78899558826E+02  0.80053117667E+02  0.00000000000E+00 0. -1.
        -14    1    4    4    0    0 -0.14487492393E+03 -0.75262363597E+02 -0.16944370491E+03  0.23529627301E+03  0.00000000000E+00 0.  1.
</event>
<event>
12    1  0.1032880E+000  0.1843994E+03  0.7818608E-02  0.1165254E+00
         21   -1    0    0  503  502  0.00000000000E+00  0.00000000000E+00  0.15025547185E+03  0.15025547185E+03  0.00000000000E+00 0. -1.
         21   -1    0    0  501  503 -0.00000000000E+00 -0.00000000000E+00 -0.24545720153E+03  0.24545720153E+03  0.00000000000E+00 0. -1.
          6    2    1    2  501    0 -0.66660266118E+01 -0.46653895937E+02  0.17812700020E+02  0.18525773439E+03  0.17827538796E+03 0.  0.
         24    2    3    3    0    0 -0.16765883874E+02  0.30237182459E+02 -0.32370752663E+02  0.92766037593E+02  0.79763964530E+02 0.  0.
         -6    2    1    2    0  502  0.66660266118E+01  0.46653895937E+02 -0.11301442971E+03  0.21045493899E+03  0.17116657999E+03 0.  0.
        -24    2    5    5    0    0 -0.37791814133E+02  0.54625881707E+02 -0.12672490023E+03  0.16301951802E+03  0.78127810331E+02 0.  0.
          5    1    3    3  501    0  0.10099857262E+02 -0.76891078397E+02  0.50183452684E+02  0.92491696800E+02  0.47000000000E+01 0. -1.
        -13    1    4    4    0    0 -0.77640002244E+01  0.40585782055E+02 -0.53484967883E+02  0.67587921953E+02  0.00000000000E+00 0.  1.
         14    1    4    4    0    0 -0.90018836491E+01 -0.10348599596E+02  0.21114215220E+02  0.25178115640E+02  0.00000000000E+00 0. -1.
         -5    1    5    5    0  502  0.44457840745E+02 -0.79719857696E+01  0.13710470526E+02  0.47435420973E+02  0.47000000000E+01 0.  1.
         13    1    6    6    0    0 -0.56498899107E+02  0.19945612129E+02 -0.95517855539E+02  0.11275466186E+03  0.00000000000E+00 0. -1.
        -14    1    6    6    0    0  0.18707084974E+02  0.34680269578E+02 -0.31207044694E+02  0.50264856159E+02  0.00000000000E+00 0.  1.
</event>
<event>
12    1  0.1032880E+000  0.3567501E+03  0.7818608E-02  0.1059948E+00
         21   -1    0    0  503  502  0.00000000000E+00  0.00000000000E+00  0.32622517134E+03  0.32622517134E+03  0.00000000000E+00 0. -1.
         21   -1    0    0  501  503 -0.00000000000E+00 -0.00000000000E+00 -0.77220252911E+03  0.77220252911E+03  0.00000000000E+00 0. -1.
          6    2    1    2  501    0  0.23314085033E+03 -0.20735384665E+03  0.16382401737E+03  0.39193753692E+03  0.17154139550E+03 0.  0.
         24    2    3    3    0    0  0.21951013522E+03 -0.22530200621E+03  0.17207674213E+03  0.36748083452E+03  0.80536110498E+02 0.  0.
         -6    2    1    2    0  502 -0.23314085033E+03  0.20735384665E+03 -0.60980137514E+03  0.70649016353E+03  0.17297502776E+03 0.  0.
        -24    2    5    5    0    0 -0.18271549873E+03  0.17705416262E+03 -0.35026361562E+03  0.44032719550E+03  0.80438229035E+02 0.  0.
          5    1    3    3  501    0  0.13630715111E+02  0.17948159566E+02 -0.82527247589E+01  0.24456702399E+02  0.47000000000E+01 0. -1.
        -13    1    4    4    0    0  0.87010507913E+02 -0.61355074902E+02  0.96060807241E+02  0.14339788140E+03  0.00000000000E+00 0.  1.
         14    1    4    4    0    0  0.13249962730E+03 -0.16394693131E+03  0.76015934888E+02  0.22408295312E+03  0.00000000000E+00 0. -1.
         -5    1    5    5    0  502 -0.50425351603E+02  0.30299684030E+02 -0.25953775952E+03  0.26616296803E+03  0.47000000000E+01 0.  1.
         13    1    6    6    0    0 -0.23451625445E+02  0.12310451610E+02 -0.88797865587E+02  0.92663838079E+02  0.00000000000E+00 0. -1.
        -14    1    6    6    0    0 -0.15926387328E+03  0.16474371101E+03 -0.26146575004E+03  0.34766335742E+03  0.00000000000E+00 0.  1.
</event>
<event>
12    1  0.1032880E+000  0.3250555E+03  0.7818608E-02  0.1073569E+00
         21   -1    0    0  503  502  0.00000000000E+00  0.00000000000E+00  0.13696281955E+03  0.13696281955E+03  0.00000000000E+00 0.  1.
         21   -1    0    0  501  503 -0.00000000000E+00 -0.00000000000E+00 -0.10768823736E+04  0.10768823736E+04  0.00000000000E+00 0.  1.
          6    2    1    2  501    0  0.99586625506E+02  0.25514260781E+03 -0.14529176068E+03  0.35604880764E+03  0.17505945105E+03 0.  0.
         24    2    3    3    0    0  0.21275343951E+02  0.51777907756E+02 -0.93769730833E+02  0.13207008632E+03  0.74270810470E+02 0.  0.
         -6    2    1    2    0  502 -0.99586625506E+02 -0.25514260781E+03 -0.79462779337E+03  0.85779638551E+03  0.17136529024E+03 0.  0.
        -24    2    5    5    0    0 -0.11990751437E+03 -0.12556781370E+03 -0.49600943754E+03  0.53160996913E+03  0.80241568456E+02 0.  0.
          5    1    3    3  501    0  0.78311281555E+02  0.20336470005E+03 -0.51522029847E+02  0.22397872132E+03  0.47000000000E+01 0. -1.
        -13    1    4    4    0    0  0.14741026050E+02  0.55875809193E+02 -0.10416808013E+03  0.11912343522E+03  0.00000000000E+00 0.  1.
         14    1    4    4    0    0  0.65343179008E+01 -0.40979014373E+01  0.10398349292E+02  0.12946651097E+02  0.00000000000E+00 0. -1.
         -5    1    5    5    0  502  0.20320888864E+02 -0.12957479411E+03 -0.29861835583E+03  0.32618641638E+03  0.47000000000E+01 0.  1.
         11    1    6    6    0    0  0.64752254729E+01 -0.32272168884E+02 -0.11128178737E+03  0.11604765241E+03  0.00000000000E+00 0. -1.
        -12    1    6    6    0    0 -0.12638273984E+03 -0.93295644814E+02 -0.38472765017E+03  0.41556231672E+03  0.00000000000E+00 0.  1.
</event>
<event>
12    1  0.1032880E+000  0.4172882E+03  0.7818608E-02  0.1037968E+00
         21   -1    0    0  503  502  0.00000000000E+00  0.00000000000E+00  0.21916245514E+03  0.21916245514E+03  0.00000000000E+00 0.  1.
         21   -1    0    0  501  503 -0.00000000000E+00 -0.00000000000E+00 -0.87987162091E+03  0.87987162091E+03  0.00000000000E+00 0.  1.
          6    2    1    2  501    0 -0.28676301491E+03  0.24983622661E+03 -0.15878072779E+03  0.44630016115E+03  0.17123477297E+03 0.  0.
         24    2    3    3    0    0 -0.19909769248E+03  0.92840635152E+02 -0.11885924769E+03  0.26204859652E+03  0.79263304811E+02 0.  0.
         -6    2    1    2    0  502  0.28676301491E+03 -0.24983622661E+03 -0.50192843798E+03  0.65273391490E+03  0.17169228275E+03 0.  0.
        -24    2    5    5    0    0  0.88041949272E+02 -0.89556757525E+02 -0.26499628410E+03  0.30439714440E+03  0.81625935107E+02 0.  0.
          5    1    3    3  501    0 -0.87665322432E+02  0.15699559146E+03 -0.39921480091E+02  0.18425156463E+03  0.47000000000E+01 0. -1.
        -11    1    4    4    0    0 -0.10626173185E+03  0.89206103513E+02 -0.87324769633E+02  0.16393565796E+03  0.00000000000E+00 0.  1.
         12    1    4    4    0    0 -0.92835960625E+02  0.36345316390E+01 -0.31534478062E+02  0.98112938556E+02  0.00000000000E+00 0. -1.
         -5    1    5    5    0  502  0.19872106564E+03 -0.16027946909E+03 -0.23693215388E+03  0.34833677050E+03  0.47000000000E+01 0.  1.
         11    1    6    6    0    0  0.95115602423E+02 -0.96585651168E+02 -0.26006170334E+03  0.29327095898E+03  0.00000000000E+00 0. -1.
        -12    1    6    6    0    0 -0.70736531508E+01  0.70288936432E+01 -0.49345807578E+01  0.11126185420E+02  0.00000000000E+00 0.  1.
</event>
<event>
12    1  0.1032880E+000  0.3200370E+03  0.7818608E-02  0.1075806E+00
         21   -1    0    0  501  502  0.00000000000E+00  0.00000000000E+00  0.64838316887E+03  0.64838316887E+03  0.00000000000E+00 0.  1.
         21   -1    0    0  502  503 -0.00000000000E+00 -0.00000000000E+00 -0.15735525647E+03  0.15735525647E+03  0.00000000000E+00 0.  1.
         -6    2    1    2    0  503  0.26485938673E+03 -0.40168892442E+02  0.25771878152E+03  0.41090464269E+03  0.17509888742E+03 0.  0.
        -24    2    3    3    0    0  0.85325496283E+02 -0.18745348287E+02  0.17453970381E+03  0.21182617818E+03  0.82306701781E+02 0.  0.
          6    2    1    2  501    0 -0.26485938673E+03  0.40168892442E+02  0.23330913089E+03  0.39483378265E+03  0.17232681368E+03 0.  0.
         24    2    5    5    0    0 -0.14127922866E+03 -0.44976981329E+02  0.12060218347E+03  0.20709241459E+03  0.79747302283E+02 0.  0.
          5    1    5    5  501    0 -0.12358015806E+03  0.85145873772E+02  0.11270694742E+03  0.18774136807E+03  0.47000000000E+01 0. -1.
        -11    1    6    6    0    0 -0.35974490070E+02 -0.31871890515E+02  0.22239639121E+01  0.48113691984E+02  0.00000000000E+00 0.  1.
         12    1    6    6    0    0 -0.10530473859E+03 -0.13105090814E+02  0.11837821956E+03  0.15897872260E+03  0.00000000000E+00 0. -1.
         -5    1    3    3    0  503  0.17953389044E+03 -0.21423544155E+02  0.83179077710E+02  0.19907846451E+03  0.47000000000E+01 0.  1.
         13    1    4    4    0    0  0.82446287484E+02  0.86436164700E+01  0.87500559599E+02  0.12053402157E+03  0.00000000000E+00 0. -1.
        -14    1    4    4    0    0  0.28792087994E+01 -0.27388964757E+02  0.87039144209E+02  0.91292156609E+02  0.00000000000E+00 0.  1.
</event>
<event>
12    1  0.1032880E+000  0.1917784E+03  0.7818608E-02  0.1157147E+00
         21   -1    0    0  501  502  0.00000000000E+00  0.00000000000E+00  0.13911019667E+04  0.13911019667E+04  0.00000000000E+00 0. -1.
         21   -1    0    0  502  503 -0.00000000000E+00 -0.00000000000E+00 -0.26269442544E+02  0.26269442544E+02  0.00000000000E+00 0. -1.
         -6    2    1    2    0  503 -0.20743599501E+01 -0.83826065222E+02  0.69209688346E+03  0.71817620902E+03  0.17247567634E+03 0.  0.
        -24    2    3    3    0    0  0.11970875023E+02 -0.10896364603E+03  0.66452004107E+03  0.67802974179E+03  0.78237253125E+02 0.  0.
          6    2    1    2  501    0  0.20743599501E+01  0.83826065222E+02  0.67273564071E+03  0.69919520024E+03  0.17108352806E+03 0.  0.
         24    2    5    5    0    0  0.62111180887E+02  0.46072597216E+02  0.51120746327E+03  0.52272087825E+03  0.76964687013E+02 0.  0.
          5    1    5    5  501    0 -0.60036820937E+02  0.37753468006E+02  0.16152817744E+03  0.17647432199E+03  0.47000000000E+01 0. -1.
        -13    1    6    6    0    0  0.20491246604E+02  0.49150362158E+02  0.40697452027E+03  0.41044355208E+03  0.00000000000E+00 0.  1.
         14    1    6    6    0    0  0.41619934283E+02 -0.30777649424E+01  0.10423294300E+03  0.11227732617E+03  0.00000000000E+00 0. -1.
         -5    1    3    3    0  503 -0.14045234974E+02  0.25137580808E+02  0.27576842398E+02  0.40146467229E+02  0.47000000000E+01 0.  1.
         13    1    4    4    0    0  0.76834620822E+01 -0.52028426833E+02  0.51979823761E+03  0.52245210366E+03  0.00000000000E+00 0. -1.
        -14    1    4    4    0    0  0.42874129412E+01 -0.56935219196E+02  0.14472180345E+03  0.15557763814E+03  0.00000000000E+00 0.  1.
</event>
<event>
12    1  0.1032880E+000  0.1841063E+03  0.7818608E-02  0.1165173E+00
         21   -1    0    0  503  502  0.00000000000E+00  0.00000000000E+00  0.45831571873E+02  0.45831571873E+02  0.00000000000E+00 0.  1.
         21   -1    0    0  501  503 -0.00000000000E+00 -0.00000000000E+00 -0.83699763392E+03  0.83699763392E+03  0.00000000000E+00 0.  1.
          6    2    1    2  501    0 -0.59339806271E+02 -0.96199267418E+01 -0.55691526737E+03  0.58488865536E+03  0.16830439251E+03 0.  0.
         24    2    3    3    0    0 -0.59932111121E+02  0.40569868038E+02 -0.23203379905E+03  0.25611909353E+03  0.80743631535E+02 0.  0.
         -6    2    1    2    0  502  0.59339806271E+02  0.96199267418E+01 -0.23425079467E+03  0.29794055043E+03  0.17401546250E+03 0.  0.
        -24    2    5    5    0    0  0.91497578665E+02  0.47038705425E+02 -0.19748552170E+03  0.23623104857E+03  0.78867802794E+02 0.  0.
          5    1    3    3  501    0  0.59230485013E+00 -0.50189794780E+02 -0.32488146833E+03  0.32876956183E+03  0.47000000000E+01 0. -1.
        -13    1    4    4    0    0 -0.45636261224E+02  0.21428512198E+02 -0.22589439102E+03  0.23145220968E+03  0.00000000000E+00 0.  1.
         14    1    4    4    0    0 -0.14295849897E+02  0.19141355840E+02 -0.61394080283E+01  0.24666883845E+02  0.00000000000E+00 0. -1.
         -5    1    5    5    0  502 -0.32157772394E+02 -0.37418778684E+02 -0.36765272975E+02  0.61709501865E+02  0.47000000000E+01 0.  1.
         13    1    6    6    0    0  0.30824504523E+02  0.58615017072E+01 -0.13882783776E+03  0.14232946223E+03  0.00000000000E+00 0. -1.
        -14    1    6    6    0    0  0.60673074142E+02  0.41177203718E+02 -0.58657683937E+02  0.93901586338E+02  0.00000000000E+00 0.  1.
</event>
<event>
12    1  0.1032880E+000  0.1991920E+03  0.7818608E-02  0.1151051E+00
         21   -1    0    0  503  502  0.00000000000E+00  0.00000000000E+00  0.79139942542E+02  0.79139942542E+02  0.00000000000E+00 0.  1.
         21   -1    0    0  501  503 -0.00000000000E+00 -0.00000000000E+00 -0.52630844782E+03  0.52630844782E+03  0.00000000000E+00 0.  1.
          6    2    1    2  501    0 -0.78440668216E+02  0.62563250671E+02 -0.14701176421E+03  0.24521026460E+03  0.16866687963E+03 0.  0.
         24    2    3    3    0    0  0.16690911840E+02  0.56704991942E+02 -0.87129961641E+02  0.13255034716E+03  0.80522802152E+02 0.  0.
         -6    2    1    2    0  502  0.78440668216E+02 -0.62563250671E+02 -0.30015674107E+03  0.36023812576E+03  0.17207655064E+03 0.  0.
        -24    2    5    5    0    0  0.10745424535E+03 -0.45335424254E+02 -0.14057454052E+03  0.19705983556E+03  0.73957162014E+02 0.  0.
          5    1    3    3  501    0 -0.95131580057E+02  0.58582587290E+01 -0.59881802570E+02  0.11265991744E+03  0.47000000000E+01 0. -1.
        -13    1    4    4    0    0  0.23003479535E+02  0.13170913505E+02 -0.84413121163E+02  0.88477161222E+02  0.00000000000E+00 0.  1.
         14    1    4    4    0    0 -0.63125676949E+01  0.43534078437E+02 -0.27168404780E+01  0.44073185935E+02  0.00000000000E+00 0. -1.
         -5    1    5    5    0  502 -0.29013577135E+02 -0.17227826417E+02 -0.15958220055E+03  0.16317829020E+03  0.47000000000E+01 0.  1.
         11    1    6    6    0    0  0.61488291360E+02 -0.62760763383E+02 -0.10163322143E+03  0.13434669736E+03  0.00000000000E+00 0. -1.
        -12    1    6    6    0    0  0.45965953992E+02  0.17425339129E+02 -0.38941319094E+02  0.62713138200E+02  0.00000000000E+00 0.  1.
</event>
<event>
12    1  0.1032880E+000  0.1749052E+03  0.7818608E-02  0.1176051E+00
         21   -1    0    0  501  502  0.00000000000E+00  0.00000000000E+00  0.31147922670E+03  0.31147922670E+03  0.00000000000E+00 0.  1.
         21   -1    0    0  502  503 -0.00000000000E+00 -0.00000000000E+00 -0.14652067688E+03  0.14652067688E+03  0.00000000000E+00 0.  1.
         -6    2    1    2    0  503 -0.21281279295E+02 -0.42535922732E+01  0.22475192250E+03  0.28478982322E+03  0.17355353884E+03 0.  0.
        -24    2    3    3    0    0  0.15592740380E+02 -0.48945250752E+02  0.20144877478E+03  0.22216263776E+03  0.78331715373E+02 0.  0.
          6    2    1    2  501    0  0.21281279295E+02  0.42535922732E+01 -0.59793372687E+02  0.17321008035E+03  0.16110710296E+03 0.  0.
         24    2    5    5    0    0  0.51711642541E+02  0.47240625652E+02 -0.55616880613E+02  0.12016835025E+03  0.80258484333E+02 0.  0.
          5    1    5    5  501    0 -0.30430363246E+02 -0.42987033379E+02 -0.41764920738E+01  0.53041730100E+02  0.47000000000E+01 0. -1.
        -11    1    6    6    0    0 -0.39049404286E+01 -0.15384938044E+02  0.51529110959E+01  0.16688240504E+02  0.00000000000E+00 0.  1.
         12    1    6    6    0    0  0.55616582969E+02  0.62625563696E+02 -0.60769791709E+02  0.10348010975E+03  0.00000000000E+00 0. -1.
         -5    1    3    3    0  503 -0.36874019675E+02  0.44691658478E+02  0.23303147721E+02  0.62627185457E+02  0.47000000000E+01 0.  1.
         13    1    4    4    0    0 -0.21096391735E+02 -0.34500346139E+02  0.15968554742E+03  0.16472645714E+03  0.00000000000E+00 0. -1.
        -14    1    4    4    0    0  0.36689132115E+02 -0.14444904613E+02  0.41763227362E+02  0.57436180621E+02  0.00000000000E+00 0.  1.
</event>
<event>
12    1  0.1032880E+000  0.3265240E+03  0.7818608E-02  0.1072780E+00
         21   -1    0    0  501  502  0.00000000000E+00  0.00000000000E+00  0.11277564619E+03  0.11277564619E+03  0.00000000000E+00 0.  1.
         21   -1    0    0  502  503 -0.00000000000E+00 -0.00000000000E+00 -0.12516246811E+04  0.12516246811E+04  0.00000000000E+00 0. -1.
         -6    2    1    2    0  503 -0.19985825137E+03  0.19093670608E+03 -0.23009380443E+03  0.39876375523E+03  0.17224757555E+03 0.  0.
        -24    2    3    3    0    0 -0.13026330022E+03  0.83470059475E+02 -0.20383740840E+03  0.26798139522E+03  0.79552252690E+02 0.  0.
          6    2    1    2  501    0  0.19985825137E+03 -0.19093670608E+03 -0.90875523052E+03  0.96563657211E+03  0.17383260345E+03 0.  0.
         24    2    5    5    0    0  0.14638553983E+03 -0.65681554501E+02 -0.38572629961E+03  0.42514648298E+03  0.78879407347E+02 0.  0.
          5    1    5    5  501    0  0.53472711534E+02 -0.12525515158E+03 -0.52302893091E+03  0.54049008913E+03  0.47000000000E+01 0. -1.
        -11    1    6    6    0    0  0.88069335803E+02 -0.41019444250E+02 -0.13359211112E+03  0.16518370038E+03  0.00000000000E+00 0.  1.
         12    1    6    6    0    0  0.58316204032E+02 -0.24662110251E+02 -0.25213418849E+03  0.25996278260E+03  0.00000000000E+00 0. -1.
         -5    1    3    3    0  503 -0.69594951148E+02  0.10746664660E+03 -0.26256396027E+02  0.13078236001E+03  0.47000000000E+01 0.  1.
         11    1    4    4    0    0 -0.26652318691E+02  0.58017509056E+02 -0.10296756156E+03  0.12115566921E+03  0.00000000000E+00 0. -1.
        -12    1    4    4    0    0 -0.10361098153E+03  0.25452550419E+02 -0.10086984684E+03  0.14682572601E+03  0.00000000000E+00 0.  1.
</event>
<event>
12    1  0.1032880E+000  0.1719856E+03  0.7818608E-02  0.1175813E+00
         21   -1    0    0  501  502  0.00000000000E+00  0.00000000000E+00  0.27194423469E+03  0.27194423469E+03  0.00000000000E+00 0. -1.
         21   -1    0    0  502  503 -0.00000000000E+00 -0.00000000000E+00 -0.15308033175E+03  0.15308033175E+03  0.00000000000E+00 0. -1.
         -6    2    1    2    0  503  0.72693716586E+01 -0.53749495309E+01  0.17382218292E+03  0.24447140733E+03  0.17166940286E+03 0.  0.
        -24    2    3    3    0    0  0.64358553620E+02  0.17749045362E+02  0.74454577859E+02  0.12746754084E+03  0.79040734870E+02 0.  0.
          6    2    1    2  501    0 -0.72693716586E+01  0.53749495309E+01 -0.54958279992E+02  0.18055315911E+03  0.17174777110E+03 0.  0.
         24    2    5    5    0    0  0.31932770337E+02  0.59782291401E+02 -0.25997154945E+02  0.10735614039E+03  0.79094023964E+02 0.  0.
          5    1    5    5  501    0 -0.39202141996E+02 -0.54407341870E+02 -0.28961125047E+02  0.73197018726E+02  0.47000000000E+01 0. -1.
        -11    1    6    6    0    0  0.23592181494E+02  0.18722711642E+02 -0.50514375622E+02  0.58811844924E+02  0.00000000000E+00 0.  1.
         12    1    6    6    0    0  0.83405888429E+01  0.41059579759E+02  0.24517220677E+02  0.48544295462E+02  0.00000000000E+00 0. -1.
         -5    1    3    3    0  503 -0.57089181961E+02 -0.23123994893E+02  0.99367605065E+02  0.11700386649E+03  0.47000000000E+01 0.  1.
         13    1    4    4    0    0  0.42401418722E+01  0.15278176493E+02 -0.13552309979E+02  0.20858249826E+02  0.00000000000E+00 0. -1.
        -14    1    4    4    0    0  0.60118411747E+02  0.24708688685E+01  0.88006887838E+02  0.10660929102E+03  0.00000000000E+00 0.  1.
</event>
<event>
12    1  0.1032880E+000  0.1759420E+03  0.7818608E-02  0.1171920E+00
         21   -1    0    0  501  502  0.00000000000E+00  0.00000000000E+00  0.34275204928E+02  0.34275204928E+02  0.00000000000E+00 0.  1.
         21   -1    0    0  502  503 -0.00000000000E+00 -0.00000000000E+00 -0.94447947246E+03  0.94447947246E+03  0.00000000000E+00 0.  1.
         -6    2    1    2    0  503  0.32888221307E+02  0.10272273616E+02 -0.34880077444E+03  0.39042697540E+03  0.17200025629E+03 0.  0.
        -24    2    3    3    0    0  0.64524884999E+02 -0.43491104030E+02 -0.19738709793E+03  0.22659910628E+03  0.79564763707E+02 0.  0.
          6    2    1    2  501    0 -0.32888221307E+02 -0.10272273616E+02 -0.56140349309E+03  0.58832770199E+03  0.17253535339E+03 0.  0.
         24    2    5    5    0    0 -0.24873269159E+02  0.60577198928E+02 -0.37129591141E+03  0.38523444797E+03  0.79098985585E+02 0.  0.
          5    1    5    5  501    0 -0.80149521480E+01 -0.70849472544E+02 -0.19010758168E+03  0.20309325402E+03  0.47000000000E+01 0. -1.
        -11    1    6    6    0    0 -0.55047000521E+01 -0.19067813987E+02 -0.54312904390E+02  0.57825382283E+02  0.00000000000E+00 0.  1.
         12    1    6    6    0    0 -0.19368569107E+02  0.79645012915E+02 -0.31698300702E+03  0.32740906568E+03  0.00000000000E+00 0. -1.
         -5    1    3    3    0  503 -0.31636663692E+02  0.53763377645E+02 -0.15141367652E+03  0.16382786912E+03  0.47000000000E+01 0.  1.
         11    1    4    4    0    0  0.30791327693E+02 -0.19662184159E+02 -0.14830754025E+02  0.39429159412E+02  0.00000000000E+00 0. -1.
        -12    1    4    4    0    0  0.33733557306E+02 -0.23828919871E+02 -0.18255634390E+03  0.18716994686E+03  0.00000000000E+00 0.  1.
</event>
<event>
12    1  0.1032880E+000  0.1921033E+03  0.7818608E-02  0.1156644E+00
         21   -1    0    0  501  502  0.00000000000E+00  0.00000000000E+00  0.14988575405E+04  0.14988575405E+04  0.00000000000E+00 0. -1.
         21   -1    0    0  502  503 -0.00000000000E+00 -0.00000000000E+00 -0.24980514156E+02  0.24980514156E+02  0.00000000000E+00 0. -1.
         -6    2    1    2    0  503 -0.44059804201E+02  0.73252565281E+02  0.64024273071E+03  0.66835584822E+03  0.17170201209E+03 0.  0.
        -24    2    3    3    0    0  0.17305629446E+02  0.18398922216E+02  0.16362441509E+03  0.18465992371E+03  0.81782229497E+02 0.  0.
          6    2    1    2  501    0  0.44059804201E+02 -0.73252565281E+02  0.83363429560E+03  0.85548220640E+03  0.17203622294E+03 0.  0.
         24    2    5    5    0    0  0.61539963426E+02 -0.24958664359E+02  0.29537791885E+03  0.31476058307E+03  0.86116245170E+02 0.  0.
          5    1    5    5  501    0 -0.17480159225E+02 -0.48293900922E+02  0.53825637674E+03  0.54072162333E+03  0.47000000000E+01 0. -1.
        -11    1    6    6    0    0  0.49213312040E+01  0.22085308127E+02  0.21682477133E+02  0.31338636705E+02  0.00000000000E+00 0.  1.
         12    1    6    6    0    0  0.56618632222E+02 -0.47043972485E+02  0.27369544172E+03  0.28342194636E+03  0.00000000000E+00 0. -1.
         -5    1    3    3    0  503 -0.61365433647E+02  0.54853643065E+02  0.47661831562E+03  0.48369592451E+03  0.47000000000E+01 0.  1.
         13    1    4    4    0    0  0.11920665094E+02 -0.14210704502E+01  0.16368168520E+03  0.16412134464E+03  0.00000000000E+00 0. -1.
        -14    1    4    4    0    0  0.53849643516E+01  0.19819992666E+02 -0.57270105860E-01  0.20538579070E+02  0.00000000000E+00 0.  1.
</event>
<event>
12    1  0.1032880E+000  0.2268150E+03  0.7818608E-02  0.1128949E+00
         21   -1    0    0  501  502  0.00000000000E+00  0.00000000000E+00  0.43144429218E+03  0.43144429218E+03  0.00000000000E+00 0.  1.
         21   -1    0    0  502  503 -0.00000000000E+00 -0.00000000000E+00 -0.12469899625E+03  0.12469899625E+03  0.00000000000E+00 0.  1.
         -6    2    1    2    0  503  0.14716846809E+03 -0.72825968724E+01  0.94541885102E+02  0.24572995422E+03  0.17243389500E+03 0.  0.
        -24    2    3    3    0    0  0.70915182311E+02  0.59247438892E+01  0.12588338853E+03  0.16210353925E+03  0.73258885186E+02 0.  0.
          6    2    1    2  501    0 -0.14716846809E+03  0.72825968724E+01  0.21220341084E+03  0.31041333421E+03  0.17208880343E+03 0.  0.
         24    2    5    5    0    0 -0.46664365451E+02  0.40532459851E+02  0.16727043097E+03  0.19531472120E+03  0.79674336748E+02 0.  0.
          5    1    5    5  501    0 -0.10050410264E+03 -0.33249862978E+02  0.44932979864E+02  0.11509861301E+03  0.47000000000E+01 0. -1.
        -11    1    6    6    0    0 -0.77821800880E+01  0.10113589846E+02  0.13660221539E+03  0.13719698348E+03  0.00000000000E+00 0.  1.
         12    1    6    6    0    0 -0.38882185363E+02  0.30418870005E+02  0.30668215582E+02  0.58117737722E+02  0.00000000000E+00 0. -1.
         -5    1    3    3    0  503  0.76253285784E+02 -0.13207340762E+02 -0.31341503429E+02  0.83626414966E+02  0.47000000000E+01 0.  1.
         13    1    4    4    0    0  0.86436426288E+02  0.48874474189E+01  0.10638595120E+03  0.13716090385E+03  0.00000000000E+00 0. -1.
        -14    1    4    4    0    0 -0.15521243977E+02  0.10372964702E+01  0.19497437333E+02  0.24942635409E+02  0.00000000000E+00 0.  1.
</event>
<event>
12    1  0.1032880E+000  0.2630967E+03  0.7818608E-02  0.1105494E+00
         21   -1    0    0  501  502  0.00000000000E+00  0.00000000000E+00  0.25579880950E+03  0.25579880950E+03  0.00000000000E+00 0.  1.
         21   -1    0    0  502  503 -0.00000000000E+00 -0.00000000000E+00 -0.31832299843E+03  0.31832299843E+03  0.00000000000E+00 0.  1.
         -6    2    1    2    0  503  0.17473227247E+03  0.92933924372E+02 -0.14392077330E+03  0.29872163731E+03  0.17132818294E+03 0.  0.
        -24    2    3    3    0    0  0.58341503182E+02  0.18457170920E+02  0.56959057859E+00  0.98738754958E+02  0.77489477643E+02 0.  0.
          6    2    1    2  501    0 -0.17473227247E+03 -0.92933924372E+02  0.81396584375E+02  0.27540017062E+03  0.17335445967E+03 0.  0.
         24    2    5    5    0    0 -0.21342941338E+02 -0.29074892422E+02  0.63395252621E+02  0.10821045559E+03  0.79935437260E+02 0.  0.
          5    1    5    5  501    0 -0.15338933113E+03 -0.63859031950E+02  0.18001331755E+02  0.16718971503E+03  0.47000000000E+01 0. -1.
        -13    1    6    6    0    0  0.12833344326E+00 -0.19389080286E+02  0.78081066435E+02  0.80452506732E+02  0.00000000000E+00 0.  1.
         14    1    6    6    0    0 -0.21471274782E+02 -0.96858121355E+01 -0.14685813814E+02  0.27757948859E+02  0.00000000000E+00 0. -1.
         -5    1    3    3    0  503  0.11639076929E+03  0.74476753452E+02 -0.14449036388E+03  0.19998288235E+03  0.47000000000E+01 0.  1.
         11    1    4    4    0    0  0.56622850359E+02 -0.17127867094E+01 -0.28422253588E+02  0.63379060581E+02  0.00000000000E+00 0. -1.
        -12    1    4    4    0    0  0.17186528228E+01  0.20169957630E+02  0.28991844167E+02  0.35359694378E+02  0.00000000000E+00 0.  1.
</event>
<event>
12    1  0.1032880E+000  0.1847892E+03  0.7818608E-02  0.1163317E+00
         21   -1    0    0  503  502  0.00000000000E+00  0.00000000000E+00  0.38507441441E+02  0.38507441441E+02  0.00000000000E+00 0. -1.
         21   -1    0    0  501  503 -0.00000000000E+00 -0.00000000000E+00 -0.97353029628E+03  0.97353029628E+03  0.00000000000E+00 0. -1.
          6    2    1    2  501    0 -0.54365930872E+02  0.41333476716E+02 -0.61947274966E+03  0.64636177350E+03  0.17138536674E+03 0.  0.
         24    2    3    3    0    0 -0.64084379153E+02 -0.32290344565E+02 -0.38733726356E+03  0.40259161699E+03  0.83068527892E+02 0.  0.
         -6    2    1    2    0  502  0.54365930872E+02 -0.41333476716E+02 -0.31555010518E+03  0.36567596422E+03  0.17170594397E+03 0.  0.
        -24    2    5    5    0    0 -0.24065488287E+02 -0.22794288472E+02 -0.23455476106E+03  0.25131895840E+03  0.83943764517E+02 0.  0.
          5    1    3    3  501    0  0.97184482812E+01  0.73623821281E+02 -0.23213548610E+03  0.24377015651E+03  0.47000000000E+01 0. -1.
        -11    1    4    4    0    0 -0.52981289288E+02  0.18477075358E+02 -0.23606463802E+03  0.24264157239E+03  0.00000000000E+00 0.  1.
         12    1    4    4    0    0 -0.11103089865E+02 -0.50767419923E+02 -0.15127262554E+03  0.15995004460E+03  0.00000000000E+00 0. -1.
         -5    1    5    5    0  502  0.78431419158E+02 -0.18539188244E+02 -0.80995344122E+02  0.11435700583E+03  0.47000000000E+01 0.  1.
         11    1    6    6    0    0  0.18944880666E+02 -0.33464040867E+02 -0.16028644424E+03  0.16483474980E+03  0.00000000000E+00 0. -1.
        -12    1    6    6    0    0 -0.43010368953E+02  0.10669752395E+02 -0.74268316818E+02  0.86484208597E+02  0.00000000000E+00 0.  1.
</event>
<event>
12    1  0.1032880E+000  0.2321500E+03  0.7818608E-02  0.1125190E+00
         21   -1    0    0  503  502  0.00000000000E+00  0.00000000000E+00  0.62022546638E+02  0.62022546638E+02  0.00000000000E+00 0.  1.
         21   -1    0    0  501  503 -0.00000000000E+00 -0.00000000000E+00 -0.88915340419E+03  0.88915340419E+03  0.00000000000E+00 0.  1.
          6    2    1    2  501    0 -0.13534890361E+03  0.74748864755E+02 -0.48703814684E+03  0.53940334414E+03  0.17275153457E+03 0.  0.
         24    2    3    3    0    0 -0.12808470390E+03  0.55828642700E+02 -0.22932647249E+03  0.28085327066E+03  0.82252051250E+02 0.  0.
         -6    2    1    2    0  502  0.13534890361E+03 -0.74748864755E+02 -0.34009271070E+03  0.41177260669E+03  0.17316728690E+03 0.  0.
        -24    2    5    5    0    0  0.12267559587E+03  0.83492629258E+01 -0.23673943318E+03  0.27846881256E+03  0.79876832268E+02 0.  0.
          5    1    3    3  501    0 -0.72641997144E+01  0.18920222056E+02 -0.25771167435E+03  0.25855007348E+03  0.47000000000E+01 0. -1.
        -13    1    4    4    0    0 -0.39420226853E+01 -0.15350504371E+02 -0.43604238816E+02  0.46395120110E+02  0.00000000000E+00 0.  1.
         14    1    4    4    0    0 -0.12414268121E+03  0.71179147071E+02 -0.18572223367E+03  0.23445815055E+03  0.00000000000E+00 0. -1.
         -5    1    5    5    0  502  0.12673307746E+02 -0.83098127681E+02 -0.10335327752E+03  0.13330379412E+03  0.47000000000E+01 0.  1.
         11    1    6    6    0    0  0.10199685776E+03  0.69369049708E+01 -0.23659915879E+03  0.25774142388E+03  0.00000000000E+00 0. -1.
        -12    1    6    6    0    0  0.20678738106E+02  0.14123579551E+01 -0.14027439240E+00  0.20727388681E+02  0.00000000000E+00 0.  1.
</event>
<event>
12    1  0.1032880E+000  0.1771369E+03  0.7818608E-02  0.1170761E+00
         21   -1    0    0  501  502  0.00000000000E+00  0.00000000000E+00  0.17216270037E+02  0.17216270037E+02  0.00000000000E+00 0. -1.
         21   -1    0    0  502  503 -0.00000000000E+00 -0.00000000000E+00 -0.20030011878E+04  0.20030011878E+04  0.00000000000E+00 0. -1.
         -6    2    1    2    0  503  0.13316162923E+01 -0.40326776805E+02 -0.68261389073E+03  0.70506263645E+03  0.17182425723E+03 0.  0.
        -24    2    3    3    0    0  0.50455952399E+02 -0.39184619501E+01 -0.55977504735E+03  0.56776647033E+03  0.80308802247E+02 0.  0.
          6    2    1    2  501    0 -0.13316162923E+01  0.40326776805E+02 -0.13031710270E+04  0.13151548214E+04  0.17248030724E+03 0.  0.
         24    2    5    5    0    0  0.49341556947E+02 -0.13125071821E+02 -0.93516453049E+03  0.93982064748E+03  0.78251476542E+02 0.  0.
          5    1    5    5  501    0 -0.50673173239E+02  0.53451848626E+02 -0.36800649654E+03  0.37533417391E+03  0.47000000000E+01 0. -1.
        -13    1    6    6    0    0  0.75393538984E+00  0.18034630685E+02 -0.57648983184E+02  0.60408787313E+02  0.00000000000E+00 0.  1.
         14    1    6    6    0    0  0.48587621557E+02 -0.31159702506E+02 -0.87751554731E+03  0.87941186017E+03  0.00000000000E+00 0. -1.
         -5    1    3    3    0  503 -0.49124336107E+02 -0.36408314855E+02 -0.12283884338E+03  0.13729616612E+03  0.47000000000E+01 0.  1.
         11    1    4    4    0    0  0.45678940491E+02  0.28778433334E+02 -0.44704385326E+03  0.45029209472E+03  0.00000000000E+00 0. -1.
        -12    1    4    4    0    0  0.47770119083E+01 -0.32696895284E+02 -0.11273119409E+03  0.11747437561E+03  0.00000000000E+00 0.  1.
</event>
<event>
12    1  0.1032880E+000  0.1738983E+03  0.7818608E-02  0.1174020E+00
         21   -1    0    0  503  502  0.00000000000E+00  0.00000000000E+00  0.93425465583E+02  0.93425465583E+02  0.00000000000E+00 0.  1.
         21   -1    0    0  501  503 -0.00000000000E+00 -0.00000000000E+00 -0.42007453858E+03  0.42007453858E+03  0.00000000000E+00 0.  1.
          6    2    1    2  501    0 -0.20387326641E+02  0.12126748372E+02 -0.39257081058E+02  0.17759112597E+03  0.17156569732E+03 0.  0.
         24    2    3    3    0    0 -0.49439821936E+02 -0.38802354625E+02  0.92692044818E+01  0.10133687099E+03  0.78951406269E+02 0.  0.
         -6    2    1    2    0  502  0.20387326641E+02 -0.12126748372E+02 -0.28739199193E+03  0.33590887819E+03  0.17227279618E+03 0.  0.
        -24    2    5    5    0    0 -0.36847758095E+02 -0.54511706084E+02 -0.18341299765E+03  0.20978964564E+03  0.77730845462E+02 0.  0.
          5    1    3    3  501    0  0.29052495295E+02  0.50929102997E+02 -0.48526285539E+02  0.76254254984E+02  0.47000000000E+01 0. -1.
        -13    1    4    4    0    0 -0.42207417556E+02 -0.59637685974E+01  0.38002401962E+02  0.57107050244E+02  0.00000000000E+00 0.  1.
         14    1    4    4    0    0 -0.72324043797E+01 -0.32838586028E+02 -0.28733197480E+02  0.44229820742E+02  0.00000000000E+00 0. -1.
         -5    1    5    5    0  502  0.57235084736E+02  0.42384957712E+02 -0.10397899429E+03  0.12611923255E+03  0.47000000000E+01 0.  1.
         13    1    6    6    0    0 -0.46865929005E+02 -0.94967749162E+01 -0.52605838543E+02  0.71091337617E+02  0.00000000000E+00 0. -1.
        -14    1    6    6    0    0  0.10018170910E+02 -0.45014931168E+02 -0.13080715910E+03  0.13869830803E+03  0.00000000000E+00 0.  1.
</event>
<event>
12    1  0.1032880E+000  0.2317107E+03  0.7818608E-02  0.1126068E+00
         21   -1    0    0  503  502  0.00000000000E+00  0.00000000000E+00  0.23249754474E+03  0.23249754474E+03  0.00000000000E+00 0. -1.
         21   -1    0    0  501  503 -0.00000000000E+00 -0.00000000000E+00 -0.23868724031E+03  0.23868724031E+03  0.00000000000E+00 0. -1.
          6    2    1    2  501    0 -0.58060460722E+02 -0.13984475300E+03  0.48190978042E+02  0.23317828460E+03  0.17065219015E+03 0.  0.
         24    2    3    3    0    0 -0.69656566164E+02 -0.69957033300E+02  0.85402714094E+02  0.15301865432E+03  0.79843980843E+02 0.  0.
         -6    2    1    2    0  502  0.58060460722E+02  0.13984475300E+03 -0.54380673609E+02  0.23800650044E+03  0.17539174596E+03 0.  0.
        -24    2    5    5    0    0  0.32959542736E+02  0.48702038000E+02 -0.88347368967E+02  0.13744369929E+03  0.87334374156E+02 0.  0.
          5    1    3    3  501    0  0.11596105442E+02 -0.69887719703E+02 -0.37211736052E+02  0.80159630281E+02  0.47000000000E+01 0. -1.
        -13    1    4    4    0    0 -0.43489350246E+02 -0.52650499696E+01  0.14242865004E+01  0.43830045951E+02  0.00000000000E+00 0.  1.
         14    1    4    4    0    0 -0.26167215918E+02 -0.64691983331E+02  0.83978427594E+02  0.10918860837E+03  0.00000000000E+00 0. -1.
         -5    1    5    5    0  502  0.25100917986E+02  0.91142715003E+02  0.33966695357E+02  0.10056280115E+03  0.47000000000E+01 0.  1.
         11    1    6    6    0    0  0.50213531642E+02  0.97152663004E+01 -0.16214684476E+02  0.53653528792E+02  0.00000000000E+00 0. -1.
        -12    1    6    6    0    0 -0.17253988905E+02  0.38986771700E+02 -0.72132684490E+02  0.83790170500E+02  0.00000000000E+00 0.  1.
</event>
<event>
12    1  0.1032880E+000  0.2332382E+03  0.7818608E-02  0.1124425E+00
         21   -1    0    0  503  502  0.00000000000E+00  0.00000000000E+00  0.10414041299E+04  0.10414041299E+04  0.00000000000E+00 0. -1.
         21   -1    0    0  501  503 -0.00000000000E+00 -0.00000000000E+00 -0.57895344488E+02  0.57895344488E+02  0.00000000000E+00 0. -1.
          6    2    1    2  501    0 -0.39923377985E+02 -0.15239890315E+03  0.31882486914E+03  0.39488144320E+03  0.17164718237E+03 0.  0.
         24    2    3    3    0    0 -0.71146510813E+02 -0.52214399144E+02  0.22233642086E+03  0.25224929565E+03  0.80050319372E+02 0.  0.
         -6    2    1    2    0  502  0.39923377985E+02  0.15239890315E+03  0.66468391629E+03  0.70441803120E+03  0.17199055879E+03 0.  0.
        -24    2    5    5    0    0  0.54438065360E+02  0.14456927238E+03  0.36760068688E+03  0.40684028595E+03  0.80777322356E+02 0.  0.
          5    1    3    3  501    0  0.31223132829E+02 -0.10018450401E+03  0.96488448274E+02  0.14263214756E+03  0.47000000000E+01 0. -1.
        -13    1    4    4    0    0  0.14660649083E+02 -0.11018318361E+02  0.72119591314E+02  0.74414873663E+02  0.00000000000E+00 0.  1.
         14    1    4    4    0    0 -0.85807159896E+02 -0.41196080783E+02  0.15021682955E+03  0.17783442198E+03  0.00000000000E+00 0. -1.
         -5    1    5    5    0  502 -0.14514687375E+02  0.78296307755E+01  0.29708322941E+03  0.29757774524E+03  0.47000000000E+01 0.  1.
         11    1    6    6    0    0  0.61891107790E+01  0.38466991542E+02  0.28516878424E+02  0.48282780425E+02  0.00000000000E+00 0. -1.
        -12    1    6    6    0    0  0.48248954581E+02  0.10610228084E+03  0.33908380845E+03  0.35855750553E+03  0.00000000000E+00 0.  1.
</event>
<event>
12    1  0.1032880E+000  0.1919290E+03  0.7818608E-02  0.1157041E+00
         21   -1    0    0  501  502  0.00000000000E+00  0.00000000000E+00  0.22440733521E+03  0.22440733521E+03  0.00000000000E+00 0. -1.
         21   -1    0    0  502  503 -0.00000000000E+00 -0.00000000000E+00 -0.16521709013E+03  0.16521709013E+03  0.00000000000E+00 0. -1.
         -6    2    1    2    0  503  0.11555474385E+02 -0.81272465913E+02  0.67839109495E+01  0.19066926909E+03  0.17195931502E+03 0.  0.
        -24    2    3    3    0    0 -0.57253675558E+02 -0.34084542465E+02 -0.14939203687E+02  0.10432470965E+03  0.78871578129E+02 0.  0.
          6    2    1    2  501    0 -0.11555474385E+02  0.81272465913E+02  0.52406334131E+02  0.19895515625E+03  0.17348771610E+03 0.  0.
         24    2    5    5    0    0  0.29976355473E+02  0.84047787703E+02 -0.13342435221E+02  0.12099628265E+03  0.80619273943E+02 0.  0.
          5    1    5    5  501    0 -0.41531829858E+02 -0.27753217898E+01  0.65748769352E+02  0.77958873605E+02  0.47000000000E+01 0. -1.
        -13    1    6    6    0    0  0.49534298916E+02  0.58446501957E+02  0.15021711540E+02  0.78072352198E+02  0.00000000000E+00 0.  1.
         14    1    6    6    0    0 -0.19557943442E+02  0.25601285746E+02 -0.28364146762E+02  0.42923930447E+02  0.00000000000E+00 0. -1.
         -5    1    3    3    0  503  0.68809149943E+02 -0.47187923448E+02  0.21723114636E+02  0.86344559439E+02  0.47000000000E+01 0.  1.
         13    1    4    4    0    0 -0.13796486059E+01  0.20369451575E+02  0.95667824982E+01  0.22546425773E+02  0.00000000000E+00 0. -1.
        -14    1    4    4    0    0 -0.55874026952E+02 -0.54453994040E+02 -0.24505986185E+02  0.81778283876E+02  0.00000000000E+00 0.  1.
</event>
<event>
12    1  0.1032880E+000  0.1960523E+03  0.7818608E-02  0.1153199E+00
         21   -1    0    0  503  502  0.00000000000E+00  0.00000000000E+00  0.25579306700E+04  0.25579306700E+04  0.00000000000E+00 0. -1.
         21   -1    0    0  501  503 -0.00000000000E+00 -0.00000000000E+00 -0.15011010439E+02  0.15011010439E+02  0.00000000000E+00 0. -1.
          6    2    1    2  501    0  0.40745599927E+02 -0.85331910501E+02  0.13105869902E+04  0.13251114437E+04  0.17129022323E+03 0.  0.
         24    2    3    3    0    0  0.86160016610E+02 -0.91672787170E+02  0.95140888892E+03  0.96298760525E+03  0.79616616239E+02 0.  0.
         -6    2    1    2    0  502 -0.40745599927E+02  0.85331910501E+02  0.12323326694E+04  0.12478302367E+04  0.17174036450E+03 0.  0.
        -24    2    5    5    0    0  0.14798841163E+02 -0.61658650941E+01  0.56571036267E+03  0.57265291359E+03  0.87442103217E+02 0.  0.
          5    1    3    3  501    0 -0.45414416683E+02  0.63408766698E+01  0.35917810128E+03  0.36212383848E+03  0.47000000000E+01 0. -1.
        -11    1    4    4    0    0  0.44711532136E+02 -0.96906000529E+02  0.65165148365E+03  0.66033290861E+03  0.00000000000E+00 0.  1.
         12    1    4    4    0    0  0.41448484474E+02  0.52332133585E+01  0.29975740527E+03  0.30265469665E+03  0.00000000000E+00 0. -1.
         -5    1    5    5    0  502 -0.55544441090E+02  0.91497775595E+02  0.66662230672E+03  0.67517732315E+03  0.47000000000E+01 0.  1.
         13    1    6    6    0    0 -0.20047682572E+02  0.44799245908E+01  0.46668476235E+03  0.46713664672E+03  0.00000000000E+00 0. -1.
        -14    1    6    6    0    0  0.34846523734E+02 -0.10645789685E+02  0.99025600321E+02  0.10551626687E+03  0.00000000000E+00 0.  1.
</event>
<event>
12    1  0.1032880E+000  0.1892323E+03  0.7818608E-02  0.1159825E+00
         21   -1    0    0  503  502  0.00000000000E+00  0.00000000000E+00  0.61821199942E+02  0.61821199942E+02  0.00000000000E+00 0.  1.
         21   -1    0    0  501  503 -0.00000000000E+00 -0.00000000000E+00 -0.57832098391E+03  0.57832098391E+03  0.00000000000E+00 0.  1.
          6    2    1    2  501    0 -0.32879601632E+02 -0.63473585054E+02 -0.21857968418E+03  0.28720414666E+03  0.17204412026E+03 0.  0.
         24    2    3    3    0    0 -0.66725655494E+02 -0.92823960900E+02 -0.17658259306E+03  0.22561806392E+03  0.81568975574E+02 0.  0.
         -6    2    1    2    0  502  0.32879601632E+02  0.63473585054E+02 -0.29792009978E+03  0.35293803719E+03  0.17521103858E+03 0.  0.
        -24    2    5    5    0    0  0.68341510501E+02 -0.49969864197E+01 -0.22342460074E+03  0.24561872152E+03  0.75594128174E+02 0.  0.
          5    1    3    3  501    0  0.33846053863E+02  0.29350375845E+02 -0.41997091122E+02  0.61586082738E+02  0.47000000000E+01 0. -1.
        -13    1    4    4    0    0  0.14423838954E+02 -0.27495260053E+02 -0.70005241384E+02  0.76581788153E+02  0.00000000000E+00 0.  1.
         14    1    4    4    0    0 -0.81149494448E+02 -0.65328700847E+02 -0.10657735168E+03  0.14903627576E+03  0.00000000000E+00 0. -1.
         -5    1    5    5    0  502 -0.35461908870E+02  0.68470571474E+02 -0.74495499045E+02  0.10731931567E+03  0.47000000000E+01 0.  1.
         13    1    6    6    0    0  0.26588867191E+02  0.24975256941E+02 -0.15937753286E+03  0.16349901926E+03  0.00000000000E+00 0. -1.
        -14    1    6    6    0    0  0.41752643310E+02 -0.29972243361E+02 -0.64047067876E+02  0.82119702258E+02  0.00000000000E+00 0.  1.
</event>
<event>
12    1  0.1032880E+000  0.2496378E+03  0.7818608E-02  0.1113660E+00
         21   -1    0    0  501  502  0.00000000000E+00  0.00000000000E+00  0.66638372066E+03  0.66638372066E+03  0.00000000000E+00 0. -1.
         21   -1    0    0  502  503 -0.00000000000E+00 -0.00000000000E+00 -0.94667554414E+02  0.94667554414E+02  0.00000000000E+00 0. -1.
         -6    2    1    2    0  503 -0.17733867274E+03  0.26934652830E+02  0.23838120956E+03  0.34460050199E+03  0.17248021489E+03 0.  0.
        -24    2    3    3    0    0 -0.15873859354E+03 -0.35479461789E+02  0.16561224850E+03  0.24683089350E+03  0.83912691803E+02 0.  0.
          6    2    1    2  501    0  0.17733867274E+03 -0.26934652830E+02  0.33333495668E+03  0.41645077308E+03  0.17362192455E+03 0.  0.
         24    2    5    5    0    0  0.11853118243E+03  0.14681592429E+02  0.30802328975E+03  0.33994584991E+03  0.80122677713E+02 0.  0.
          5    1    5    5  501    0  0.58807490309E+02 -0.41616245259E+02  0.25311666933E+02  0.76504923168E+02  0.47000000000E+01 0. -1.
        -11    1    6    6    0    0 -0.86044470482E+01 -0.77014661258E+01  0.51421034032E+02  0.52701725118E+02  0.00000000000E+00 0.  1.
         12    1    6    6    0    0  0.12713562947E+03  0.22383058555E+02  0.25660225571E+03  0.28724412480E+03  0.00000000000E+00 0. -1.
         -5    1    3    3    0  503 -0.18600079194E+02  0.62414114618E+02  0.72768961059E+02  0.97769608485E+02  0.47000000000E+01 0.  1.
         11    1    4    4    0    0 -0.65502722793E+02  0.71990095696E+01  0.11485498074E+03  0.13241638506E+03  0.00000000000E+00 0. -1.
        -12    1    4    4    0    0 -0.93235870748E+02 -0.42678471358E+02  0.50757267766E+02  0.11441450845E+03  0.00000000000E+00 0.  1.
</event>
<event>
12    1  0.1032880E+000  0.1868419E+03  0.7818608E-02  0.1164552E+00
         21   -1    0    0  501  502  0.00000000000E+00  0.00000000000E+00  0.62950451134E+03  0.62950451134E+03  0.00000000000E+00 0. -1.
         21   -1    0    0  502  503 -0.00000000000E+00 -0.00000000000E+00 -0.13193843699E+03  0.13193843699E+03  0.00000000000E+00 0. -1.
         -6    2    1    2    0  503  0.66489770034E+02 -0.31550253086E+02  0.54948959835E+03  0.58038669962E+03  0.17173699199E+03 0.  0.
        -24    2    3    3    0    0  0.73305086246E+02 -0.71850974477E+02  0.49790402129E+03  0.51440368332E+03  0.78527299682E+02 0.  0.
          6    2    1    2  501    0 -0.66489770034E+02  0.31550253086E+02 -0.51923523993E+02  0.18105624871E+03  0.15706369683E+03 0.  0.
         24    2    5    5    0    0 -0.10140626081E+03  0.16434377757E+02 -0.56978931799E+02  0.14238716334E+03  0.80462333490E+02 0.  0.
          5    1    5    5  501    0  0.34916490777E+02  0.15115875330E+02  0.50554078056E+01  0.38669085369E+02  0.47000000000E+01 0. -1.
        -13    1    6    6    0    0 -0.48116505870E+02  0.46619273844E+02 -0.42868780113E+02  0.79537960367E+02  0.00000000000E+00 0.  1.
         14    1    6    6    0    0 -0.53289754941E+02 -0.30184896088E+02 -0.14110151685E+02  0.62849202971E+02  0.00000000000E+00 0. -1.
         -5    1    3    3    0  503 -0.68153162122E+01  0.40300721391E+02  0.51585577059E+02  0.65983016302E+02  0.47000000000E+01 0.  1.
         13    1    4    4    0    0 -0.13777719006E+02 -0.81241614929E+01  0.13061706773E+03  0.13159272747E+03  0.00000000000E+00 0. -1.
        -14    1    4    4    0    0  0.87082805252E+02 -0.63726812984E+02  0.36728695356E+03  0.38281095585E+03  0.00000000000E+00 0.  1.
</event>
<event>
12    1  0.1032880E+000  0.1927082E+03  0.7818608E-02  0.1156406E+00
         21   -1    0    0  501  502  0.00000000000E+00  0.00000000000E+00  0.26196404838E+03  0.26196404838E+03  0.00000000000E+00 0. -1.
         21   -1    0    0  502  503 -0.00000000000E+00 -0.00000000000E+00 -0.16120399253E+03  0.16120399253E+03  0.00000000000E+00 0. -1.
         -6    2    1    2    0  503  0.10458289478E+02  0.81851853142E+02  0.12628935298E+03  0.23040282180E+03  0.17414751774E+03 0.  0.
        -24    2    3    3    0    0 -0.45431361306E+02  0.32245089324E+02  0.11775443780E+03  0.15504090265E+03  0.84070324710E+02 0.  0.
          6    2    1    2  501    0 -0.10458289478E+02 -0.81851853142E+02 -0.25529297129E+02  0.19276521912E+03  0.17232986685E+03 0.  0.
         24    2    5    5    0    0 -0.61808160088E+02 -0.74513712601E+01 -0.26156857212E+01  0.99387681646E+02  0.77429308819E+02 0.  0.
          5    1    5    5  501    0  0.51349870610E+02 -0.74400481882E+02 -0.22913611408E+02  0.93377537469E+02  0.47000000000E+01 0. -1.
        -13    1    6    6    0    0  0.83171064536E+01 -0.28049748493E+01  0.22974919681E+02  0.24594492839E+02  0.00000000000E+00 0.  1.
         14    1    6    6    0    0 -0.70125266542E+02 -0.46463964108E+01 -0.25590605402E+02  0.74793188807E+02  0.00000000000E+00 0. -1.
         -5    1    3    3    0  503  0.55889650785E+02  0.49606763818E+02  0.85349151851E+01  0.75361919154E+02  0.47000000000E+01 0.  1.
         13    1    4    4    0    0  0.59877832016E+01  0.37969493519E+02  0.86349032843E+02  0.94518207022E+02  0.00000000000E+00 0. -1.
        -14    1    4    4    0    0 -0.51419144508E+02 -0.57244041951E+01  0.31405404955E+02  0.60522695625E+02  0.00000000000E+00 0.  1.
</event>
<event>
12    1  0.1032880E+000  0.3557569E+03  0.7818608E-02  0.1060694E+00
         21   -1    0    0  501  502  0.00000000000E+00  0.00000000000E+00  0.12420970951E+03  0.12420970951E+03  0.00000000000E+00 0. -1.
         21   -1    0    0  502  503 -0.00000000000E+00 -0.00000000000E+00 -0.11236789359E+04  0.11236789359E+04  0.00000000000E+00 0. -1.
         -6    2    1    2    0  503 -0.14122005618E+02  0.31020542935E+03 -0.70327325264E+03  0.78813463809E+03  0.17359752429E+03 0.  0.
        -24    2    3    3    0    0 -0.20736694809E+02  0.28273097784E+03 -0.69958214319E+03  0.75925014592E+03  0.81723880641E+02 0.  0.
          6    2    1    2  501    0  0.14122005618E+02 -0.31020542935E+03 -0.29619597377E+03  0.45975400733E+03  0.16496924846E+03 0.  0.
         24    2    5    5    0    0  0.13204992137E+02 -0.32457045995E+03 -0.27206722259E+03  0.43126749032E+03  0.80316370113E+02 0.  0.
          5    1    5    5  501    0  0.91701348081E+00  0.14365030602E+02 -0.24128751176E+02  0.28486517007E+02  0.47000000000E+01 0. -1.
        -13    1    6    6    0    0 -0.10755535197E+02 -0.96878212737E+02 -0.12751721648E+03  0.16050454866E+03  0.00000000000E+00 0.  1.
         14    1    6    6    0    0  0.23960527333E+02 -0.22769224721E+03 -0.14455000611E+03  0.27076294166E+03  0.00000000000E+00 0. -1.
         -5    1    3    3    0  503  0.66146891913E+01  0.27474451513E+02 -0.36911094500E+01  0.28884492172E+02  0.47000000000E+01 0.  1.
         11    1    4    4    0    0  0.15678937108E+02  0.78157407077E+01 -0.35372367524E+02  0.39473019341E+02  0.00000000000E+00 0. -1.
        -12    1    4    4    0    0 -0.36415631917E+02  0.27491523713E+03 -0.66420977566E+03  0.71977712657E+03  0.00000000000E+00 0.  1.
</event>
<event>
12    1  0.1032880E+000  0.2664512E+03  0.7818608E-02  0.1103430E+00
         21   -1    0    0  503  502  0.00000000000E+00  0.00000000000E+00  0.39940841741E+03  0.39940841741E+03  0.00000000000E+00 0.  1.
         21   -1    0    0  501  503 -0.00000000000E+00 -0.00000000000E+00 -0.32434405974E+03  0.32434405974E+03  0.00000000000E+00 0.  1.
          6    2    1    2  501    0 -0.19854612143E+03 -0.40974511374E+02  0.28117219356E+03  0.38688949164E+03  0.17183190447E+03 0.  0.
         24    2    3    3    0    0 -0.11283218774E+03  0.31470567511E+02  0.10154676787E+03  0.17503446706E+03  0.81263887342E+02 0.  0.
         -6    2    1    2    0  502  0.19854612143E+03  0.40974511374E+02 -0.20610783589E+03  0.33686298551E+03  0.17290679014E+03 0.  0.
        -24    2    5    5    0    0  0.17817385211E+03  0.58176241892E+02 -0.10056502366E+03  0.22790288225E+03  0.81829108863E+02 0.  0.
          5    1    3    3  501    0 -0.85713933686E+02 -0.72445078885E+02  0.17962542570E+03  0.21185502458E+03  0.47000000000E+01 0. -1.
        -13    1    4    4    0    0 -0.49532854143E+02  0.54648389091E+02  0.65240789433E+02  0.98469846530E+02  0.00000000000E+00 0.  1.
         14    1    4    4    0    0 -0.63299333602E+02 -0.23177821580E+02  0.36305978433E+02  0.76564620535E+02  0.00000000000E+00 0. -1.
         -5    1    5    5    0  502  0.20372269323E+02 -0.17201730517E+02 -0.10554281223E+03  0.10896010327E+03  0.47000000000E+01 0.  1.
         11    1    6    6    0    0  0.67691866848E+02 -0.15939715027E+02 -0.49674588281E+02  0.85462436622E+02  0.00000000000E+00 0. -1.
        -12    1    6    6    0    0  0.11048198526E+03  0.74115956918E+02 -0.50890435380E+02  0.14244044563E+03  0.00000000000E+00 0.  1.
</event>
<event>
12    1  0.1032880E+000  0.1924784E+03  0.7818608E-02  0.1156841E+00
         21   -1    0    0  501  502  0.00000000000E+00  0.00000000000E+00  0.27050694762E+03  0.27050694762E+03  0.00000000000E+00 0.  1.
         21   -1    0    0  502  503 -0.00000000000E+00 -0.00000000000E+00 -0.20946567752E+03  0.20946567752E+03  0.00000000000E+00 0.  1.
         -6    2    1    2    0  503 -0.81196543328E+02 -0.86525211966E+01 -0.11236605420E+03  0.22287678489E+03  0.17429912890E+03 0.  0.
        -24    2    3    3    0    0 -0.10668878080E+03 -0.31126947605E+02 -0.12552486111E+03  0.18613174151E+03  0.80852653781E+02 0.  0.
          6    2    1    2  501    0  0.81196543328E+02  0.86525211966E+01  0.17340732430E+03  0.25709584025E+03  0.17134884355E+03 0.  0.
         24    2    5    5    0    0 -0.12071501502E+02  0.41582487761E+02  0.71422281136E+02  0.11494679906E+03  0.78973412831E+02 0.  0.
          5    1    5    5  501    0  0.93268044830E+02 -0.32929966565E+02  0.10198504316E+03  0.14214904119E+03  0.47000000000E+01 0. -1.
        -13    1    6    6    0    0 -0.20371355947E+02  0.84609992085E+01  0.77223252786E+02  0.80311963129E+02  0.00000000000E+00 0.  1.
         14    1    6    6    0    0  0.82998544451E+01  0.33121488553E+02 -0.58009716505E+01  0.34634835929E+02  0.00000000000E+00 0. -1.
         -5    1    3    3    0  503  0.25492237469E+02  0.22474426408E+02  0.13158806916E+02  0.36745043380E+02  0.47000000000E+01 0.  1.
         13    1    4    4    0    0 -0.32770006100E+02  0.13088883849E+02 -0.17425699956E+01  0.35330280645E+02  0.00000000000E+00 0. -1.
        -14    1    4    4    0    0 -0.73918774697E+02 -0.44215831453E+02 -0.12378229112E+03  0.15080146086E+03  0.00000000000E+00 0.  1.
</event>
<event>
12    1  0.1032880E+000  0.1970158E+03  0.7818608E-02  0.1152495E+00
         21   -1    0    0  501  502  0.00000000000E+00  0.00000000000E+00  0.35016953703E+03  0.35016953703E+03  0.00000000000E+00 0. -1.
         21   -1    0    0  502  503 -0.00000000000E+00 -0.00000000000E+00 -0.17106758012E+03  0.17106758012E+03  0.00000000000E+00 0. -1.
         -6    2    1    2    0  503 -0.21136864355E+02  0.93398564646E+02 -0.65646911371E+02  0.20766501348E+03  0.17217776262E+03 0.  0.
        -24    2    3    3    0    0  0.11694813521E+02  0.11226621405E+03 -0.80014508737E+01  0.13853472792E+03  0.79921061955E+02 0.  0.
          6    2    1    2  501    0  0.21136864355E+02 -0.93398564646E+02  0.24474886829E+03  0.31357210367E+03  0.17104209061E+03 0.  0.
         24    2    5    5    0    0  0.12841456281E+02 -0.31407097753E+02  0.23496727848E+03  0.25009356193E+03  0.78650231860E+02 0.  0.
          5    1    5    5  501    0  0.82954080734E+01 -0.61991466893E+02  0.97815898068E+01  0.63478541743E+02  0.47000000000E+01 0. -1.
        -11    1    6    6    0    0  0.48063060615E+01  0.12911652358E+02  0.17267238526E+03  0.17322114183E+03  0.00000000000E+00 0.  1.
         12    1    6    6    0    0  0.80351502199E+01 -0.44318750111E+02  0.62294893219E+02  0.76872420097E+02  0.00000000000E+00 0. -1.
         -5    1    3    3    0  503 -0.32831677875E+02 -0.18867649401E+02 -0.57645460497E+02  0.69130285563E+02  0.47000000000E+01 0.  1.
         11    1    4    4    0    0 -0.12280620716E+02  0.10727088338E+03 -0.22194294344E+02  0.11022904685E+03  0.00000000000E+00 0. -1.
        -12    1    4    4    0    0  0.23975434237E+02  0.49953306626E+01  0.14192843470E+02  0.28305681074E+02  0.00000000000E+00 0.  1.
</event>
<event>
12    1  0.1032880E+000  0.2003741E+03  0.7818608E-02  0.1149668E+00
         21   -1    0    0  501  502  0.00000000000E+00  0.00000000000E+00  0.14034247101E+03  0.14034247101E+03  0.00000000000E+00 0.  1.
         21   -1    0    0  502  503 -0.00000000000E+00 -0.00000000000E+00 -0.28843135150E+03  0.28843135150E+03  0.00000000000E+00 0.  1.
         -6    2    1    2    0  503  0.72922988546E+02 -0.63555477191E+02 -0.99485771287E+02  0.22371231245E+03  0.17547854318E+03 0.  0.
        -24    2    3    3    0    0  0.95882917177E+02 -0.21678143879E+02 -0.16034938091E+02  0.12744704910E+03  0.79511982466E+02 0.  0.
          6    2    1    2  501    0 -0.72922988546E+02  0.63555477191E+02 -0.48603109199E+02  0.20506151006E+03  0.17415768643E+03 0.  0.
         24    2    5    5    0    0 -0.10927403670E+03  0.44380538653E+02 -0.10303858816E+01  0.14201921494E+03  0.79107195678E+02 0.  0.
          5    1    5    5  501    0  0.36351048157E+02  0.19174938538E+02 -0.47572723317E+02  0.63042295119E+02  0.47000000000E+01 0. -1.
        -11    1    6    6    0    0  0.32834043423E+01 -0.14029689797E+02  0.44792730958E+01  0.15088963759E+02  0.00000000000E+00 0.  1.
         12    1    6    6    0    0 -0.11255744105E+03  0.58410228449E+02 -0.55096589774E+01  0.12693025118E+03  0.00000000000E+00 0. -1.
         -5    1    3    3    0  503 -0.22959928631E+02 -0.41877333312E+02 -0.83450833196E+02  0.96265263356E+02  0.47000000000E+01 0.  1.
         11    1    4    4    0    0 -0.14784980808E+01 -0.22728211342E+02 -0.19550795244E+02  0.30016514488E+02  0.00000000000E+00 0. -1.
        -12    1    4    4    0    0  0.97361415258E+02  0.10500674626E+01  0.35158571527E+01  0.97430534609E+02  0.00000000000E+00 0.  1.
</event>
<event>
12    1  0.1032880E+000  0.1822476E+03  0.7818608E-02  0.1165915E+00
         21   -1    0    0  503  502  0.00000000000E+00  0.00000000000E+00  0.26379301021E+02  0.26379301021E+02  0.00000000000E+00 0. -1.
         21   -1    0    0  501  503 -0.00000000000E+00 -0.00000000000E+00 -0.14038046813E+04  0.14038046813E+04  0.00000000000E+00 0. -1.
          6    2    1    2  501    0 -0.34873010060E+02 -0.46824138106E+02 -0.92631460275E+03  0.94407251498E+03  0.17264282068E+03 0.  0.
         24    2    3    3    0    0  0.48521134586E+02 -0.24993494957E+02 -0.49429743927E+03  0.50351368816E+03  0.78848591682E+02 0.  0.
         -6    2    1    2    0  502  0.34873010060E+02  0.46824138106E+02 -0.45111077755E+03  0.48611146736E+03  0.17144911297E+03 0.  0.
        -24    2    5    5    0    0  0.34025687741E+02  0.84920707321E+02 -0.21123784450E+03  0.24318518111E+03  0.78411296415E+02 0.  0.
          5    1    3    3  501    0 -0.83394144645E+02 -0.21830643149E+02 -0.43201716348E+03  0.44055882681E+03  0.47000000000E+01 0. -1.
        -11    1    4    4    0    0 -0.18793260211E+02  0.81238737821E+01 -0.12610595725E+03  0.12775717752E+03  0.00000000000E+00 0.  1.
         12    1    4    4    0    0  0.67314394797E+02 -0.33117368739E+02 -0.36819148201E+03  0.37575651064E+03  0.00000000000E+00 0. -1.
         -5    1    5    5    0  502  0.84732231893E+00 -0.38096569214E+02 -0.23987293305E+03  0.24292628625E+03  0.47000000000E+01 0.  1.
         13    1    6    6    0    0 -0.14494079709E+02  0.40555181608E+02 -0.13894998542E+03  0.14547130147E+03  0.00000000000E+00 0. -1.
        -14    1    6    6    0    0  0.48519767449E+02  0.44365525713E+02 -0.72287859076E+02  0.97713879644E+02  0.00000000000E+00 0.  1.
</event>
<event>
12    1  0.1032880E+000  0.2599523E+03  0.7818608E-02  0.1107199E+00
         21   -1    0    0  503  502  0.00000000000E+00  0.00000000000E+00  0.48845050213E+03  0.48845050213E+03  0.00000000000E+00 0.  1.
         21   -1    0    0  501  503 -0.00000000000E+00 -0.00000000000E+00 -0.13859441248E+03  0.13859441248E+03  0.00000000000E+00 0.  1.
          6    2    1    2  501    0 -0.25511668497E+02 -0.19274766929E+03  0.19058080571E+03  0.32232938159E+03  0.17254760933E+03 0.  0.
         24    2    3    3    0    0  0.30504159353E+02 -0.35037681852E+02  0.60282029347E+02  0.11017360338E+03  0.79662770045E+02 0.  0.
         -6    2    1    2    0  502  0.25511668497E+02  0.19274766929E+03  0.15927528394E+03  0.30471553302E+03  0.17228009387E+03 0.  0.
        -24    2    5    5    0    0  0.82612643210E+02  0.14653007565E+03  0.11416001995E+03  0.21837860976E+03  0.79754593310E+02 0.  0.
          5    1    3    3  501    0 -0.56015827850E+02 -0.15770998743E+03  0.13029877637E+03  0.21215577821E+03  0.47000000000E+01 0. -1.
        -11    1    4    4    0    0 -0.62990676008E+01  0.32124520427E+01  0.56519204338E+02  0.56959797750E+02  0.00000000000E+00 0.  1.
         12    1    4    4    0    0  0.36803226954E+02 -0.38250133895E+02  0.37628250095E+01  0.53213805626E+02  0.00000000000E+00 0. -1.
         -5    1    5    5    0  502 -0.57100974712E+02  0.46217593632E+02  0.45115263982E+02  0.86336923263E+02  0.47000000000E+01 0.  1.
         11    1    6    6    0    0 -0.75205008049E+01  0.61234453690E+02  0.31463600126E+02  0.69254417794E+02  0.00000000000E+00 0. -1.
        -12    1    6    6    0    0  0.90133144014E+02  0.85295621963E+02  0.82696419827E+02  0.14912419196E+03  0.00000000000E+00 0.  1.
</event>
<event>
12    1  0.1032880E+000  0.3658802E+03  0.7818608E-02  0.1056338E+00
         21   -1    0    0  503  502  0.00000000000E+00  0.00000000000E+00  0.27955546945E+03  0.27955546945E+03  0.00000000000E+00 0. -1.
         21   -1    0    0  501  503 -0.00000000000E+00 -0.00000000000E+00 -0.74249877376E+03  0.74249877376E+03  0.00000000000E+00 0. -1.
          6    2    1    2  501    0  0.32056326788E+03  0.77079737617E+01 -0.53631392115E+03  0.64888993741E+03  0.17494372603E+03 0.  0.
         24    2    3    3    0    0  0.19043929435E+03 -0.55106063185E+02 -0.25399632567E+03  0.33170991527E+03  0.78825956410E+02 0.  0.
         -6    2    1    2    0  502 -0.32056326788E+03 -0.77079737617E+01  0.73370616840E+02  0.37316430579E+03  0.17620479600E+03 0.  0.
        -24    2    5    5    0    0 -0.24100158139E+03 -0.71534347552E+02  0.47044255416E+02  0.26771746965E+03  0.79123678343E+02 0.  0.
          5    1    3    3  501    0  0.13012397352E+03  0.62814036946E+02 -0.28231759549E+03  0.31718002214E+03  0.47000000000E+01 0. -1.
        -13    1    4    4    0    0  0.11264417676E+03 -0.26726464542E+02 -0.20516351409E+03  0.23557394163E+03  0.00000000000E+00 0.  1.
         14    1    4    4    0    0  0.77795117593E+02 -0.28379598642E+02 -0.48832811582E+02  0.96135973638E+02  0.00000000000E+00 0. -1.
         -5    1    5    5    0  502 -0.79561686488E+02  0.63826373791E+02  0.26326361424E+02  0.10544683615E+03  0.47000000000E+01 0.  1.
         13    1    6    6    0    0 -0.10205791004E+03 -0.54231121857E+02  0.53921351470E+02  0.12753173614E+03  0.00000000000E+00 0. -1.
        -14    1    6    6    0    0 -0.13894367135E+03 -0.17303225696E+02 -0.68770960534E+01  0.14018573350E+03  0.00000000000E+00 0.  1.
</event>
<event>
12    1  0.1032880E+000  0.1781331E+03  0.7818608E-02  0.1169829E+00
         21   -1    0    0  501  502  0.00000000000E+00  0.00000000000E+00  0.67774555840E+02  0.67774555840E+02  0.00000000000E+00 0. -1.
         21   -1    0    0  502  503 -0.00000000000E+00 -0.00000000000E+00 -0.49362444018E+03  0.49362444018E+03  0.00000000000E+00 0. -1.
         -6    2    1    2    0  503  0.23712195065E+02  0.36960114673E+02 -0.14697977303E+03  0.23094255305E+03  0.17263571721E+03 0.  0.
        -24    2    3    3    0    0  0.40058627687E+02  0.58897312719E+02 -0.16583308695E+03  0.19738686853E+03  0.79921061331E+02 0.  0.
          6    2    1    2  501    0 -0.23712195065E+02 -0.36960114673E+02 -0.27887011130E+03  0.33045644297E+03  0.17176904101E+03 0.  0.
         24    2    5    5    0    0  0.17230694764E+02  0.42682103098E+02 -0.15380905513E+03  0.17656829901E+03  0.73487958266E+02 0.  0.
          5    1    5    5  501    0 -0.40942889830E+02 -0.79642217771E+02 -0.12506105618E+03  0.15388814396E+03  0.47000000000E+01 0. -1.
        -13    1    6    6    0    0 -0.60926394852E+01 -0.16491789544E+02 -0.64975356535E+02  0.67311933081E+02  0.00000000000E+00 0.  1.
         14    1    6    6    0    0  0.23323334250E+02  0.59173892642E+02 -0.88833698592E+02  0.10925636593E+03  0.00000000000E+00 0. -1.
         -5    1    3    3    0  503 -0.16346432622E+02 -0.21937198045E+02  0.18853313916E+02  0.33555684513E+02  0.47000000000E+01 0.  1.
         13    1    4    4    0    0  0.52954328840E+02  0.17591955836E+02 -0.54753906729E+02  0.78176902951E+02  0.00000000000E+00 0. -1.
        -14    1    4    4    0    0 -0.12895701153E+02  0.41305356883E+02 -0.11107918022E+03  0.11920996558E+03  0.00000000000E+00 0.  1.
</event>
<event>
12    1  0.1032880E+000  0.2044037E+03  0.7818608E-02  0.1146341E+00
         21   -1    0    0  501  502  0.00000000000E+00  0.00000000000E+00  0.12422092367E+04  0.12422092367E+04  0.00000000000E+00 0. -1.
         21   -1    0    0  502  503 -0.00000000000E+00 -0.00000000000E+00 -0.41693059505E+02  0.41693059505E+02  0.00000000000E+00 0. -1.
         -6    2    1    2    0  503 -0.10087565690E+03 -0.40125381785E+02  0.88769624023E+03  0.91092561907E+03  0.17319042744E+03 0.  0.
        -24    2    3    3    0    0  0.11749643755E+02 -0.38788053581E+02  0.45257163445E+03  0.46143506373E+03  0.80365829173E+02 0.  0.
          6    2    1    2  501    0  0.10087565690E+03  0.40125381785E+02  0.31281993696E+03  0.37297667712E+03  0.17166637498E+03 0.  0.
         24    2    5    5    0    0  0.32936141136E+01  0.60901315879E+02  0.21792728899E+03  0.23520658185E+03  0.64109396258E+02 0.  0.
          5    1    5    5  501    0  0.97582042790E+02 -0.20775934093E+02  0.94892647967E+02  0.13777009527E+03  0.47000000000E+01 0. -1.
        -13    1    6    6    0    0 -0.98892298568E+01  0.70144237290E+02  0.19239818236E+03  0.20502456309E+03  0.00000000000E+00 0.  1.
         14    1    6    6    0    0  0.13182843970E+02 -0.92429214114E+01  0.25529106626E+02  0.30182018761E+02  0.00000000000E+00 0. -1.
         -5    1    3    3    0  503 -0.11262530066E+03 -0.13373282042E+01  0.43512460577E+03  0.44949055534E+03  0.47000000000E+01 0.  1.
         11    1    4    4    0    0  0.12912404780E+02  0.23705467766E+02  0.11501146868E+03  0.11813685846E+03  0.00000000000E+00 0. -1.
        -12    1    4    4    0    0 -0.11627610254E+01 -0.62493521347E+02  0.33756016578E+03  0.34329820527E+03  0.00000000000E+00 0.  1.
</event>
<event>
12    1  0.1032880E+000  0.1990592E+03  0.7818608E-02  0.1150581E+00
         21   -1    0    0  501  502  0.00000000000E+00  0.00000000000E+00  0.46217824364E+03  0.46217824364E+03  0.00000000000E+00 0.  1.
         21   -1    0    0  502  503 -0.00000000000E+00 -0.00000000000E+00 -0.16181433174E+03  0.16181433174E+03  0.00000000000E+00 0.  1.
         -6    2    1    2    0  503 -0.34643147872E+02  0.93830655228E+02  0.36420147069E+03  0.41494764120E+03  0.17185602733E+03 0.  0.
        -24    2    3    3    0    0 -0.70583656529E+02  0.10437534172E+03  0.21507036039E+03  0.26111302665E+03  0.77772027347E+02 0.  0.
          6    2    1    2  501    0  0.34643147872E+02 -0.93830655228E+02 -0.63837558790E+02  0.20904493417E+03  0.17210523245E+03 0.  0.
         24    2    5    5    0    0 -0.28593162396E+02 -0.30333320434E+02 -0.77138202568E+02  0.11832702201E+03  0.79456293510E+02 0.  0.
          5    1    5    5  501    0  0.63236310269E+02 -0.63497334793E+02  0.13300643778E+02  0.90717912163E+02  0.47000000000E+01 0. -1.
        -13    1    6    6    0    0 -0.54721030117E+02 -0.88925751041E+01 -0.53808988492E+02  0.77258502908E+02  0.00000000000E+00 0.  1.
         14    1    6    6    0    0  0.26127867721E+02 -0.21440745330E+02 -0.23329214076E+02  0.41068519104E+02  0.00000000000E+00 0. -1.
         -5    1    3    3    0  503  0.35940508657E+02 -0.10544686492E+02  0.14913111030E+03  0.15383461455E+03  0.47000000000E+01 0.  1.
         11    1    4    4    0    0 -0.38688988381E+02  0.79031519311E+02  0.76234768822E+02  0.11642404753E+03  0.00000000000E+00 0. -1.
        -12    1    4    4    0    0 -0.31894668148E+02  0.25343822408E+02  0.13883559157E+03  0.14468897911E+03  0.00000000000E+00 0.  1.
</event>
<event>
12    1  0.1032880E+000  0.2705539E+03  0.7818608E-02  0.1101171E+00
         21   -1    0    0  503  502  0.00000000000E+00  0.00000000000E+00  0.68802484254E+03  0.68802484254E+03  0.00000000000E+00 0.  1.
         21   -1    0    0  501  503 -0.00000000000E+00 -0.00000000000E+00 -0.10656518810E+03  0.10656518810E+03  0.00000000000E+00 0.  1.
          6    2    1    2  501    0  0.19920971827E+02 -0.20577888051E+03  0.32472051075E+03  0.42266159921E+03  0.17452112926E+03 0.  0.
         24    2    3    3    0    0  0.54545596058E+02 -0.18387402985E+03  0.18928609486E+03  0.28108738512E+03  0.79975067770E+02 0.  0.
         -6    2    1    2    0  502 -0.19920971827E+02  0.20577888051E+03  0.25673914369E+03  0.37192843143E+03  0.17226136370E+03 0.  0.
        -24    2    5    5    0    0 -0.10694953830E+02  0.11007042306E+03  0.23790713153E+03  0.27383682670E+03  0.78466071388E+02 0.  0.
          5    1    3    3  501    0 -0.34624624231E+02 -0.21904850658E+02  0.13543441590E+03  0.14157421409E+03  0.47000000000E+01 0. -1.
        -11    1    4    4    0    0  0.72705363206E+02 -0.11287568769E+03  0.12899167045E+03  0.18618765199E+03  0.00000000000E+00 0.  1.
         12    1    4    4    0    0 -0.18159767148E+02 -0.70998342165E+02  0.60294424411E+02  0.94899733130E+02  0.00000000000E+00 0. -1.
         -5    1    5    5    0  502 -0.92260179963E+01  0.95708457452E+02  0.18832012162E+02  0.98091604727E+02  0.47000000000E+01 0.  1.
         11    1    6    6    0    0  0.88615454906E+01  0.11459848907E+03  0.21088340415E+03  0.24017316843E+03  0.00000000000E+00 0. -1.
        -12    1    6    6    0    0 -0.19556499321E+02 -0.45280660103E+01  0.27023727373E+02  0.33663658277E+02  0.00000000000E+00 0.  1.
</event>
<event>
12    1  0.1032880E+000  0.1732651E+03  0.7818608E-02  0.1174732E+00
         21   -1    0    0  503  502  0.00000000000E+00  0.00000000000E+00  0.13496672278E+03  0.13496672278E+03  0.00000000000E+00 0.  1.
         21   -1    0    0  501  503 -0.00000000000E+00 -0.00000000000E+00 -0.23978601615E+03  0.23978601615E+03  0.00000000000E+00 0.  1.
          6    2    1    2  501    0  0.10959904663E+02 -0.28111032172E+02 -0.10472419776E+03  0.20245479195E+03  0.17061780548E+03 0.  0.
         24    2    3    3    0    0 -0.55247745305E+02 -0.42239027795E+02 -0.65812005990E+02  0.12422882540E+03  0.79152587432E+02 0.  0.
         -6    2    1    2    0  502 -0.10959904663E+02  0.28111032172E+02 -0.95095617908E-01  0.17229794698E+03  0.16963556186E+03 0.  0.
        -24    2    5    5    0    0 -0.39798856788E+02  0.60500440273E+02 -0.42852911927E+02  0.11121538177E+03  0.72720264071E+02 0.  0.
          5    1    3    3  501    0  0.66207649968E+02  0.14127995623E+02 -0.38912191766E+02  0.78225966550E+02  0.47000000000E+01 0. -1.
        -11    1    4    4    0    0  0.39132022867E+00 -0.22194763042E+01 -0.54760532636E+02  0.54806889541E+02  0.00000000000E+00 0.  1.
         12    1    4    4    0    0 -0.55639065534E+02 -0.40019551491E+02 -0.11051473354E+02  0.69421935858E+02  0.00000000000E+00 0. -1.
         -5    1    5    5    0  502  0.28838952125E+02 -0.32389408101E+02  0.42757816309E+02  0.61082565208E+02  0.47000000000E+01 0.  1.
         13    1    6    6    0    0  0.21448020569E+02  0.14621068872E+02 -0.13457542278E+02  0.29238650540E+02  0.00000000000E+00 0. -1.
        -14    1    6    6    0    0 -0.61246877357E+02  0.45879371401E+02 -0.29395369649E+02  0.81976731229E+02  0.00000000000E+00 0.  1.
</event>
<event>
12    1  0.1032880E+000  0.1852708E+03  0.7818608E-02  0.1163088E+00
         21   -1    0    0  503  502  0.00000000000E+00  0.00000000000E+00  0.92191693547E+03  0.92191693547E+03  0.00000000000E+00 0.  1.
         21   -1    0    0  501  503 -0.00000000000E+00 -0.00000000000E+00 -0.48774445972E+02  0.48774445972E+02  0.00000000000E+00 0.  1.
          6    2    1    2  501    0 -0.49807982409E+02  0.43755025693E+02  0.19904950962E+03  0.27193006450E+03  0.17300264541E+03 0.  0.
         24    2    3    3    0    0 -0.71592667387E+02  0.55943426506E+02  0.21102403133E+03  0.24384788538E+03  0.81703564266E+02 0.  0.
         -6    2    1    2    0  502  0.49807982409E+02 -0.43755025693E+02  0.67409297988E+03  0.69876131693E+03  0.17167030942E+03 0.  0.
        -24    2    5    5    0    0  0.99430839528E+02 -0.33888924242E+02  0.43663716728E+03  0.45592985101E+03  0.78645166133E+02 0.  0.
          5    1    3    3  501    0  0.21784684978E+02 -0.12188400814E+02 -0.11974521714E+02  0.28082179122E+02  0.47000000000E+01 0. -1.
        -11    1    4    4    0    0 -0.25309201245E+02  0.59538408273E+02  0.69712129175E+02  0.95106039143E+02  0.00000000000E+00 0.  1.
         12    1    4    4    0    0 -0.46283466142E+02 -0.35949817666E+01  0.14131190216E+03  0.14874184624E+03  0.00000000000E+00 0. -1.
         -5    1    5    5    0  502 -0.49622857118E+02 -0.98661014510E+01  0.23745581260E+03  0.24283146593E+03  0.47000000000E+01 0.  1.
         11    1    6    6    0    0 -0.28640460390E+01  0.96575801665E+01  0.11846790731E+03  0.11889540225E+03  0.00000000000E+00 0. -1.
        -12    1    6    6    0    0  0.10229488557E+03 -0.43546504408E+02  0.31816925997E+03  0.33703444876E+03  0.00000000000E+00 0.  1.
</event>
<event>
12    1  0.1032880E+000  0.5084882E+03  0.7818608E-02  0.1011800E+00
         21   -1    0    0  503  502  0.00000000000E+00  0.00000000000E+00  0.76645517222E+03  0.76645517222E+03  0.00000000000E+00 0.  1.
         21   -1    0    0  501  503 -0.00000000000E+00 -0.00000000000E+00 -0.14062295743E+04  0.14062295743E+04  0.00000000000E+00 0. -1.
          6    2    1    2  501    0 -0.47128110962E+03 -0.86342379082E+02 -0.12677299424E+04  0.13646696160E+04  0.16007205576E+03 0.  0.
         24    2    3    3    0    0 -0.29550315693E+03 -0.43177702735E+02 -0.95189808322E+03  0.10006188898E+04  0.77082890165E+02 0.  0.
         -6    2    1    2    0  502  0.47128110962E+03  0.86342379082E+02  0.62795554032E+03  0.80801513060E+03  0.17029210181E+03 0.  0.
        -24    2    5    5    0    0  0.36635518922E+03  0.30545498193E+01  0.46495472458E+03  0.59697563854E+03  0.77275883413E+02 0.  0.
          5    1    3    3  501    0 -0.17577795269E+03 -0.43164676347E+02 -0.31583185922E+03  0.36405072619E+03  0.47000000000E+01 0. -1.
        -13    1    4    4    0    0 -0.29538318819E+02 -0.17999442270E+02 -0.56802526323E+02  0.66505783187E+02  0.00000000000E+00 0.  1.
         14    1    4    4    0    0 -0.26596483811E+03 -0.25178260465E+02 -0.89509555690E+03  0.93411310659E+03  0.00000000000E+00 0. -1.
         -5    1    5    5    0  502  0.10492592041E+03  0.83287829263E+02  0.16300081574E+03  0.21103949206E+03  0.47000000000E+01 0.  1.
         11    1    6    6    0    0  0.12950031502E+03  0.22569011970E+02  0.11939769910E+03  0.17758238212E+03  0.00000000000E+00 0. -1.
        -12    1    6    6    0    0  0.23685487420E+03 -0.19514462150E+02  0.34555702549E+03  0.41939325642E+03  0.00000000000E+00 0.  1.
</event>
<event>
12    1  0.1032880E+000  0.2056682E+03  0.7818608E-02  0.1145051E+00
         21   -1    0    0  503  502  0.00000000000E+00  0.00000000000E+00  0.99398655100E+02  0.99398655100E+02  0.00000000000E+00 0. -1.
         21   -1    0    0  501  503 -0.00000000000E+00 -0.00000000000E+00 -0.68613565616E+03  0.68613565616E+03  0.00000000000E+00 0. -1.
          6    2    1    2  501    0  0.83810365553E+02  0.75935659518E+02 -0.51263431945E+02  0.21192176915E+03  0.17173379116E+03 0.  0.
         24    2    3    3    0    0  0.11591353649E+03  0.21999137191E+02 -0.43628059840E+02  0.14851710898E+03  0.78955772910E+02 0.  0.
         -6    2    1    2    0  502 -0.83810365553E+02 -0.75935659518E+02 -0.53547356911E+03  0.57361254210E+03  0.17178184852E+03 0.  0.
        -24    2    5    5    0    0 -0.12360318336E+03 -0.42662651243E+02 -0.37990835541E+03  0.40956015065E+03  0.79443752066E+02 0.  0.
          5    1    3    3  501    0 -0.32103170932E+02  0.53936522328E+02 -0.76353721053E+01  0.63404660175E+02  0.47000000000E+01 0. -1.
        -11    1    4    4    0    0  0.11802812621E+02  0.35079961665E+02 -0.10207103602E+02  0.38393945618E+02  0.00000000000E+00 0.  1.
         12    1    4    4    0    0  0.10411072386E+03 -0.13080824474E+02 -0.33420956238E+02  0.11012316336E+03  0.00000000000E+00 0. -1.
         -5    1    5    5    0  502  0.39792817802E+02 -0.33273008275E+02 -0.15556521370E+03  0.16405239146E+03  0.47000000000E+01 0.  1.
         13    1    6    6    0    0 -0.35803573780E+02 -0.46522923611E+01 -0.30415910288E+02  0.47208763152E+02  0.00000000000E+00 0. -1.
        -14    1    6    6    0    0 -0.87799609575E+02 -0.38010358882E+02 -0.34949244512E+03  0.36235138750E+03  0.00000000000E+00 0.  1.
</event>
<event>
12    1  0.1032880E+000  0.2913780E+03  0.7818608E-02  0.1090747E+00
         21   -1    0    0  503  502  0.00000000000E+00  0.00000000000E+00  0.10828091536E+03  0.10828091536E+03  0.00000000000E+00 0.  1.
         21   -1    0    0  501  503 -0.00000000000E+00 -0.00000000000E+00 -0.93071737846E+03  0.93071737846E+03  0.00000000000E+00 0. -1.
          6    2    1    2  501    0 -0.19358467905E+03 -0.11763002994E+03 -0.62776913825E+03  0.68857497091E+03  0.16949792838E+03 0.  0.
         24    2    3    3    0    0 -0.11100639155E+03 -0.23909832734E+02 -0.20483289028E+03  0.24755364628E+03  0.80200971208E+02 0.  0.
         -6    2    1    2    0  502  0.19358467905E+03  0.11763002994E+03 -0.19466732485E+03  0.35042332291E+03  0.18327380054E+03 0.  0.
        -24    2    5    5    0    0  0.21411791665E+02  0.43635614838E+02 -0.11260319797E+03  0.14578880104E+03  0.78818542314E+02 0.  0.
          5    1    3    3  501    0 -0.82578287497E+02 -0.93720197206E+02 -0.42293624797E+03  0.44102132463E+03  0.47000000000E+01 0. -1.
        -11    1    4    4    0    0 -0.17341842662E+02 -0.18001746140E+02 -0.11483699155E+03  0.11752589927E+03  0.00000000000E+00 0.  1.
         12    1    4    4    0    0 -0.93664548889E+02 -0.59080865946E+01 -0.89995898726E+02  0.13002774701E+03  0.00000000000E+00 0. -1.
         -5    1    5    5    0  502  0.17217288738E+03  0.73994415102E+02 -0.82064126885E+02  0.20463452186E+03  0.47000000000E+01 0.  1.
         13    1    6    6    0    0  0.22837703333E+02  0.52316302155E+02 -0.33478903985E+02  0.66176983738E+02  0.00000000000E+00 0. -1.
        -14    1    6    6    0    0 -0.14259116679E+01 -0.86806873162E+01 -0.79124293983E+02  0.79611817305E+02  0.00000000000E+00 0.  1.
</event>
<event>
12    1  0.1032880E+000  0.2842309E+03  0.7818608E-02  0.1093498E+00
         21   -1    0    0  503  502  0.00000000000E+00  0.00000000000E+00  0.20148286172E+03  0.20148286172E+03  0.00000000000E+00 0. -1.
         21   -1    0    0  501  503 -0.00000000000E+00 -0.00000000000E+00 -0.50240775366E+03  0.50240775366E+03  0.00000000000E+00 0. -1.
          6    2    1    2  501    0  0.95448283311E+02 -0.20495034363E+03  0.83271658239E+01  0.28435281326E+03  0.17225609590E+03 0.  0.
         24    2    3    3    0    0  0.96613438081E+02 -0.57587197258E+02  0.20221611825E+02  0.13643113689E+03  0.74525833249E+02 0.  0.
         -6    2    1    2    0  502 -0.95448283311E+02  0.20495034363E+03 -0.30925205776E+03  0.41953780212E+03  0.17105587986E+03 0.  0.
        -24    2    5    5    0    0 -0.10616406543E+02  0.79082111110E+02 -0.58947696334E+02  0.12676891268E+03  0.78922987356E+02 0.  0.
          5    1    3    3  501    0 -0.11651547702E+01 -0.14736314637E+03 -0.11894446001E+02  0.14792167637E+03  0.47000000000E+01 0. -1.
        -11    1    4    4    0    0 -0.28306680492E+01 -0.18870533527E+01  0.22174101435E+02  0.22433555812E+02  0.00000000000E+00 0.  1.
         12    1    4    4    0    0  0.99444106130E+02 -0.55700143906E+02 -0.19524896091E+01  0.11399758107E+03  0.00000000000E+00 0. -1.
         -5    1    5    5    0  502 -0.84831876768E+02  0.12586823252E+03 -0.25030436143E+03  0.29276888944E+03  0.47000000000E+01 0.  1.
         13    1    6    6    0    0 -0.34288112853E+01  0.79737445605E+02 -0.74779250588E+02  0.10936980066E+03  0.00000000000E+00 0. -1.
        -14    1    6    6    0    0 -0.71875952575E+01 -0.65533449526E+00  0.15831554253E+02  0.17399112017E+02  0.00000000000E+00 0.  1.
</event>
<event>
12    1  0.1032880E+000  0.2496998E+03  0.7818608E-02  0.1113576E+00
         21   -1    0    0  503  502  0.00000000000E+00  0.00000000000E+00  0.21684658033E+03  0.21684658033E+03  0.00000000000E+00 0. -1.
         21   -1    0    0  501  503 -0.00000000000E+00 -0.00000000000E+00 -0.29257041457E+03  0.29257041457E+03  0.00000000000E+00 0. -1.
          6    2    1    2  501    0 -0.17325413584E+03 -0.43208247612E+02 -0.73247010737E+02  0.26022125622E+03  0.17454520720E+03 0.  0.
         24    2    3    3    0    0 -0.39539186345E+02  0.32444161549E+02 -0.36284521517E+02  0.10213491797E+03  0.80616400885E+02 0.  0.
         -6    2    1    2    0  502  0.17325413584E+03  0.43208247612E+02 -0.24768234991E+01  0.24919573869E+03  0.17380573431E+03 0.  0.
        -24    2    5    5    0    0  0.19936376131E+03  0.30173196090E+02  0.88272880193E+01  0.21754928474E+03  0.81199994999E+02 0.  0.
          5    1    3    3  501    0 -0.13371494950E+03 -0.75652409161E+02 -0.36962489220E+02  0.15808633825E+03  0.47000000000E+01 0. -1.
        -11    1    4    4    0    0 -0.53287079481E+02 -0.68112194815E+01 -0.17524379700E+02  0.56506720257E+02  0.00000000000E+00 0.  1.
         12    1    4    4    0    0  0.13747893136E+02  0.39255381030E+02 -0.18760141817E+02  0.45628197713E+02  0.00000000000E+00 0. -1.
         -5    1    5    5    0  502 -0.26109625472E+02  0.13035051522E+02 -0.11304111518E+02  0.31646453951E+02  0.47000000000E+01 0.  1.
         11    1    6    6    0    0  0.89344139093E+01  0.24041211815E+02  0.85046328851E+01  0.27020962195E+02  0.00000000000E+00 0. -1.
        -12    1    6    6    0    0  0.19042934741E+03  0.61319842759E+01  0.32265513422E+00  0.19052832254E+03  0.00000000000E+00 0.  1.
</event>
<event>
12    1  0.1032880E+000  0.4079885E+03  0.7818608E-02  0.1041219E+00
         21   -1    0    0  501  502  0.00000000000E+00  0.00000000000E+00  0.14501849508E+03  0.14501849508E+03  0.00000000000E+00 0. -1.
         21   -1    0    0  502  503 -0.00000000000E+00 -0.00000000000E+00 -0.11772727158E+04  0.11772727158E+04  0.00000000000E+00 0. -1.
         -6    2    1    2    0  503  0.82349585945E+02  0.35988165827E+03 -0.40316913330E+03  0.57358519097E+03  0.17366162209E+03 0.  0.
        -24    2    3    3    0    0  0.24461810560E+02  0.20928489906E+03 -0.32185381704E+03  0.39285154971E+03  0.79648674906E+02 0.  0.
          6    2    1    2  501    0 -0.82349585945E+02 -0.35988165827E+03 -0.62908508744E+03  0.74870601993E+03  0.16886798029E+03 0.  0.
         24    2    5    5    0    0  0.10799491190E+02 -0.19697846931E+03 -0.27408564206E+03  0.34713299324E+03  0.80381772984E+02 0.  0.
          5    1    5    5  501    0 -0.93149077135E+02 -0.16290318896E+03 -0.35499944538E+03  0.40157302669E+03  0.47000000000E+01 0. -1.
        -11    1    6    6    0    0 -0.11278189702E+02 -0.18459506108E+03 -0.25687141426E+03  0.31652086440E+03  0.00000000000E+00 0.  1.
         12    1    6    6    0    0  0.22077680892E+02 -0.12383408227E+02 -0.17214227800E+02  0.30612128832E+02  0.00000000000E+00 0. -1.
         -5    1    3    3    0  503  0.57887775385E+02  0.15059675921E+03 -0.81315316252E+02  0.18073364125E+03  0.47000000000E+01 0.  1.
         13    1    4    4    0    0  0.26186949966E+02  0.64288114213E+02 -0.16622443341E+03  0.18013683755E+03  0.00000000000E+00 0. -1.
        -14    1    4    4    0    0 -0.17251394064E+01  0.14499678485E+03 -0.15562938363E+03  0.21271471217E+03  0.00000000000E+00 0.  1.
</event>
<event>
12    1  0.1032880E+000  0.2508397E+03  0.7818608E-02  0.1113004E+00
         21   -1    0    0  503  502  0.00000000000E+00  0.00000000000E+00  0.11756772611E+04  0.11756772611E+04  0.00000000000E+00 0.  1.
         21   -1    0    0  501  503 -0.00000000000E+00 -0.00000000000E+00 -0.56019966126E+02  0.56019966126E+02  0.00000000000E+00 0.  1.
          6    2    1    2  501    0 -0.18128524779E+03  0.27428199481E+02  0.42344212020E+03  0.49216235059E+03  0.17118382803E+03 0.  0.
         24    2    3    3    0    0 -0.58374162773E+02 -0.34435014464E+02  0.11836986885E+03  0.15746045247E+03  0.78670548101E+02 0.  0.
         -6    2    1    2    0  502  0.18128524779E+03 -0.27428199481E+02  0.69621517475E+03  0.73953487662E+03  0.16905507089E+03 0.  0.
        -24    2    5    5    0    0  0.37755939190E+02  0.25685961809E+02  0.16253323512E+03  0.18432295380E+03  0.73977153229E+02 0.  0.
          5    1    3    3  501    0 -0.12291108502E+03  0.61863213945E+02  0.30507225135E+03  0.33470189812E+03  0.47000000000E+01 0. -1.
        -11    1    4    4    0    0 -0.24644311756E+02  0.25196190379E+02  0.37245565183E+02  0.51277892287E+02  0.00000000000E+00 0.  1.
         12    1    4    4    0    0 -0.33729851017E+02 -0.59631204843E+02  0.81124303671E+02  0.10618256018E+03  0.00000000000E+00 0. -1.
         -5    1    5    5    0  502  0.14352930860E+03 -0.53114161290E+02  0.53368193963E+03  0.55521192283E+03  0.47000000000E+01 0.  1.
         11    1    6    6    0    0  0.48852211051E+02  0.24784424494E+02  0.60228412516E+02  0.81414175033E+02  0.00000000000E+00 0. -1.
        -12    1    6    6    0    0 -0.11096271861E+02  0.90153731466E+00  0.10230482260E+03  0.10290877876E+03  0.00000000000E+00 0.  1.
</event>
<event>
12    1  0.1032880E+000  0.2585441E+03  0.7818608E-02  0.1108892E+00
         21   -1    0    0  503  502  0.00000000000E+00  0.00000000000E+00  0.11671053890E+04  0.11671053890E+04  0.00000000000E+00 0. -1.
         21   -1    0    0  501  503 -0.00000000000E+00 -0.00000000000E+00 -0.56708939010E+02  0.56708939010E+02  0.00000000000E+00 0. -1.
          6    2    1    2  501    0  0.11315080005E+03 -0.14656379073E+03  0.49393535037E+03  0.55750980544E+03  0.18044668051E+03 0.  0.
         24    2    3    3    0    0  0.94643928427E+02 -0.16825079317E+03  0.48480332241E+03  0.52720610423E+03  0.75141282448E+02 0.  0.
         -6    2    1    2    0  502 -0.11315080005E+03  0.14656379073E+03  0.61646109962E+03  0.66630452257E+03  0.17220157128E+03 0.  0.
        -24    2    5    5    0    0 -0.90959640239E+01  0.12524657067E+02  0.22924099148E+03  0.24350977284E+03  0.80659616272E+02 0.  0.
          5    1    3    3  501    0  0.18506871621E+02  0.21687002442E+02  0.91320279615E+01  0.30303701206E+02  0.47000000000E+01 0. -1.
        -11    1    4    4    0    0  0.10111186339E+03 -0.15748527575E+03  0.40167383216E+03  0.44313326262E+03  0.00000000000E+00 0.  1.
         12    1    4    4    0    0 -0.64679349607E+01 -0.10765517426E+02  0.83129490246E+02  0.84072841611E+02  0.00000000000E+00 0. -1.
         -5    1    5    5    0  502 -0.10405483602E+03  0.13403913367E+03  0.38722010814E+03  0.42279474973E+03  0.47000000000E+01 0.  1.
         11    1    6    6    0    0  0.24731324976E+02  0.28004912109E+01  0.18644567099E+03  0.18809962631E+03  0.00000000000E+00 0. -1.
        -12    1    6    6    0    0 -0.33827289000E+02  0.97241658558E+01  0.42795320483E+02  0.55410146525E+02  0.00000000000E+00 0.  1.
</event>
<event>
12    1  0.1032880E+000  0.4060921E+03  0.7818608E-02  0.1041712E+00
         21   -1    0    0  503  502  0.00000000000E+00  0.00000000000E+00  0.23830906073E+03  0.23830906073E+03  0.00000000000E+00 0.  1.
         21   -1    0    0  501  503 -0.00000000000E+00 -0.00000000000E+00 -0.70440142142E+03  0.70440142142E+03  0.00000000000E+00 0. -1.
          6    2    1    2  501    0  0.24179627828E+03 -0.27720720746E+03 -0.16936297509E+03  0.43976006706E+03  0.17145210173E+03 0.  0.
         24    2    3    3    0    0  0.20649767361E+03 -0.18317282299E+03 -0.64345671559E+02  0.29436687259E+03  0.79485331628E+02 0.  0.
         -6    2    1    2    0  502 -0.24179627828E+03  0.27720720746E+03 -0.29672938559E+03  0.50295041510E+03  0.17205091023E+03 0.  0.
        -24    2    5    5    0    0 -0.20954227237E+03  0.24705582115E+03 -0.31117281229E+03  0.45625855747E+03  0.79992558899E+02 0.  0.
          5    1    3    3  501    0  0.35298604668E+02 -0.94034384472E+02 -0.10501730354E+03  0.14539319446E+03  0.47000000000E+01 0. -1.
        -13    1    4    4    0    0  0.12644077091E+02  0.58490600489E+01  0.51197863719E+01  0.14842385301E+02  0.00000000000E+00 0.  1.
         14    1    4    4    0    0  0.19385359652E+03 -0.18902188304E+03 -0.69465457931E+02  0.27952448729E+03  0.00000000000E+00 0. -1.
         -5    1    5    5    0  502 -0.32254005912E+02  0.30151386310E+02  0.14443426700E+02  0.46691857626E+02  0.47000000000E+01 0.  1.
         11    1    6    6    0    0 -0.16555707501E+03  0.13992966238E+03 -0.18481619305E+03  0.28486221356E+03  0.00000000000E+00 0. -1.
        -12    1    6    6    0    0 -0.43985197359E+02  0.10712615877E+03 -0.12635661925E+03  0.17139634391E+03  0.00000000000E+00 0.  1.
</event>
<event>
12    1  0.1032880E+000  0.3754414E+03  0.7818608E-02  0.1052873E+00
         21   -1    0    0  503  502  0.00000000000E+00  0.00000000000E+00  0.35422689239E+03  0.35422689239E+03  0.00000000000E+00 0.  1.
         21   -1    0    0  501  503 -0.00000000000E+00 -0.00000000000E+00 -0.41261378052E+03  0.41261378052E+03  0.00000000000E+00 0.  1.
          6    2    1    2  501    0  0.24434413125E+03  0.22300145156E+03 -0.10801925351E+03  0.39067175411E+03  0.17754593337E+03 0.  0.
         24    2    3    3    0    0  0.23886170312E+03  0.16210913749E+03 -0.12889301793E+03  0.32589726089E+03  0.79128559401E+02 0.  0.
         -6    2    1    2    0  502 -0.24434413125E+03 -0.22300145156E+03  0.49632365378E+02  0.37616891880E+03  0.17206388903E+03 0.  0.
        -24    2    5    5    0    0 -0.25371946803E+03 -0.21228360691E+03  0.72832305263E+02  0.34854472028E+03  0.82103465956E+02 0.  0.
          5    1    3    3  501    0  0.54824281349E+01  0.60892314064E+02  0.20873764418E+02  0.64774493215E+02  0.47000000000E+01 0. -1.
        -13    1    4    4    0    0  0.47016635023E+02  0.33528916412E+01 -0.38918742247E+02  0.61126707332E+02  0.00000000000E+00 0.  1.
         14    1    4    4    0    0  0.19184506809E+03  0.15875624585E+03 -0.89974275685E+02  0.26477055356E+03  0.00000000000E+00 0. -1.
         -5    1    5    5    0  502  0.93753367792E+01 -0.10717844647E+02 -0.23199939885E+02  0.27624198527E+02  0.47000000000E+01 0.  1.
         11    1    6    6    0    0 -0.24133848819E+03 -0.17348972534E+03  0.78534414346E+02  0.30742577139E+03  0.00000000000E+00 0. -1.
        -12    1    6    6    0    0 -0.12380979841E+02 -0.38793881574E+02 -0.57021090823E+01  0.41118948885E+02  0.00000000000E+00 0.  1.
</event>
<event>
12    1  0.1032880E+000  0.1760266E+03  0.7818608E-02  0.1171793E+00
         21   -1    0    0  501  502  0.00000000000E+00  0.00000000000E+00  0.79189024115E+03  0.79189024115E+03  0.00000000000E+00 0.  1.
         21   -1    0    0  502  503 -0.00000000000E+00 -0.00000000000E+00 -0.90165355804E+02  0.90165355804E+02  0.00000000000E+00 0.  1.
         -6    2    1    2    0  503  0.29517256599E+02 -0.22106713401E+02  0.68277458467E+03  0.70501191288E+03  0.17175764501E+03 0.  0.
        -24    2    3    3    0    0  0.24950630900E+02  0.50708304423E+02  0.47303840743E+03  0.48289879996E+03  0.78943333947E+02 0.  0.
          6    2    1    2  501    0 -0.29517256599E+02  0.22106713401E+02  0.18950300679E+02  0.17704368407E+03  0.17212023983E+03 0.  0.
         24    2    5    5    0    0  0.11752120166E+02  0.16214935420E+02 -0.55938441373E+02  0.91204950437E+02  0.69196801240E+02 0.  0.
          5    1    5    5  501    0 -0.41269376765E+02  0.58917779808E+01  0.74888742051E+02  0.85838733637E+02  0.47000000000E+01 0. -1.
        -13    1    6    6    0    0  0.34609974554E+02  0.28716200419E+02 -0.27864214563E+02  0.52904489019E+02  0.00000000000E+00 0.  1.
         14    1    6    6    0    0 -0.22857854389E+02 -0.12501264999E+02 -0.28074226810E+02  0.38300461417E+02  0.00000000000E+00 0. -1.
         -5    1    3    3    0  503  0.45666256990E+01 -0.72815017824E+02  0.20973617724E+03  0.22211311292E+03  0.47000000000E+01 0.  1.
         13    1    4    4    0    0  0.38716709874E+02  0.42971208000E+02  0.17236299908E+03  0.18180899811E+03  0.00000000000E+00 0. -1.
        -14    1    4    4    0    0 -0.13766078973E+02  0.77370964227E+01  0.30067540835E+03  0.30108980185E+03  0.00000000000E+00 0.  1.
</event>
<event>
12    1  0.1032880E+000  0.2249997E+03  0.7818608E-02  0.1130327E+00
         21   -1    0    0  501  502  0.00000000000E+00  0.00000000000E+00  0.10834587579E+03  0.10834587579E+03  0.00000000000E+00 0.  1.
         21   -1    0    0  502  503 -0.00000000000E+00 -0.00000000000E+00 -0.19463042889E+04  0.19463042889E+04  0.00000000000E+00 0.  1.
         -6    2    1    2    0  503 -0.19384663867E+02  0.14346019627E+03 -0.22693624513E+02  0.22549432166E+03  0.17139456059E+03 0.  0.
        -24    2    3    3    0    0  0.69049803472E+01  0.12582609299E+03  0.40687310700E+02  0.15449192776E+03  0.79576466749E+02 0.  0.
          6    2    1    2  501    0  0.19384663867E+02 -0.14346019627E+03 -0.18152647886E+04  0.18291558430E+04  0.17224474525E+03 0.  0.
         24    2    5    5    0    0 -0.34363681939E+02 -0.13093883908E+03 -0.10321638047E+04  0.10440985776E+04  0.80336030206E+02 0.  0.
          5    1    5    5  501    0  0.53748345806E+02 -0.12521357190E+02 -0.78310098383E+03  0.78505726539E+03  0.47000000000E+01 0. -1.
        -11    1    6    6    0    0 -0.53072409710E+02 -0.52168035412E+02 -0.41131484637E+03  0.41799292750E+03  0.00000000000E+00 0.  1.
         12    1    6    6    0    0  0.18708727771E+02 -0.78770803665E+02 -0.62084895837E+03  0.62610565012E+03  0.00000000000E+00 0. -1.
         -5    1    3    3    0  503 -0.26289644214E+02  0.17634103279E+02 -0.63380935213E+02  0.71002393902E+02  0.47000000000E+01 0.  1.
         13    1    4    4    0    0  0.83013608113E+01  0.93228586844E+02 -0.10085670635E+02  0.94139273146E+02  0.00000000000E+00 0. -1.
        -14    1    4    4    0    0 -0.13963804641E+01  0.32597506144E+02  0.50772981334E+02  0.60352654613E+02  0.00000000000E+00 0.  1.
</event>
<event>
12    1  0.1032880E+000  0.2180991E+03  0.7818608E-02  0.1136049E+00
         21   -1    0    0  501  502  0.00000000000E+00  0.00000000000E+00  0.23711927444E+02  0.23711927444E+02  0.00000000000E+00 0. -1.
         21   -1    0    0  502  503 -0.00000000000E+00 -0.00000000000E+00 -0.20348604591E+04  0.20348604591E+04  0.00000000000E+00 0. -1.
         -6    2    1    2    0  503 -0.10977635833E+03  0.62337759299E+02 -0.81361648461E+03  0.84134182660E+03  0.17305328679E+03 0.  0.
        -24    2    3    3    0    0 -0.20421127155E+02 -0.28277093417E+02 -0.33614334629E+03  0.34717778836E+03  0.79520129704E+02 0.  0.
          6    2    1    2  501    0  0.10977635833E+03 -0.62337759299E+02 -0.11975320471E+04  0.12172305600E+04  0.17784933872E+03 0.  0.
         24    2    5    5    0    0  0.14448316151E+03 -0.64842729276E+02 -0.11084135015E+04  0.11214441192E+04  0.63059169007E+02 0.  0.
          5    1    5    5  501    0 -0.34706803176E+02  0.25049699778E+01 -0.89118545591E+02  0.95786440740E+02  0.47000000000E+01 0. -1.
        -11    1    6    6    0    0  0.82944636615E+02 -0.18947691934E+02 -0.40412494241E+03  0.41298401525E+03  0.00000000000E+00 0.  1.
         12    1    6    6    0    0  0.61538524894E+02 -0.45895037343E+02 -0.70428855905E+03  0.70846010397E+03  0.00000000000E+00 0. -1.
         -5    1    3    3    0  503 -0.89355231177E+02  0.90614852715E+02 -0.47747313832E+03  0.49416403824E+03  0.47000000000E+01 0.  1.
         11    1    4    4    0    0 -0.19164302108E+02 -0.84757337593E+01 -0.15859303850E+02  0.26279765156E+02  0.00000000000E+00 0. -1.
        -12    1    4    4    0    0 -0.12568250465E+01 -0.19801359657E+02 -0.32028404244E+03  0.32089802320E+03  0.00000000000E+00 0.  1.
</event>
<event>
12    1  0.1032880E+000  0.1966634E+03  0.7818608E-02  0.1153565E+00
         21   -1    0    0  503  502  0.00000000000E+00  0.00000000000E+00  0.26677167193E+03  0.26677167193E+03  0.00000000000E+00 0.  1.
         21   -1    0    0  501  503 -0.00000000000E+00 -0.00000000000E+00 -0.14264762392E+03  0.14264762392E+03  0.00000000000E+00 0.  1.
          6    2    1    2  501    0 -0.90073515349E+02 -0.28657684193E+02  0.78118780713E+02  0.20744654377E+03  0.16732311135E+03 0.  0.
         24    2    3    3    0    0 -0.11522814084E+02 -0.20060874833E+02  0.95189120322E+02  0.12646750762E+03  0.79986548329E+02 0.  0.
         -6    2    1    2    0  502  0.90073515349E+02  0.28657684193E+02  0.46005267292E+02  0.20197275208E+03  0.17245871081E+03 0.  0.
        -24    2    5    5    0    0  0.11823873452E+03  0.45812604758E+02  0.56711987001E+01  0.14966120498E+03  0.79291365774E+02 0.  0.
          5    1    3    3  501    0 -0.78550701265E+02 -0.85968093607E+01 -0.17070339609E+02  0.80979036144E+02  0.47000000000E+01 0. -1.
        -11    1    4    4    0    0 -0.15405033613E+02  0.29617379932E+02  0.40371432031E+02  0.52386608774E+02  0.00000000000E+00 0.  1.
         12    1    4    4    0    0  0.38822195284E+01 -0.49678254764E+02  0.54817688291E+02  0.74080898850E+02  0.00000000000E+00 0. -1.
         -5    1    5    5    0  502 -0.28165219172E+02 -0.17154920564E+02  0.40334068592E+02  0.52311547098E+02  0.47000000000E+01 0.  1.
         13    1    6    6    0    0  0.68920812881E+02  0.55984562613E+02 -0.22987492654E+02  0.91721178130E+02  0.00000000000E+00 0. -1.
        -14    1    6    6    0    0  0.49317921641E+02 -0.10171957855E+02  0.28658691354E+02  0.57940026852E+02  0.00000000000E+00 0.  1.
</event>
<event>
12    1  0.1032880E+000  0.1786168E+03  0.7818608E-02  0.1169263E+00
         21   -1    0    0  503  502  0.00000000000E+00  0.00000000000E+00  0.12680027863E+03  0.12680027863E+03  0.00000000000E+00 0. -1.
         21   -1    0    0  501  503 -0.00000000000E+00 -0.00000000000E+00 -0.25807205326E+03  0.25807205326E+03  0.00000000000E+00 0. -1.
          6    2    1    2  501    0 -0.25802926482E+02  0.40459233826E+02 -0.97696646334E+02  0.20358930582E+03  0.17205008027E+03 0.  0.
         24    2    3    3    0    0 -0.22328649146E+02 -0.23276468264E+02  0.62511785480E+01  0.81517398232E+02  0.74603260209E+02 0.  0.
         -6    2    1    2    0  502  0.25802926482E+02 -0.40459233826E+02 -0.33575128298E+02  0.18128302608E+03  0.17156195874E+03 0.  0.
        -24    2    5    5    0    0  0.48363675816E+02  0.81176982866E+01  0.26966942705E+02  0.10031304334E+03  0.83249915920E+02 0.  0.
          5    1    3    3  501    0 -0.34742773360E+01  0.63735702090E+02 -0.10394782488E+03  0.12207190759E+03  0.47000000000E+01 0. -1.
        -11    1    4    4    0    0 -0.45910283814E+02 -0.93674481696E+01  0.19922580388E+02  0.50915738769E+02  0.00000000000E+00 0.  1.
         12    1    4    4    0    0  0.23581634668E+02 -0.13909020095E+02 -0.13671401840E+02  0.30601659463E+02  0.00000000000E+00 0. -1.
         -5    1    5    5    0  502 -0.22560749334E+02 -0.48576932113E+02 -0.60542071003E+02  0.80969982743E+02  0.47000000000E+01 0.  1.
         11    1    6    6    0    0  0.23176532622E+01 -0.18056525714E+02  0.41561576081E+02  0.45373717545E+02  0.00000000000E+00 0. -1.
        -12    1    6    6    0    0  0.46046022553E+02  0.26174224001E+02 -0.14594633376E+02  0.54939325792E+02  0.00000000000E+00 0.  1.
</event>
<event>
12    1  0.1032880E+000  0.2489195E+03  0.7818608E-02  0.1114083E+00
         21   -1    0    0  501  502  0.00000000000E+00  0.00000000000E+00  0.27271956200E+03  0.27271956200E+03  0.00000000000E+00 0. -1.
         21   -1    0    0  502  503 -0.00000000000E+00 -0.00000000000E+00 -0.23777250580E+03  0.23777250580E+03  0.00000000000E+00 0. -1.
         -6    2    1    2    0  503  0.15000767898E+03 -0.98161597425E+02  0.72631706148E+02  0.25873612362E+03  0.17184590180E+03 0.  0.
        -24    2    3    3    0    0  0.26834741869E+02 -0.26181834163E+02 -0.17383494067E+02  0.89983390234E+02  0.79932676926E+02 0.  0.
          6    2    1    2  501    0 -0.15000767898E+03  0.98161597425E+02 -0.37684649948E+02  0.25175594418E+03  0.17269313717E+03 0.  0.
         24    2    5    5    0    0 -0.12419903891E+03  0.36682583313E+02  0.32948738091E+02  0.15450924457E+03  0.77565934098E+02 0.  0.
          5    1    5    5  501    0 -0.25808640069E+02  0.61479014111E+02 -0.70633388038E+02  0.97246699605E+02  0.47000000000E+01 0. -1.
        -13    1    6    6    0    0 -0.40641596696E+02  0.29952551449E+02 -0.21152944212E+02  0.54738850638E+02  0.00000000000E+00 0.  1.
         14    1    6    6    0    0 -0.83557442212E+02  0.67300318639E+01  0.54101682303E+02  0.99770393935E+02  0.00000000000E+00 0. -1.
         -5    1    3    3    0  503  0.12317293711E+03 -0.71979763261E+02  0.90015200215E+02  0.16875273339E+03  0.47000000000E+01 0.  1.
         11    1    4    4    0    0 -0.17214948325E+02  0.12247089614E+02  0.12274492202E+02  0.24433763702E+02  0.00000000000E+00 0. -1.
        -12    1    4    4    0    0  0.44049690194E+02 -0.38428923777E+02 -0.29657986269E+02  0.65549626531E+02  0.00000000000E+00 0.  1.
</event>
<event>
12    1  0.1032880E+000  0.2089744E+03  0.7818608E-02  0.1142774E+00
         21   -1    0    0  501  502  0.00000000000E+00  0.00000000000E+00  0.20717726117E+03  0.20717726117E+03  0.00000000000E+00 0. -1.
         21   -1    0    0  502  503 -0.00000000000E+00 -0.00000000000E+00 -0.26749405390E+03  0.26749405390E+03  0.00000000000E+00 0. -1.
         -6    2    1    2    0  503  0.32683401580E+02  0.11402390274E+03  0.81117270796E+02  0.22233441520E+03  0.16965531358E+03 0.  0.
        -24    2    3    3    0    0  0.17943002910E+02  0.13479066934E+03  0.10303575038E+03  0.18840732137E+03  0.79940459074E+02 0.  0.
          6    2    1    2  501    0 -0.32683401580E+02 -0.11402390274E+03 -0.14143406352E+03  0.25233689987E+03  0.17204842800E+03 0.  0.
         24    2    5    5    0    0 -0.41759703081E+02 -0.13509473484E+03 -0.69471474290E+02  0.17665953559E+03  0.79923998850E+02 0.  0.
          5    1    5    5  501    0  0.90763015010E+01  0.21070832107E+02 -0.71962589235E+02  0.75677364277E+02  0.47000000000E+01 0. -1.
        -13    1    6    6    0    0 -0.35575429713E+02 -0.18533413003E+02  0.13376017630E+01  0.40135866445E+02  0.00000000000E+00 0.  1.
         14    1    6    6    0    0 -0.61842733677E+01 -0.11656132184E+03 -0.70809076053E+02  0.13652366915E+03  0.00000000000E+00 0. -1.
         -5    1    3    3    0  503  0.14740398670E+02 -0.20766766604E+02 -0.21918479582E+02  0.33927093824E+02  0.47000000000E+01 0.  1.
         13    1    4    4    0    0 -0.22658482726E+02  0.32921194037E+02  0.31768411698E+01  0.40091198237E+02  0.00000000000E+00 0. -1.
        -14    1    4    4    0    0  0.40601485636E+02  0.10186947530E+03  0.99858909208E+02  0.14831612314E+03  0.00000000000E+00 0.  1.
</event>
<event>
12    1  0.1032880E+000  0.2037559E+03  0.7818608E-02  0.1147279E+00
         21   -1    0    0  503  502  0.00000000000E+00  0.00000000000E+00  0.46149056162E+02  0.46149056162E+02  0.00000000000E+00 0. -1.
         21   -1    0    0  501  503 -0.00000000000E+00 -0.00000000000E+00 -0.91811728766E+03  0.91811728766E+03  0.00000000000E+00 0. -1.
          6    2    1    2  501    0  0.10608114960E+03  0.13080075498E+02 -0.34164423758E+03  0.39614661701E+03  0.16966749371E+03 0.  0.
         24    2    3    3    0    0  0.13782690098E+03 -0.84772681161E+01 -0.29459781432E+03  0.33525353254E+03  0.80863713570E+02 0.  0.
         -6    2    1    2    0  502 -0.10608114960E+03 -0.13080075498E+02 -0.53032399392E+03  0.56811972682E+03  0.17347099698E+03 0.  0.
        -24    2    5    5    0    0  0.86027505507E+01 -0.45374052920E+00 -0.14438060621E+03  0.16527210078E+03  0.79968085183E+02 0.  0.
          5    1    3    3  501    0 -0.31745751381E+02  0.21557343614E+02 -0.47046423261E+02  0.60893084469E+02  0.47000000000E+01 0. -1.
        -11    1    4    4    0    0  0.18522337145E+02 -0.26971845582E+02 -0.10932620844E+03  0.11411738378E+03  0.00000000000E+00 0.  1.
         12    1    4    4    0    0  0.11930456383E+03  0.18494577466E+02 -0.18527160587E+03  0.22113614876E+03  0.00000000000E+00 0. -1.
         -5    1    5    5    0  502 -0.11468390015E+03 -0.12626334969E+02 -0.38594338771E+03  0.40284762604E+03  0.47000000000E+01 0.  1.
         13    1    6    6    0    0 -0.32689145654E+01 -0.38176777904E+02 -0.91830533187E+02  0.99503763742E+02  0.00000000000E+00 0. -1.
        -14    1    6    6    0    0  0.11871665116E+02  0.37723037375E+02 -0.52550073025E+02  0.65768337035E+02  0.00000000000E+00 0.  1.
</event>
<event>
12    1  0.1032880E+000  0.1909204E+03  0.7818608E-02  0.1157811E+00
         21   -1    0    0  503  502  0.00000000000E+00  0.00000000000E+00  0.96258597576E+02  0.96258597576E+02  0.00000000000E+00 0.  1.
         21   -1    0    0  501  503 -0.00000000000E+00 -0.00000000000E+00 -0.49500002240E+03  0.49500002240E+03  0.00000000000E+00 0.  1.
          6    2    1    2  501    0  0.35200433358E+02 -0.71522157798E+02 -0.55411674810E+02  0.19879904805E+03  0.17348232831E+03 0.  0.
         24    2    3    3    0    0  0.62101957061E+02 -0.54910611975E+02  0.19033586967E+02  0.11778162749E+03  0.81476413542E+02 0.  0.
         -6    2    1    2    0  502 -0.35200433358E+02  0.71522157798E+02 -0.34332975001E+03  0.39245957193E+03  0.17261143875E+03 0.  0.
        -24    2    5    5    0    0  0.32944387260E+02  0.25626159047E+02 -0.10006532643E+03  0.13565258398E+03  0.81526200127E+02 0.  0.
          5    1    3    3  501    0 -0.26901523704E+02 -0.16611545823E+02 -0.74445261777E+02  0.81017420555E+02  0.47000000000E+01 0. -1.
        -11    1    4    4    0    0 -0.17646472267E+02 -0.23143608983E+02  0.12550738207E+02  0.31694568143E+02  0.00000000000E+00 0.  1.
         12    1    4    4    0    0  0.79748429328E+02 -0.31767002992E+02  0.64828487599E+01  0.86087059350E+02  0.00000000000E+00 0. -1.
         -5    1    5    5    0  502 -0.68144820618E+02  0.45895998751E+02 -0.24326442358E+03  0.25680698795E+03  0.47000000000E+01 0.  1.
         11    1    6    6    0    0 -0.11445341621E+02  0.32581380720E+02 -0.78611432232E+02  0.85862095782E+02  0.00000000000E+00 0. -1.
        -12    1    6    6    0    0  0.44389728882E+02 -0.69552216728E+01 -0.21453894200E+02  0.49790488199E+02  0.00000000000E+00 0.  1.
</event>
<event>
12    1  0.1032880E+000  0.2242135E+03  0.7818608E-02  0.1130908E+00
         21   -1    0    0  503  502  0.00000000000E+00  0.00000000000E+00  0.56610825360E+03  0.56610825360E+03  0.00000000000E+00 0.  1.
         21   -1    0    0  501  503 -0.00000000000E+00 -0.00000000000E+00 -0.99889461876E+02  0.99889461876E+02  0.00000000000E+00 0.  1.
          6    2    1    2  501    0 -0.12238041433E+03 -0.74628557858E+02  0.12046055527E+03  0.25390492708E+03  0.17149512868E+03 0.  0.
         24    2    3    3    0    0 -0.13835299364E+03 -0.43589492475E+02  0.45165449824E+02  0.17077857883E+03  0.77998784775E+02 0.  0.
         -6    2    1    2    0  502  0.12238041433E+03  0.74628557858E+02  0.34575823646E+03  0.41209278839E+03  0.17241032658E+03 0.  0.
        -24    2    5    5    0    0  0.12341107148E+03  0.10477725795E+03  0.32971719566E+03  0.37760494473E+03  0.87541412019E+02 0.  0.
          5    1    3    3  501    0  0.15972579309E+02 -0.31039065384E+02  0.75295105447E+02  0.83126348254E+02  0.47000000000E+01 0. -1.
        -13    1    4    4    0    0 -0.28005474142E+02 -0.46198760239E+02  0.10067863319E+02  0.54954471167E+02  0.00000000000E+00 0.  1.
         14    1    4    4    0    0 -0.11034751950E+03  0.26092677638E+01  0.35097586505E+02  0.11582410766E+03  0.00000000000E+00 0. -1.
         -5    1    5    5    0  502 -0.10306571543E+01 -0.30148700088E+02  0.16041040792E+02  0.34487843668E+02  0.47000000000E+01 0.  1.
         13    1    6    6    0    0  0.11737764723E+03  0.84431925771E+02  0.32521888716E+03  0.35591233011E+03  0.00000000000E+00 0. -1.
        -14    1    6    6    0    0  0.60334242492E+01  0.20345332176E+02  0.44983085053E+01  0.21692614617E+02  0.00000000000E+00 0.  1.
</event>
<event>
12    1  0.1032880E+000  0.2272133E+03  0.7818608E-02  0.1128872E+00
         21   -1    0    0  503  502  0.00000000000E+00  0.00000000000E+00  0.36347754918E+03  0.36347754918E+03  0.00000000000E+00 0. -1.
         21   -1    0    0  501  503 -0.00000000000E+00 -0.00000000000E+00 -0.15870912073E+03  0.15870912073E+03  0.00000000000E+00 0. -1.
          6    2    1    2  501    0 -0.51990428071E+02  0.13710587310E+03  0.15815364240E+02  0.22776301277E+03  0.17356508633E+03 0.  0.
         24    2    3    3    0    0 -0.68867888133E+02  0.10750634396E+03  0.68028359713E+02  0.16523887600E+03  0.79847532257E+02 0.  0.
         -6    2    1    2    0  502  0.51990428071E+02 -0.13710587310E+03  0.18895306422E+03  0.29442365713E+03  0.17170033301E+03 0.  0.
        -24    2    5    5    0    0  0.80816333637E+02 -0.34986298488E+02  0.94108334130E+02  0.15202649012E+03  0.80624774604E+02 0.  0.
          5    1    3    3  501    0  0.16877460062E+02  0.29599529133E+02 -0.52212995473E+02  0.62524136774E+02  0.47000000000E+01 0. -1.
        -11    1    4    4    0    0 -0.84830067412E+02  0.10270192455E+03  0.55137640775E+02  0.14416651856E+03  0.00000000000E+00 0.  1.
         12    1    4    4    0    0  0.15962179279E+02  0.48044194117E+01  0.12890718938E+02  0.21072357437E+02  0.00000000000E+00 0. -1.
         -5    1    5    5    0  502 -0.28825905566E+02 -0.10211957461E+03  0.94844730086E+02  0.14239716702E+03  0.47000000000E+01 0.  1.
         13    1    6    6    0    0  0.83767607963E+02 -0.43338062616E+02  0.10287403954E+03  0.13956456508E+03  0.00000000000E+00 0. -1.
        -14    1    6    6    0    0 -0.29512743262E+01  0.83517641283E+01 -0.87657054109E+01  0.12461925034E+02  0.00000000000E+00 0.  1.
</event>
<event>
12    1  0.1032880E+000  0.2404730E+03  0.7818608E-02  0.1119513E+00
         21   -1    0    0  501  502  0.00000000000E+00  0.00000000000E+00  0.47549194780E+03  0.47549194780E+03  0.00000000000E+00 0.  1.
         21   -1    0    0  502  503 -0.00000000000E+00 -0.00000000000E+00 -0.12253704879E+03  0.12253704879E+03  0.00000000000E+00 0.  1.
         -6    2    1    2    0  503  0.20773568383E+02 -0.16735986197E+03  0.20391949090E+03  0.31529418240E+03  0.17142461359E+03 0.  0.
        -24    2    3    3    0    0 -0.48111871055E+02 -0.69147503993E+02  0.70747691392E+02  0.13599641551E+03  0.79960363623E+02 0.  0.
          6    2    1    2  501    0 -0.20773568383E+02  0.16735986197E+03  0.14903540811E+03  0.28273481418E+03  0.17113315792E+03 0.  0.
         24    2    5    5    0    0 -0.38902049353E+02  0.18978639906E+03  0.11926013039E+03  0.24101852778E+03  0.79590862039E+02 0.  0.
          5    1    5    5  501    0  0.18128480971E+02 -0.22426537088E+02  0.29775277718E+02  0.41716286403E+02  0.47000000000E+01 0. -1.
        -11    1    6    6    0    0 -0.48921811024E+02  0.18541993618E+03  0.94145884495E+02  0.21362898655E+03  0.00000000000E+00 0.  1.
         12    1    6    6    0    0  0.10019761670E+02  0.43664628832E+01  0.25114245895E+02  0.27389541233E+02  0.00000000000E+00 0. -1.
         -5    1    3    3    0  503  0.68885439438E+02 -0.98212357978E+02  0.13317179951E+03  0.17929776689E+03  0.47000000000E+01 0.  1.
         11    1    4    4    0    0 -0.28300704842E+02 -0.71959166520E+02  0.17733615944E+02  0.79331788555E+02  0.00000000000E+00 0. -1.
        -12    1    4    4    0    0 -0.19811166213E+02  0.28116625279E+01  0.53014075448E+02  0.56664626960E+02  0.00000000000E+00 0.  1.
</event>
<event>
12    1  0.1032880E+000  0.2192213E+03  0.7818608E-02  0.1134593E+00
         21   -1    0    0  501  502  0.00000000000E+00  0.00000000000E+00  0.77532298506E+03  0.77532298506E+03  0.00000000000E+00 0. -1.
         21   -1    0    0  502  503 -0.00000000000E+00 -0.00000000000E+00 -0.61798839545E+02  0.61798839545E+02  0.00000000000E+00 0. -1.
         -6    2    1    2    0  503 -0.12973486812E+03 -0.29888916137E+02  0.35163443498E+03  0.41401175855E+03  0.17330457883E+03 0.  0.
        -24    2    3    3    0    0 -0.11397442383E+03  0.23333858193E+02  0.15324157811E+03  0.20794654808E+03  0.78893265674E+02 0.  0.
          6    2    1    2  501    0  0.12973486812E+03  0.29888916137E+02  0.36188971054E+03  0.42311006606E+03  0.17416510010E+03 0.  0.
         24    2    5    5    0    0  0.30567027021E+02 -0.11632504977E+02  0.60017482478E+02  0.10263039245E+03  0.76558741754E+02 0.  0.
          5    1    5    5  501    0  0.99167841098E+02  0.41521421114E+02  0.30187222806E+03  0.32047967360E+03  0.47000000000E+01 0. -1.
        -11    1    6    6    0    0  0.30447949548E+02 -0.24190949774E+02  0.74147013989E+02  0.83726097282E+02  0.00000000000E+00 0.  1.
         12    1    6    6    0    0  0.11907747312E+00  0.12558444797E+02 -0.14129531511E+02  0.18904295170E+02  0.00000000000E+00 0. -1.
         -5    1    3    3    0  503 -0.15760444285E+02 -0.53222774330E+02  0.19839285687E+03  0.20606521047E+03  0.47000000000E+01 0.  1.
         13    1    4    4    0    0 -0.34553678750E+02  0.45584767674E+02  0.51461246532E+02  0.76942755693E+02  0.00000000000E+00 0. -1.
        -14    1    4    4    0    0 -0.79420745085E+02 -0.22250909481E+02  0.10178033158E+03  0.13100379238E+03  0.00000000000E+00 0.  1.
</event>
<event>
12    1  0.1032880E+000  0.2837588E+03  0.7818608E-02  0.1093727E+00
         21   -1    0    0  501  502  0.00000000000E+00  0.00000000000E+00  0.70456878297E+03  0.70456878297E+03  0.00000000000E+00 0. -1.
         21   -1    0    0  502  503 -0.00000000000E+00 -0.00000000000E+00 -0.15094794043E+03  0.15094794043E+03  0.00000000000E+00 0. -1.
         -6    2    1    2    0  503 -0.45620499151E+01  0.22540772823E+03  0.48847214703E+03  0.56491069643E+03  0.17230670410E+03 0.  0.
        -24    2    3    3    0    0 -0.30115160834E+02  0.13495167438E+03  0.41646751117E+03  0.44641168066E+03  0.81971479410E+02 0.  0.
          6    2    1    2  501    0  0.45620499151E+01 -0.22540772823E+03  0.65148695518E+02  0.29060602697E+03  0.17140027462E+03 0.  0.
         24    2    5    5    0    0  0.22531023672E+02 -0.22766346632E+03  0.17654881701E+02  0.23955972717E+03  0.68839429894E+02 0.  0.
          5    1    5    5  501    0 -0.17968973757E+02  0.22557380962E+01  0.47493813817E+02  0.51046299798E+02  0.47000000000E+01 0. -1.
        -11    1    6    6    0    0  0.32847787180E+02 -0.76887899950E+02 -0.14996098508E+02  0.84944742343E+02  0.00000000000E+00 0.  1.
         12    1    6    6    0    0 -0.10316763508E+02 -0.15077556637E+03  0.32650980209E+02  0.15461498483E+03  0.00000000000E+00 0. -1.
         -5    1    3    3    0  503  0.25553110919E+02  0.90456053842E+02  0.72004635857E+02  0.11849901577E+03  0.47000000000E+01 0.  1.
         13    1    4    4    0    0  0.17590108615E+02  0.16960941574E+02  0.25794255973E+02  0.35530678313E+02  0.00000000000E+00 0. -1.
        -14    1    4    4    0    0 -0.47705269449E+02  0.11799073281E+03  0.39067325520E+03  0.41088100234E+03  0.00000000000E+00 0.  1.
</event>
<event>
12    1  0.1032880E+000  0.2842881E+03  0.7818608E-02  0.1093386E+00
         21   -1    0    0  503  502  0.00000000000E+00  0.00000000000E+00  0.15298456604E+03  0.15298456604E+03  0.00000000000E+00 0.  1.
         21   -1    0    0  501  503 -0.00000000000E+00 -0.00000000000E+00 -0.11790303430E+04  0.11790303430E+04  0.00000000000E+00 0. -1.
          6    2    1    2  501    0  0.11341536037E+02 -0.22567415087E+03 -0.18194600733E+02  0.28486977428E+03  0.17251751214E+03 0.  0.
         24    2    3    3    0    0  0.30557635727E+02 -0.23999113176E+03 -0.10154036364E+01  0.25501262703E+03  0.80628137015E+02 0.  0.
         -6    2    1    2    0  502 -0.11341536037E+02  0.22567415087E+03 -0.10078511762E+04  0.10471451347E+04  0.17231217894E+03 0.  0.
        -24    2    5    5    0    0 -0.31569179958E+02  0.11844477411E+03 -0.34669512809E+03  0.37702819959E+03  0.83228443473E+02 0.  0.
          5    1    3    3  501    0 -0.19216099690E+02  0.14316980887E+02 -0.17179197097E+02  0.29857147250E+02  0.47000000000E+01 0. -1.
        -13    1    4    4    0    0  0.11998380363E+02 -0.20162588258E+02  0.23299703073E+02  0.33066104395E+02  0.00000000000E+00 0.  1.
         14    1    4    4    0    0  0.18559255364E+02 -0.21982854350E+03 -0.24315106709E+02  0.22194652264E+03  0.00000000000E+00 0. -1.
         -5    1    5    5    0  502  0.20227643921E+02  0.10722937676E+03 -0.66115604810E+03  0.67011693514E+03  0.47000000000E+01 0.  1.
         13    1    6    6    0    0 -0.33932596695E+02  0.75070359341E+01 -0.11492781960E+03  0.12006739951E+03  0.00000000000E+00 0. -1.
        -14    1    6    6    0    0  0.23634167369E+01  0.11093773817E+03 -0.23176730849E+03  0.25696080008E+03  0.00000000000E+00 0.  1.
</event>
<event>
12    1  0.1032880E+000  0.2038563E+03  0.7818608E-02  0.1151102E+00
         21   -1    0    0  503  502  0.00000000000E+00  0.00000000000E+00  0.29207340446E+03  0.29207340446E+03  0.00000000000E+00 0.  1.
         21   -1    0    0  501  503 -0.00000000000E+00 -0.00000000000E+00 -0.15917371963E+03  0.15917371963E+03  0.00000000000E+00 0. -1.
          6    2    1    2  501    0 -0.18706886951E+02 -0.60470312891E+02  0.16906545569E+03  0.26484058599E+03  0.19378029136E+03 0.  0.
         24    2    3    3    0    0 -0.62117368057E+02  0.10430139019E+02  0.60273012159E+02  0.12783974760E+03  0.93502993839E+02 0.  0.
         -6    2    1    2    0  502  0.18706886951E+02  0.60470312891E+02 -0.36165770858E+02  0.18640653809E+03  0.17155998398E+03 0.  0.
        -24    2    5    5    0    0 -0.32994933187E+01  0.20272647109E+01 -0.50909554569E+02  0.12206883677E+03  0.11087840956E+03 0.  0.
          5    1    3    3  501    0  0.43410481105E+02 -0.70900451910E+02  0.10879244353E+03  0.13700083839E+03  0.47000000000E+01 0. -1.
        -11    1    4    4    0    0 -0.37531376312E+02 -0.17888078174E+02  0.76429161755E+02  0.87005771735E+02  0.00000000000E+00 0.  1.
         12    1    4    4    0    0 -0.24585991744E+02  0.28318217192E+02 -0.16156149596E+02  0.40833975863E+02  0.00000000000E+00 0. -1.
         -5    1    5    5    0  502  0.22006380270E+02  0.58443048180E+02  0.14743783711E+02  0.64337701321E+02  0.47000000000E+01 0.  1.
         13    1    6    6    0    0  0.40835436850E+02  0.31818446660E+02 -0.54492225795E+01  0.52054207105E+02  0.00000000000E+00 0. -1.
        -14    1    6    6    0    0 -0.44134930169E+02 -0.29791181950E+02 -0.45460331989E+02  0.70014629668E+02  0.00000000000E+00 0.  1.
</event>
<event>
12    1  0.1032880E+000  0.2889701E+03  0.7818608E-02  0.1090889E+00
         21   -1    0    0  501  502  0.00000000000E+00  0.00000000000E+00  0.37616539895E+03  0.37616539895E+03  0.00000000000E+00 0. -1.
         21   -1    0    0  502  503 -0.00000000000E+00 -0.00000000000E+00 -0.22320953600E+03  0.22320953600E+03  0.00000000000E+00 0. -1.
         -6    2    1    2    0  503  0.13257361649E+03 -0.19045301210E+03  0.98709491921E+02  0.30535729686E+03  0.17219582266E+03 0.  0.
        -24    2    3    3    0    0 -0.24466510286E+01 -0.58811048629E+02  0.52985203957E+02  0.11126226937E+03  0.78148161872E+02 0.  0.
          6    2    1    2  501    0 -0.13257361649E+03  0.19045301210E+03  0.54246371034E+02  0.29401763809E+03  0.17220798220E+03 0.  0.
         24    2    5    5    0    0 -0.16445952585E+03  0.17104201385E+03  0.52207767152E+02  0.25633814799E+03  0.81739152310E+02 0.  0.
          5    1    5    5  501    0  0.31885909357E+02  0.19410998248E+02  0.20386038819E+01  0.37679490101E+02  0.47000000000E+01 0. -1.
        -13    1    6    6    0    0 -0.13544420675E+03  0.10437412735E+03  0.78656119998E+01  0.17117523026E+03  0.00000000000E+00 0.  1.
         14    1    6    6    0    0 -0.29015319093E+02  0.66667886498E+02  0.44342155152E+02  0.85162917727E+02  0.00000000000E+00 0. -1.
         -5    1    3    3    0  503  0.13502026752E+03 -0.13164196347E+03  0.45724287965E+02  0.19409502749E+03  0.47000000000E+01 0.  1.
         11    1    4    4    0    0  0.22967351906E+01  0.18969189167E+02  0.16382086996E+02  0.25168986958E+02  0.00000000000E+00 0. -1.
        -12    1    4    4    0    0 -0.47433862192E+01 -0.77780237796E+02  0.36603116961E+02  0.86093282407E+02  0.00000000000E+00 0.  1.
</event>
<event>
12    1  0.1032880E+000  0.1911829E+03  0.7818608E-02  0.1157459E+00
         21   -1    0    0  501  502  0.00000000000E+00  0.00000000000E+00  0.34334865080E+03  0.34334865080E+03  0.00000000000E+00 0.  1.
         21   -1    0    0  502  503 -0.00000000000E+00 -0.00000000000E+00 -0.10792361007E+03  0.10792361007E+03  0.00000000000E+00 0.  1.
         -6    2    1    2    0  503  0.53288775682E+02  0.61797387730E+02  0.14543636505E+03  0.24021371736E+03  0.17289384889E+03 0.  0.
        -24    2    3    3    0    0  0.99694645472E+02  0.67110650297E+02  0.11256555335E+03  0.18290476717E+03  0.79625927519E+02 0.  0.
          6    2    1    2  501    0 -0.53288775682E+02 -0.61797387730E+02  0.89988675683E+02  0.21105854351E+03  0.17259529626E+03 0.  0.
         24    2    5    5    0    0 -0.81465663336E+02 -0.91649519836E+02  0.85988282423E+02  0.16954734098E+03  0.79473437888E+02 0.  0.
          5    1    5    5  501    0  0.28176887654E+02  0.29852132107E+02  0.40003932605E+01  0.41511202529E+02  0.47000000000E+01 0. -1.
        -13    1    6    6    0    0 -0.51541551485E+02 -0.99613597686E+02  0.52182481496E+02  0.12370291730E+03  0.00000000000E+00 0.  1.
         14    1    6    6    0    0 -0.29924111851E+02  0.79640778501E+01  0.33805800927E+02  0.45844423678E+02  0.00000000000E+00 0. -1.
         -5    1    3    3    0  503 -0.46405869790E+02 -0.53132625673E+01  0.32870811699E+02  0.57308950190E+02  0.47000000000E+01 0.  1.
         13    1    4    4    0    0  0.62556772318E+02  0.55008731949E+02  0.24920993111E+02  0.86950366596E+02  0.00000000000E+00 0. -1.
        -14    1    4    4    0    0  0.37137873154E+02  0.12101918348E+02  0.87644560236E+02  0.95954400571E+02  0.00000000000E+00 0.  1.
</event>
<event>
12    1  0.1032880E+000  0.1829944E+03  0.7818608E-02  0.1165265E+00
         21   -1    0    0  503  502  0.00000000000E+00  0.00000000000E+00  0.96855459097E+02  0.96855459097E+02  0.00000000000E+00 0. -1.
         21   -1    0    0  501  503 -0.00000000000E+00 -0.00000000000E+00 -0.43543172625E+03  0.43543172625E+03  0.00000000000E+00 0. -1.
          6    2    1    2  501    0  0.25989404553E+02 -0.53178861744E+02 -0.46249671748E+02  0.18740778716E+03  0.17169509622E+03 0.  0.
         24    2    3    3    0    0  0.81380846021E+02 -0.52951573492E+02 -0.28088247821E+02  0.12892539009E+03  0.80038086628E+02 0.  0.
         -6    2    1    2    0  502 -0.25989404553E+02  0.53178861744E+02 -0.29232659540E+03  0.34487939818E+03  0.17315750179E+03 0.  0.
        -24    2    5    5    0    0  0.48139584497E+02  0.54523903934E+02 -0.18173674353E+03  0.21165356925E+03  0.80490457409E+02 0.  0.
          5    1    3    3  501    0 -0.55391441467E+02 -0.22728825256E+00 -0.18161423927E+02  0.58482397068E+02  0.47000000000E+01 0. -1.
        -13    1    4    4    0    0  0.44735475811E+02  0.29971844890E+01  0.17342621024E+02  0.48072990492E+02  0.00000000000E+00 0.  1.
         14    1    4    4    0    0  0.36645370210E+02 -0.55948757981E+02 -0.45430868845E+02  0.80852399602E+02  0.00000000000E+00 0. -1.
         -5    1    5    5    0  502 -0.74128989050E+02 -0.13450421891E+01 -0.11058985188E+03  0.13322582893E+03  0.47000000000E+01 0.  1.
         11    1    6    6    0    0  0.11705666447E+02 -0.10264411670E+01  0.55049327317E+01  0.12976150925E+02  0.00000000000E+00 0. -1.
        -12    1    6    6    0    0  0.36433918050E+02  0.55550345101E+02 -0.18724167626E+03  0.19867741833E+03  0.00000000000E+00 0.  1.
</event>
<event>
12    1  0.1032880E+000  0.2691094E+03  0.7818608E-02  0.1102125E+00
         21   -1    0    0  501  502  0.00000000000E+00  0.00000000000E+00  0.12834365972E+03  0.12834365972E+03  0.00000000000E+00 0.  1.
         21   -1    0    0  502  503 -0.00000000000E+00 -0.00000000000E+00 -0.57997805240E+03  0.57997805240E+03  0.00000000000E+00 0.  1.
         -6    2    1    2    0  503  0.19605077324E+03 -0.54605537791E+02 -0.16007738405E+03  0.31312082097E+03  0.17607444219E+03 0.  0.
        -24    2    3    3    0    0  0.10309028595E+03 -0.61478795188E+02 -0.20565593972E+02  0.14526813723E+03  0.79199991948E+02 0.  0.
          6    2    1    2  501    0 -0.19605077324E+03  0.54605537791E+02 -0.29155700862E+03  0.39520089115E+03  0.17251256373E+03 0.  0.
         24    2    5    5    0    0 -0.10775578709E+03  0.30725722093E+02 -0.26666468289E+03  0.30029057529E+03  0.80678354331E+02 0.  0.
          5    1    5    5  501    0 -0.88294986147E+02  0.23879815698E+02 -0.24892325729E+02  0.94910315860E+02  0.47000000000E+01 0. -1.
        -13    1    6    6    0    0 -0.10259519568E+03  0.26407781285E+02 -0.27187124757E+03  0.29178265943E+03  0.00000000000E+00 0.  1.
         14    1    6    6    0    0 -0.51605914198E+01  0.43179408081E+01  0.52065646778E+01  0.85079158651E+01  0.00000000000E+00 0. -1.
         -5    1    3    3    0  503  0.92960487295E+02  0.68732573972E+01 -0.13951179008E+03  0.16785268374E+03  0.47000000000E+01 0.  1.
         13    1    4    4    0    0  0.10180137569E+02  0.18507296021E+02 -0.48052034147E+01  0.21662067925E+02  0.00000000000E+00 0. -1.
        -14    1    4    4    0    0  0.92910148378E+02 -0.79986091209E+02 -0.15760390557E+02  0.12360606931E+03  0.00000000000E+00 0.  1.
</event>
<event>
12    1  0.1032880E+000  0.1756344E+03  0.7818608E-02  0.1172175E+00
         21   -1    0    0  501  502  0.00000000000E+00  0.00000000000E+00  0.28013110598E+03  0.28013110598E+03  0.00000000000E+00 0.  1.
         21   -1    0    0  502  503 -0.00000000000E+00 -0.00000000000E+00 -0.34536887186E+03  0.34536887186E+03  0.00000000000E+00 0.  1.
         -6    2    1    2    0  503 -0.11370645390E+02 -0.34196340078E+02  0.22559949770E+03  0.28590660452E+03  0.17189756221E+03 0.  0.
        -24    2    3    3    0    0  0.48102804218E+02 -0.17568867794E+02  0.71476769268E+02  0.11980582348E+03  0.81375437977E+02 0.  0.
          6    2    1    2  501    0  0.11370645390E+02  0.34196340078E+02 -0.29083726358E+03  0.33959337332E+03  0.17157699166E+03 0.  0.
         24    2    5    5    0    0 -0.31474405864E+02  0.57296427057E+02 -0.26485607476E+03  0.28421806648E+03  0.79734874416E+02 0.  0.
          5    1    5    5  501    0  0.42845051254E+02 -0.23100086979E+02 -0.25981188816E+02  0.55375306841E+02  0.47000000000E+01 0. -1.
        -13    1    6    6    0    0 -0.56264038733E+02  0.37009440691E+02 -0.14055433186E+03  0.15585525644E+03  0.00000000000E+00 0.  1.
         14    1    6    6    0    0  0.24789632870E+02  0.20286986366E+02 -0.12430174290E+03  0.12836281004E+03  0.00000000000E+00 0. -1.
         -5    1    3    3    0  503 -0.59473449608E+02 -0.16627472284E+02  0.15412272843E+03  0.16610078104E+03  0.47000000000E+01 0.  1.
         11    1    4    4    0    0  0.12628754420E+02  0.24537078288E+02 -0.23652011182E+01  0.27697433553E+02  0.00000000000E+00 0. -1.
        -12    1    4    4    0    0  0.35474049798E+02 -0.42105946083E+02  0.73841970387E+02  0.92108389928E+02  0.00000000000E+00 0.  1.
</event>
<event>
12    1  0.1032880E+000  0.1873001E+03  0.7818608E-02  0.1160977E+00
         21   -1    0    0  503  502  0.00000000000E+00  0.00000000000E+00  0.19761831524E+04  0.19761831524E+04  0.00000000000E+00 0.  1.
         21   -1    0    0  501  503 -0.00000000000E+00 -0.00000000000E+00 -0.19890250689E+02  0.19890250689E+02  0.00000000000E+00 0.  1.
          6    2    1    2  501    0  0.63025660253E+02 -0.38955275364E+02  0.64853169531E+03  0.67496753823E+03  0.17175002332E+03 0.  0.
         24    2    3    3    0    0  0.97487083238E+02 -0.14345752096E+02  0.33082109956E+03  0.35441281441E+03  0.80351173628E+02 0.  0.
         -6    2    1    2    0  502 -0.63025660253E+02  0.38955275364E+02  0.13077612064E+04  0.13211058649E+04  0.17202205055E+03 0.  0.
        -24    2    5    5    0    0 -0.36208061062E+01  0.47488988255E+01  0.10923116793E+04  0.10949651971E+04  0.75949429389E+02 0.  0.
          5    1    3    3  501    0 -0.34461422984E+02 -0.24609523268E+02  0.31771059575E+03  0.32055472382E+03  0.47000000000E+01 0. -1.
        -11    1    4    4    0    0  0.26928846102E+02  0.12440731369E+02  0.23171243590E+02  0.37640949495E+02  0.00000000000E+00 0.  1.
         12    1    4    4    0    0  0.70558237136E+02 -0.26786483465E+02  0.30764985597E+03  0.31677186491E+03  0.00000000000E+00 0. -1.
         -5    1    5    5    0  502 -0.59404854147E+02  0.34206376538E+02  0.21544952709E+03  0.22614066776E+03  0.47000000000E+01 0.  1.
         11    1    6    6    0    0  0.22137233879E+02  0.30123998523E+02  0.69757361150E+03  0.69857458862E+03  0.00000000000E+00 0. -1.
        -12    1    6    6    0    0 -0.25758039985E+02 -0.25375099697E+02  0.39473806780E+03  0.39639060847E+03  0.00000000000E+00 0.  1.
</event>
<event>
12    1  0.1032880E+000  0.2236653E+03  0.7818608E-02  0.1131320E+00
         21   -1    0    0  503  502  0.00000000000E+00  0.00000000000E+00  0.14785544166E+03  0.14785544166E+03  0.00000000000E+00 0.  1.
         21   -1    0    0  501  503 -0.00000000000E+00 -0.00000000000E+00 -0.36244955161E+03  0.36244955161E+03  0.00000000000E+00 0.  1.
          6    2    1    2  501    0 -0.14309001561E+03 -0.14501131698E+02 -0.17449414711E+03  0.28307349312E+03  0.17028611142E+03 0.  0.
         24    2    3    3    0    0 -0.17076760128E+03  0.28913158597E+01 -0.15922649329E+03  0.24669029323E+03  0.79580721636E+02 0.  0.
         -6    2    1    2    0  502  0.14309001561E+03  0.14501131698E+02 -0.40099962839E+02  0.22723150015E+03  0.17129247577E+03 0.  0.
        -24    2    5    5    0    0  0.33942651173E+02  0.30220792899E+02  0.30242071241E+02  0.96348549890E+02  0.79391815075E+02 0.  0.
          5    1    3    3  501    0  0.27677585671E+02 -0.17392447558E+02 -0.15267653827E+02  0.36383199887E+02  0.47000000000E+01 0. -1.
        -13    1    4    4    0    0 -0.38034706009E+02  0.88209310966E+01  0.34510433877E+00  0.39045701218E+02  0.00000000000E+00 0.  1.
         14    1    4    4    0    0 -0.13273289527E+03 -0.59296152369E+01 -0.15957159762E+03  0.20764459201E+03  0.00000000000E+00 0. -1.
         -5    1    5    5    0  502  0.10914736443E+03 -0.15719661201E+02 -0.70342034080E+02  0.13088295026E+03  0.47000000000E+01 0.  1.
         11    1    6    6    0    0  0.99453994009E+00  0.50495615013E+02  0.27641506527E+02  0.57574726472E+02  0.00000000000E+00 0. -1.
        -12    1    6    6    0    0  0.32948111233E+02 -0.20274822115E+02  0.26005647148E+01  0.38773823418E+02  0.00000000000E+00 0.  1.
</event>
<event>
12    1  0.1032880E+000  0.1924687E+03  0.7818608E-02  0.1156464E+00
         21   -1    0    0  503  502  0.00000000000E+00  0.00000000000E+00  0.37684913925E+03  0.37684913925E+03  0.00000000000E+00 0.  1.
         21   -1    0    0  501  503 -0.00000000000E+00 -0.00000000000E+00 -0.18351467731E+03  0.18351467731E+03  0.00000000000E+00 0.  1.
          6    2    1    2  501    0 -0.50767960249E+02  0.70447379198E+02  0.28825822536E+03  0.34660783513E+03  0.17176719088E+03 0.  0.
         24    2    3    3    0    0 -0.84291988016E+02  0.70718920879E+01  0.14357909468E+03  0.18507005733E+03  0.80503532766E+02 0.  0.
         -6    2    1    2    0  502  0.50767960249E+02 -0.70447379198E+02 -0.94923763415E+02  0.21375598144E+03  0.17070699961E+03 0.  0.
        -24    2    5    5    0    0  0.21879389889E+02 -0.33223827902E+02  0.17714013547E+02  0.91569643953E+02  0.80552361699E+02 0.  0.
          5    1    3    3  501    0  0.33524027767E+02  0.63375487110E+02  0.14467913067E+03  0.16153777780E+03  0.47000000000E+01 0. -1.
        -11    1    4    4    0    0  0.81729957688E+01  0.21556207173E+02  0.31909292868E+02  0.39365859560E+02  0.00000000000E+00 0.  1.
         12    1    4    4    0    0 -0.92464983785E+02 -0.14484315085E+02  0.11166980182E+03  0.14570419777E+03  0.00000000000E+00 0. -1.
         -5    1    5    5    0  502  0.28888570360E+02 -0.37223551297E+02 -0.11263777696E+03  0.12218633748E+03  0.47000000000E+01 0.  1.
         11    1    6    6    0    0  0.44995070079E+02  0.19216345875E+01  0.20351898404E+02  0.49421136972E+02  0.00000000000E+00 0. -1.
        -12    1    6    6    0    0 -0.23115680190E+02 -0.35145462489E+02 -0.26378848569E+01  0.42148506981E+02  0.00000000000E+00 0.  1.
</event>
<event>
12    1  0.1032880E+000  0.1951953E+03  0.7818608E-02  0.1153985E+00
         21   -1    0    0  503  502  0.00000000000E+00  0.00000000000E+00  0.88164960782E+03  0.88164960782E+03  0.00000000000E+00 0.  1.
         21   -1    0    0  501  503 -0.00000000000E+00 -0.00000000000E+00 -0.47589910586E+02  0.47589910586E+02  0.00000000000E+00 0.  1.
          6    2    1    2  501    0  0.45684439955E+02  0.80642117869E+02  0.27353968957E+03  0.33570443248E+03  0.17112359566E+03 0.  0.
         24    2    3    3    0    0 -0.33590555604E+01 -0.20247945122E+02  0.97803237408E+02  0.12716316587E+03  0.78636727877E+02 0.  0.
         -6    2    1    2    0  502 -0.45684439955E+02 -0.80642117869E+02  0.56052000767E+03  0.59353508592E+03  0.17178765962E+03 0.  0.
        -24    2    5    5    0    0 -0.35080890594E+02  0.24771016791E+02  0.25277995743E+03  0.26803486666E+03  0.78107046485E+02 0.  0.
          5    1    3    3  501    0  0.49043495516E+02  0.10089006299E+03  0.17573645216E+03  0.20854126661E+03  0.47000000000E+01 0. -1.
        -11    1    4    4    0    0  0.27691078450E+02 -0.15377075369E+02  0.89491296103E+01  0.32914088069E+02  0.00000000000E+00 0.  1.
         12    1    4    4    0    0 -0.31050134010E+02 -0.48708697531E+01  0.88854107797E+02  0.94249077803E+02  0.00000000000E+00 0. -1.
         -5    1    5    5    0  502 -0.10603549361E+02 -0.10541313466E+03  0.30774005024E+03  0.32550021926E+03  0.47000000000E+01 0.  1.
         11    1    6    6    0    0  0.91377463438E+01  0.31187656087E+02  0.45019996156E+02  0.55524484278E+02  0.00000000000E+00 0. -1.
        -12    1    6    6    0    0 -0.44218636938E+02 -0.64166392964E+01  0.20775996127E+03  0.21251038238E+03  0.00000000000E+00 0.  1.
</event>
<event>
12    1  0.1032880E+000  0.3296343E+03  0.7818608E-02  0.1072717E+00
         21   -1    0    0  503  502  0.00000000000E+00  0.00000000000E+00  0.39967833214E+03  0.39967833214E+03  0.00000000000E+00 0. -1.
         21   -1    0    0  501  503 -0.00000000000E+00 -0.00000000000E+00 -0.27683552699E+03  0.27683552699E+03  0.00000000000E+00 0. -1.
          6    2    1    2  501    0  0.22335296638E+03  0.14657628246E+03 -0.18992872939E+02  0.31765991548E+03  0.17080965579E+03 0.  0.
         24    2    3    3    0    0  0.20094549172E+03  0.17023298914E+03 -0.42217780306E+02  0.27737069839E+03  0.76117029072E+02 0.  0.
         -6    2    1    2    0  502 -0.22335296638E+03 -0.14657628246E+03  0.14183567809E+03  0.35885394365E+03  0.19310007542E+03 0.  0.
        -24    2    5    5    0    0 -0.10718854482E+03 -0.34810602575E+02  0.14231371490E+03  0.19758380210E+03  0.78006430592E+02 0.  0.
          5    1    3    3  501    0  0.22407474655E+02 -0.23656706682E+02  0.23224907368E+02  0.40289217089E+02  0.47000000000E+01 0. -1.
        -13    1    4    4    0    0  0.14285990767E+03  0.12625632837E+03  0.47028621418E+01  0.19071373990E+03  0.00000000000E+00 0.  1.
         14    1    4    4    0    0  0.58085584052E+02  0.43976660772E+02 -0.46920642448E+02  0.86656958492E+02  0.00000000000E+00 0. -1.
         -5    1    5    5    0  502 -0.11616442156E+03 -0.11176567988E+03 -0.47803680463E+00  0.16127014155E+03  0.47000000000E+01 0.  1.
         11    1    6    6    0    0 -0.10673781846E+03 -0.40177793543E+02  0.90775492077E+02  0.14576490300E+03  0.00000000000E+00 0. -1.
        -12    1    6    6    0    0 -0.45072635820E+00  0.53671909683E+01  0.51538222822E+02  0.51818899108E+02  0.00000000000E+00 0.  1.
</event>
<event>
12    1  0.1032880E+000  0.2813864E+03  0.7818608E-02  0.1095462E+00
         21   -1    0    0  501  502  0.00000000000E+00  0.00000000000E+00  0.25324782042E+03  0.25324782042E+03  0.00000000000E+00 0.  1.
         21   -1    0    0  502  503 -0.00000000000E+00 -0.00000000000E+00 -0.30839055769E+03  0.30839055769E+03  0.00000000000E+00 0.  1.
         -6    2    1    2    0  503 -0.31534312255E+02  0.21899336043E+03 -0.25675538092E+02  0.28255537764E+03  0.17385569710E+03 0.  0.
        -24    2    3    3    0    0 -0.19214392660E+01  0.18122868323E+03  0.41128688972E+02  0.20016613171E+03  0.74346376324E+02 0.  0.
          6    2    1    2  501    0  0.31534312255E+02 -0.21899336043E+03 -0.29467199184E+02  0.27908300047E+03  0.16753059590E+03 0.  0.
         24    2    5    5    0    0 -0.21975961901E+02 -0.18270282086E+03 -0.57199986583E+02  0.20857377980E+03  0.79799245009E+02 0.  0.
          5    1    5    5  501    0  0.53510274157E+02 -0.36290539577E+02  0.27732787399E+02  0.70509220674E+02  0.47000000000E+01 0. -1.
        -13    1    6    6    0    0 -0.16415695704E+02 -0.22270038781E+02 -0.37848948930E+02  0.46882540757E+02  0.00000000000E+00 0.  1.
         14    1    6    6    0    0 -0.55602661970E+01 -0.16043278207E+03 -0.19351037653E+02  0.16169123904E+03  0.00000000000E+00 0. -1.
         -5    1    3    3    0  503 -0.29612872989E+02  0.37764677198E+02 -0.66804227064E+02  0.82389245926E+02  0.47000000000E+01 0.  1.
         11    1    4    4    0    0  0.17325975041E+02  0.59248576646E+02 -0.16492387083E+02  0.63895086488E+02  0.00000000000E+00 0. -1.
        -12    1    4    4    0    0 -0.19247414307E+02  0.12198010659E+03  0.57621076055E+02  0.13627104522E+03  0.00000000000E+00 0.  1.
</event>
<event>
12    1  0.1032880E+000  0.3231418E+03  0.7818608E-02  0.1074290E+00
         21   -1    0    0  503  502  0.00000000000E+00  0.00000000000E+00  0.21527606420E+04  0.21527606420E+04  0.00000000000E+00 0. -1.
         21   -1    0    0  501  503 -0.00000000000E+00 -0.00000000000E+00 -0.25910613264E+03  0.25910613264E+03  0.00000000000E+00 0. -1.
          6    2    1    2  501    0 -0.27133749121E+03 -0.27983654878E+02 -0.14046271131E+03  0.35234977783E+03  0.17324397131E+03 0.  0.
         24    2    3    3    0    0 -0.66748568751E+02  0.27886821658E+02 -0.25810355115E+02  0.11121622537E+03  0.80435241672E+02 0.  0.
         -6    2    1    2    0  502  0.27133749121E+03  0.27983654878E+02  0.20341172207E+04  0.20595169968E+04  0.17196009309E+03 0.  0.
        -24    2    5    5    0    0  0.98471517843E+02  0.60636236852E+02  0.11122849464E+04  0.11210364868E+04  0.78559592640E+02 0.  0.
          5    1    3    3  501    0 -0.20458892246E+03 -0.55870476535E+02 -0.11465235619E+03  0.24113355246E+03  0.47000000000E+01 0. -1.
        -11    1    4    4    0    0 -0.80462263881E+02  0.39225556133E+02 -0.26665107042E+02  0.93401542259E+02  0.00000000000E+00 0.  1.
         12    1    4    4    0    0  0.13713695131E+02 -0.11338734475E+02  0.85475192615E+00  0.17814683115E+02  0.00000000000E+00 0. -1.
         -5    1    5    5    0  502  0.17286597337E+03 -0.32652581974E+02  0.92183227426E+03  0.93848051004E+03  0.47000000000E+01 0.  1.
         13    1    6    6    0    0  0.83096031130E+01  0.48010364754E+02  0.40023930442E+03  0.40319417832E+03  0.00000000000E+00 0. -1.
        -14    1    6    6    0    0  0.90161914730E+02  0.12625872098E+02  0.71204564202E+03  0.71784230847E+03  0.00000000000E+00 0.  1.
</event>
<event>
12    1  0.1032880E+000  0.2370688E+03  0.7818608E-02  0.1124030E+00
         21   -1    0    0  501  502  0.00000000000E+00  0.00000000000E+00  0.33217491411E+03  0.33217491411E+03  0.00000000000E+00 0. -1.
         21   -1    0    0  502  503 -0.00000000000E+00 -0.00000000000E+00 -0.16023714935E+03  0.16023714935E+03  0.00000000000E+00 0.  1.
         -6    2    1    2    0  503  0.40354101040E+02  0.13938189591E+03  0.92307674409E+02  0.24232695205E+03  0.17072164057E+03 0.  0.
        -24    2    3    3    0    0  0.31137319647E+02  0.16980329782E+03  0.89252566897E+02  0.21004949188E+03  0.79699910389E+02 0.  0.
          6    2    1    2  501    0 -0.40354101040E+02 -0.13938189591E+03  0.79630090347E+02  0.25008511141E+03  0.18747225202E+03 0.  0.
         24    2    5    5    0    0  0.36335865676E+02 -0.59237489275E+02 -0.10525018003E+02  0.10706584532E+03  0.80764744535E+02 0.  0.
          5    1    5    5  501    0 -0.76689966716E+02 -0.80144406639E+02  0.90155108350E+02  0.14301926609E+03  0.47000000000E+01 0. -1.
        -11    1    6    6    0    0  0.19486848641E+02 -0.16421333575E+02 -0.43529830524E+02  0.50440495753E+02  0.00000000000E+00 0.  1.
         12    1    6    6    0    0  0.16849017035E+02 -0.42816155699E+02  0.33004812521E+02  0.56625349566E+02  0.00000000000E+00 0. -1.
         -5    1    3    3    0  503  0.92167813935E+01 -0.30421401908E+02  0.30551075125E+01  0.32277460173E+02  0.47000000000E+01 0.  1.
         13    1    4    4    0    0  0.37167550083E+02  0.51037384927E+02  0.31186326944E+01  0.63213663944E+02  0.00000000000E+00 0. -1.
        -14    1    4    4    0    0 -0.60302304361E+01  0.11876591289E+03  0.86133934202E+02  0.14683582794E+03  0.00000000000E+00 0.  1.
</event>
<event>
12    1  0.1032880E+000  0.4722118E+03  0.7818608E-02  0.1021303E+00
         21   -1    0    0  501  502  0.00000000000E+00  0.00000000000E+00  0.49493329746E+03  0.49493329746E+03  0.00000000000E+00 0. -1.
         21   -1    0    0  502  503 -0.00000000000E+00 -0.00000000000E+00 -0.47180545565E+03  0.47180545565E+03  0.00000000000E+00 0.  1.
         -6    2    1    2    0  503 -0.27280517216E+03 -0.34449590389E+03 -0.91252900548E+02  0.48087155742E+03  0.17265651774E+03 0.  0.
        -24    2    3    3    0    0 -0.23721288949E+03 -0.19291071354E+03 -0.54290806750E+02  0.32076794441E+03  0.80374648519E+02 0.  0.
          6    2    1    2  501    0  0.27280517216E+03  0.34449590389E+03  0.11438074237E+03  0.48586719569E+03  0.17286956895E+03 0.  0.
         24    2    5    5    0    0  0.20277186081E+03  0.16516609952E+03  0.29300445546E+02  0.27533313587E+03  0.80954009378E+02 0.  0.
          5    1    5    5  501    0  0.70033311348E+02  0.17932980438E+03  0.85080296820E+02  0.21053405982E+03  0.47000000000E+01 0. -1.
        -13    1    6    6    0    0 -0.71342768956E+01  0.11339448952E+02  0.33223129980E+01  0.13802853800E+02  0.00000000000E+00 0.  1.
         14    1    6    6    0    0  0.20990613771E+03  0.15382665056E+03  0.25978132548E+02  0.26153028207E+03  0.00000000000E+00 0. -1.
         -5    1    3    3    0  503 -0.35592282671E+02 -0.15158519036E+03 -0.36962093799E+02  0.16010361301E+03  0.47000000000E+01 0.  1.
         13    1    4    4    0    0 -0.19227510002E+03 -0.11084893815E+03 -0.28824087383E+02  0.22380355044E+03  0.00000000000E+00 0. -1.
        -14    1    4    4    0    0 -0.44937789474E+02 -0.82061775390E+02 -0.25466719367E+02  0.96964393972E+02  0.00000000000E+00 0.  1.
</event>
<event>
12    1  0.1032880E+000  0.2112282E+03  0.7818608E-02  0.1141253E+00
         21   -1    0    0  501  502  0.00000000000E+00  0.00000000000E+00  0.18674392114E+03  0.18674392114E+03  0.00000000000E+00 0.  1.
         21   -1    0    0  502  503 -0.00000000000E+00 -0.00000000000E+00 -0.24329411054E+03  0.24329411054E+03  0.00000000000E+00 0.  1.
         -6    2    1    2    0  503 -0.10252119633E+03  0.56142810806E+02 -0.67722268642E+02  0.22181899621E+03  0.17593962176E+03 0.  0.
        -24    2    3    3    0    0 -0.12734232725E+03  0.85628323671E+02 -0.54856005120E+02  0.18091527087E+03  0.78567651182E+02 0.  0.
          6    2    1    2  501    0  0.10252119633E+03 -0.56142810806E+02  0.11172079245E+02  0.20821903547E+03  0.17195272745E+03 0.  0.
         24    2    5    5    0    0  0.11359300774E+03 -0.90165504960E+02 -0.19154762692E+02  0.16108161862E+03  0.67432879450E+02 0.  0.
          5    1    5    5  501    0 -0.11071811415E+02  0.34022694154E+02  0.30326841936E+02  0.47137416851E+02  0.47000000000E+01 0. -1.
        -13    1    6    6    0    0  0.31612828013E+01 -0.33626980415E+01 -0.20092071622E+02  0.20615353238E+02  0.00000000000E+00 0.  1.
         14    1    6    6    0    0  0.11043172494E+03 -0.86802806919E+02  0.93730892991E+00  0.14046626538E+03  0.00000000000E+00 0. -1.
         -5    1    3    3    0  503  0.24821130924E+02 -0.29485512865E+02 -0.12866263522E+02  0.40903725335E+02  0.47000000000E+01 0.  1.
         13    1    4    4    0    0 -0.84929391296E+02  0.90755601050E+02 -0.59754418230E+02  0.13791363648E+03  0.00000000000E+00 0. -1.
        -14    1    4    4    0    0 -0.42412935957E+02 -0.51272773789E+01  0.48984131106E+01  0.43001634397E+02  0.00000000000E+00 0.  1.
</event>
<event>
12    1  0.1032880E+000  0.1806647E+03  0.7818608E-02  0.1167536E+00
         21   -1    0    0  503  502  0.00000000000E+00  0.00000000000E+00  0.46333680303E+02  0.46333680303E+02  0.00000000000E+00 0.  1.
         21   -1    0    0  501  503 -0.00000000000E+00 -0.00000000000E+00 -0.69847043207E+03  0.69847043207E+03  0.00000000000E+00 0.  1.
          6    2    1    2  501    0 -0.15813008081E+01 -0.49532233775E+02 -0.33074988716E+03  0.37687560403E+03  0.17373482771E+03 0.  0.
         24    2    3    3    0    0 -0.39521251023E+01 -0.72444388616E+02 -0.33586694879E+03  0.35281605360E+03  0.80054679137E+02 0.  0.
         -6    2    1    2    0  502  0.15813008081E+01  0.49532233775E+02 -0.32138686460E+03  0.36792850834E+03  0.17212184003E+03 0.  0.
        -24    2    5    5    0    0  0.14122553318E+02  0.71964912180E+02 -0.32385905500E+03  0.34168522729E+03  0.80533917970E+02 0.  0.
          5    1    3    3  501    0  0.23708242943E+01  0.22912154841E+02  0.51170616289E+01  0.24059550433E+02  0.47000000000E+01 0. -1.
        -13    1    4    4    0    0 -0.19308180662E+02 -0.37289021861E+02 -0.54273056432E+02  0.68621000039E+02  0.00000000000E+00 0.  1.
         14    1    4    4    0    0  0.15356055560E+02 -0.35155366755E+02 -0.28159389236E+03  0.28419505356E+03  0.00000000000E+00 0. -1.
         -5    1    5    5    0  502 -0.12541252510E+02 -0.22432678406E+02  0.24721903982E+01  0.26243281051E+02  0.47000000000E+01 0.  1.
         11    1    6    6    0    0 -0.23920517338E+02  0.24354345439E+02 -0.46356273211E+02  0.57569343903E+02  0.00000000000E+00 0. -1.
        -12    1    6    6    0    0  0.38043070656E+02  0.47610566741E+02 -0.27750278179E+03  0.28411588339E+03  0.00000000000E+00 0.  1.
</event>
<event>
12    1  0.1032880E+000  0.1767710E+03  0.7818608E-02  0.1171167E+00
         21   -1    0    0  503  502  0.00000000000E+00  0.00000000000E+00  0.25808415633E+03  0.25808415633E+03  0.00000000000E+00 0. -1.
         21   -1    0    0  501  503 -0.00000000000E+00 -0.00000000000E+00 -0.12054711505E+03  0.12054711505E+03  0.00000000000E+00 0. -1.
          6    2    1    2  501    0  0.12179061023E+02 -0.36469242470E+02  0.65875667688E+02  0.18788706203E+03  0.17170791861E+03 0.  0.
         24    2    3    3    0    0 -0.58356573118E+02 -0.21182168407E+02  0.24440314119E+02  0.10453270496E+03  0.80471010734E+02 0.  0.
         -6    2    1    2    0  502 -0.12179061023E+02  0.36469242470E+02  0.71661373587E+02  0.19074420935E+03  0.17253888189E+03 0.  0.
        -24    2    5    5    0    0 -0.91430437025E+00  0.62301767356E+02  0.10554554928E+03  0.14642218946E+03  0.80107730121E+02 0.  0.
          5    1    3    3  501    0  0.70535634141E+02 -0.15287074062E+02  0.41435353569E+02  0.83354357069E+02  0.47000000000E+01 0. -1.
        -11    1    4    4    0    0 -0.25517906471E+02 -0.47952578786E+02  0.29584864190E+02  0.61853678565E+02  0.00000000000E+00 0.  1.
         12    1    4    4    0    0 -0.32838666647E+02  0.26770410379E+02 -0.51445500709E+01  0.42679026400E+02  0.00000000000E+00 0. -1.
         -5    1    5    5    0  502 -0.11264756653E+02 -0.25832524886E+02 -0.33884175695E+02  0.44322019889E+02  0.47000000000E+01 0.  1.
         13    1    6    6    0    0  0.19420640128E+02  0.72932431613E+02  0.94545214819E+02  0.12097561113E+03  0.00000000000E+00 0. -1.
        -14    1    6    6    0    0 -0.20334944498E+02 -0.10630664257E+02  0.11000334463E+02  0.25446578328E+02  0.00000000000E+00 0.  1.
</event>
<event>
12    1  0.1032880E+000  0.1831956E+03  0.7818608E-02  0.1165058E+00
         21   -1    0    0  501  502  0.00000000000E+00  0.00000000000E+00  0.17739977207E+03  0.17739977207E+03  0.00000000000E+00 0.  1.
         21   -1    0    0  502  503 -0.00000000000E+00 -0.00000000000E+00 -0.18794887654E+03  0.18794887654E+03  0.00000000000E+00 0. -1.
         -6    2    1    2    0  503 -0.23570155038E+02 -0.54061089633E+02 -0.56914907476E+00  0.18188138717E+03  0.17205336802E+03 0.  0.
        -24    2    3    3    0    0 -0.78155152392E+02 -0.55092958618E+02  0.24682021408E+02  0.12154650256E+03  0.70858225841E+02 0.  0.
          6    2    1    2  501    0  0.23570155038E+02  0.54061089633E+02 -0.99799553935E+01  0.18346726144E+03  0.17344302491E+03 0.  0.
         24    2    5    5    0    0 -0.37618854688E+02  0.37639718753E+00 -0.39748252083E+02  0.96666440002E+02  0.79681598729E+02 0.  0.
          5    1    5    5  501    0  0.61189009726E+02  0.53684692445E+02  0.29768296690E+02  0.86800821436E+02  0.47000000000E+01 0. -1.
        -11    1    6    6    0    0  0.16590119271E+02 -0.22677308595E+02 -0.58450047248E+01  0.28699415722E+02  0.00000000000E+00 0.  1.
         12    1    6    6    0    0 -0.54208973959E+02  0.23053705783E+02 -0.33903247358E+02  0.67967024280E+02  0.00000000000E+00 0. -1.
         -5    1    3    3    0  503  0.54584997354E+02  0.10318689849E+01 -0.25251170483E+02  0.60334884606E+02  0.47000000000E+01 0.  1.
         13    1    4    4    0    0 -0.64206750402E+02 -0.60846422029E+02 -0.46300728072E+01  0.88578955995E+02  0.00000000000E+00 0. -1.
        -14    1    4    4    0    0 -0.13948401990E+02  0.57534634116E+01  0.29312094215E+02  0.32967546566E+02  0.00000000000E+00 0.  1.
</event>
<event>
12    1  0.1032880E+000  0.2379283E+03  0.7818608E-02  0.1121250E+00
         21   -1    0    0  503  502  0.00000000000E+00  0.00000000000E+00  0.14342420749E+04  0.14342420749E+04  0.00000000000E+00 0. -1.
         21   -1    0    0  501  503 -0.00000000000E+00 -0.00000000000E+00 -0.47046732605E+02  0.47046732605E+02  0.00000000000E+00 0. -1.
          6    2    1    2  501    0  0.73722704301E+02  0.14507165517E+03  0.39454861181E+03  0.46052564974E+03  0.17301573546E+03 0.  0.
         24    2    3    3    0    0  0.98152763291E+02  0.16087069590E+03  0.31568439652E+03  0.37633484308E+03  0.80361247955E+02 0.  0.
         -6    2    1    2    0  502 -0.73722704301E+02 -0.14507165517E+03  0.99264673045E+03  0.10207631577E+04  0.17357727518E+03 0.  0.
        -24    2    5    5    0    0 -0.67372891180E+02 -0.47789938543E+02  0.29877985741E+03  0.32006537694E+03  0.79683484035E+02 0.  0.
          5    1    3    3  501    0 -0.24430058990E+02 -0.15799040732E+02  0.78864215298E+02  0.84190806653E+02  0.47000000000E+01 0. -1.
        -11    1    4    4    0    0 -0.63969952643E+01  0.49606789652E+02  0.55926160819E+02  0.75029931307E+02  0.00000000000E+00 0.  1.
         12    1    4    4    0    0  0.10454975856E+03  0.11126390625E+03  0.25975823570E+03  0.30130491178E+03  0.00000000000E+00 0. -1.
         -5    1    5    5    0  502 -0.63498131215E+01 -0.97281716629E+02  0.69386687304E+03  0.70069778080E+03  0.47000000000E+01 0.  1.
         11    1    6    6    0    0  0.81038156371E+01 -0.19248547111E+02  0.16909208039E+02  0.26871913037E+02  0.00000000000E+00 0. -1.
        -12    1    6    6    0    0 -0.75476706817E+02 -0.28541391432E+02  0.28187064938E+03  0.29319346390E+03  0.00000000000E+00 0.  1.
</event>
<event>
12    1  0.1032880E+000  0.1712986E+03  0.7818608E-02  0.1176811E+00
         21   -1    0    0  503  502  0.00000000000E+00  0.00000000000E+00  0.12889670503E+03  0.12889670503E+03  0.00000000000E+00 0. -1.
         21   -1    0    0  501  503 -0.00000000000E+00 -0.00000000000E+00 -0.38804308070E+03  0.38804308070E+03  0.00000000000E+00 0. -1.
          6    2    1    2  501    0 -0.12289174491E+02  0.67097569000E+01  0.37686448662E+02  0.17422572185E+03  0.16952371248E+03 0.  0.
         24    2    3    3    0    0 -0.59824185075E+02 -0.17496937899E+02 -0.16779886733E+02  0.97843701740E+02  0.73530601899E+02 0.  0.
         -6    2    1    2    0  502  0.12289174491E+02 -0.67097569000E+01 -0.29683282434E+03  0.34271406388E+03  0.17072539158E+03 0.  0.
        -24    2    5    5    0    0  0.28184864457E+02 -0.37754831248E+02 -0.29316733473E+03  0.30733051665E+03  0.79278915490E+02 0.  0.
          5    1    3    3  501    0  0.47535010584E+02  0.24206694799E+02  0.54466335396E+02  0.76382020108E+02  0.47000000000E+01 0. -1.
        -13    1    4    4    0    0 -0.39167737887E+02  0.24303960961E+02 -0.21720247009E+02  0.50956484766E+02  0.00000000000E+00 0.  1.
         14    1    4    4    0    0 -0.20656447188E+02 -0.41800898859E+02  0.49403602760E+01  0.46887216974E+02  0.00000000000E+00 0. -1.
         -5    1    5    5    0  502 -0.15895689966E+02  0.31045074348E+02 -0.36654896041E+01  0.35383547233E+02  0.47000000000E+01 0.  1.
         13    1    6    6    0    0 -0.23882305061E+02 -0.12567809001E+02 -0.44657752481E+02  0.52178819216E+02  0.00000000000E+00 0. -1.
        -14    1    6    6    0    0  0.52067169517E+02 -0.25187022247E+02 -0.24850958225E+03  0.25515169743E+03  0.00000000000E+00 0.  1.
</event>
<event>
12    1  0.1032880E+000  0.2432738E+03  0.7818608E-02  0.1117707E+00
         21   -1    0    0  503  502  0.00000000000E+00  0.00000000000E+00  0.39939905507E+03  0.39939905507E+03  0.00000000000E+00 0.  1.
         21   -1    0    0  501  503 -0.00000000000E+00 -0.00000000000E+00 -0.14852273306E+03  0.14852273306E+03  0.00000000000E+00 0.  1.
          6    2    1    2  501    0 -0.56664874041E+02 -0.16167490099E+03  0.14313490694E+03  0.28185722990E+03  0.17206456609E+03 0.  0.
         24    2    3    3    0    0 -0.62630628692E+02 -0.51057092953E+02  0.18945267722E+02  0.11537285774E+03  0.80140818212E+02 0.  0.
         -6    2    1    2    0  502  0.56664874041E+02  0.16167490099E+03  0.10774141507E+03  0.26606455823E+03  0.17272074300E+03 0.  0.
        -24    2    5    5    0    0  0.65184808299E+02  0.17897325986E+03  0.12437176459E+03  0.24017090988E+03  0.77027547985E+02 0.  0.
          5    1    3    3  501    0  0.59657546516E+01 -0.11061780804E+03  0.12418963922E+03  0.16648437216E+03  0.47000000000E+01 0. -1.
        -13    1    4    4    0    0 -0.58504086031E+02 -0.43865024770E+02  0.46461441940E+02  0.86634485440E+02  0.00000000000E+00 0.  1.
         14    1    4    4    0    0 -0.41265426616E+01 -0.71920681824E+01 -0.27516174217E+02  0.28738372303E+02  0.00000000000E+00 0. -1.
         -5    1    5    5    0  502 -0.85199342579E+01 -0.17298358871E+02 -0.16630349518E+02  0.25893648342E+02  0.47000000000E+01 0.  1.
         13    1    6    6    0    0  0.12205921082E+02  0.76870817927E+02  0.92335574305E+02  0.12076409003E+03  0.00000000000E+00 0. -1.
        -14    1    6    6    0    0  0.52978887217E+02  0.10210244194E+03  0.32036190284E+02  0.11940681985E+03  0.00000000000E+00 0.  1.
</event>
<event>
12    1  0.1032880E+000  0.1916267E+03  0.7818608E-02  0.1157073E+00
         21   -1    0    0  501  502  0.00000000000E+00  0.00000000000E+00  0.18032001367E+03  0.18032001367E+03  0.00000000000E+00 0.  1.
         21   -1    0    0  502  503 -0.00000000000E+00 -0.00000000000E+00 -0.21727313448E+03  0.21727313448E+03  0.00000000000E+00 0.  1.
         -6    2    1    2    0  503 -0.56734364199E+02 -0.61121036598E+02  0.31941852829E+02  0.19395791829E+03  0.17217672000E+03 0.  0.
        -24    2    3    3    0    0 -0.19351844455E+01 -0.93401334234E+02  0.42667157186E+02  0.12928883858E+03  0.78533835403E+02 0.  0.
          6    2    1    2  501    0  0.56734364199E+02  0.61121036598E+02 -0.68894973642E+02  0.20363522986E+03  0.17252889686E+03 0.  0.
         24    2    5    5    0    0  0.26774183426E+02  0.68775805486E+02  0.19775869001E+02  0.10960961498E+03  0.78588894779E+02 0.  0.
          5    1    5    5  501    0  0.29960180773E+02 -0.76547688880E+01 -0.88670842643E+02  0.94025614881E+02  0.47000000000E+01 0. -1.
        -11    1    6    6    0    0 -0.14990044896E+02  0.10133927760E+02  0.31830087510E+02  0.36613554986E+02  0.00000000000E+00 0.  1.
         12    1    6    6    0    0  0.41764228322E+02  0.58641877727E+02 -0.12054218509E+02  0.72996059993E+02  0.00000000000E+00 0. -1.
         -5    1    3    3    0  503 -0.54799179754E+02  0.32280297636E+02 -0.10725304357E+02  0.64669079712E+02  0.47000000000E+01 0.  1.
         11    1    4    4    0    0 -0.17477001152E+02  0.75679797909E+01  0.12456202121E+02  0.22756907932E+02  0.00000000000E+00 0. -1.
        -12    1    4    4    0    0  0.15541816706E+02 -0.10096931403E+03  0.30210955065E+02  0.10653193065E+03  0.00000000000E+00 0.  1.
</event>
<event>
12    1  0.1032880E+000  0.1839016E+03  0.7818608E-02  0.1164222E+00
         21   -1    0    0  501  502  0.00000000000E+00  0.00000000000E+00  0.39640105481E+03  0.39640105481E+03  0.00000000000E+00 0.  1.
         21   -1    0    0  502  503 -0.00000000000E+00 -0.00000000000E+00 -0.88441073276E+02  0.88441073276E+02  0.00000000000E+00 0.  1.
         -6    2    1    2    0  503 -0.60641453799E+02 -0.15407733084E+02  0.20177698728E+03  0.27300866953E+03  0.17293061293E+03 0.  0.
        -24    2    3    3    0    0 -0.78878555278E+02  0.37641096197E+02  0.92168667401E+02  0.14978998611E+03  0.79393312581E+02 0.  0.
          6    2    1    2  501    0  0.60641453799E+02  0.15407733084E+02  0.10618299426E+03  0.21183345855E+03  0.17228987706E+03 0.  0.
         24    2    5    5    0    0  0.33935509572E+02  0.72049642590E+02  0.37978682750E+02  0.11912190869E+03  0.80030487815E+02 0.  0.
          5    1    5    5  501    0  0.26705944227E+02 -0.56641909505E+02  0.68204311510E+02  0.92711549863E+02  0.47000000000E+01 0. -1.
        -11    1    6    6    0    0  0.38030822062E+02  0.11735412012E+02  0.42838313250E+02  0.58473792454E+02  0.00000000000E+00 0.  1.
         12    1    6    6    0    0 -0.40953124904E+01  0.60314230578E+02 -0.48596305008E+01  0.60648116238E+02  0.00000000000E+00 0. -1.
         -5    1    3    3    0  503  0.18237101479E+02 -0.53048829281E+02  0.10960831987E+03  0.12321868342E+03  0.47000000000E+01 0.  1.
         11    1    4    4    0    0 -0.40500300190E+02 -0.61399960741E+01  0.22582835924E+00  0.40963701807E+02  0.00000000000E+00 0. -1.
        -12    1    4    4    0    0 -0.38378255088E+02  0.43781092271E+02  0.91942839042E+02  0.10882628430E+03  0.00000000000E+00 0.  1.
</event>
<event>
12    1  0.1032880E+000  0.1972875E+03  0.7818608E-02  0.1152345E+00
         21   -1    0    0  503  502  0.00000000000E+00  0.00000000000E+00  0.14707359312E+03  0.14707359312E+03  0.00000000000E+00 0.  1.
         21   -1    0    0  501  503 -0.00000000000E+00 -0.00000000000E+00 -0.26364470067E+03  0.26364470067E+03  0.00000000000E+00 0.  1.
          6    2    1    2  501    0  0.69796159479E+02  0.57683477824E+02 -0.46440401285E+02  0.20133662541E+03  0.17372633182E+03 0.  0.
         24    2    3    3    0    0  0.51224966252E+02  0.10603572106E+03 -0.47479666685E+02  0.14931741053E+03  0.78573526257E+02 0.  0.
         -6    2    1    2    0  502 -0.69796159479E+02 -0.57683477824E+02 -0.70130706272E+02  0.20938166838E+03  0.17528114445E+03 0.  0.
        -24    2    5    5    0    0 -0.55156951675E+02 -0.93058333194E+02 -0.54535208017E+01  0.13407618971E+03  0.79022408612E+02 0.  0.
          5    1    3    3  501    0  0.18571193227E+02 -0.48352243241E+02  0.10392654000E+01  0.52019214881E+02  0.47000000000E+01 0. -1.
        -13    1    4    4    0    0  0.42138819678E+01  0.23187470972E+02  0.21346449983E+02  0.31797586987E+02  0.00000000000E+00 0.  1.
         14    1    4    4    0    0  0.47011084284E+02  0.82848250092E+02 -0.68826116668E+02  0.11751982354E+03  0.00000000000E+00 0. -1.
         -5    1    5    5    0  502 -0.14639207804E+02  0.35374855369E+02 -0.64677185470E+02  0.75305478671E+02  0.47000000000E+01 0.  1.
         11    1    6    6    0    0  0.30376585310E+01  0.38539094155E+01  0.17973846704E+02  0.18631670684E+02  0.00000000000E+00 0. -1.
        -12    1    6    6    0    0 -0.58194610206E+02 -0.96912242609E+02 -0.23427367506E+02  0.11544451902E+03  0.00000000000E+00 0.  1.
</event>
<event>
12    1  0.1032880E+000  0.1966891E+03  0.7818608E-02  0.1153068E+00
         21   -1    0    0  501  502  0.00000000000E+00  0.00000000000E+00  0.51947217032E+03  0.51947217032E+03  0.00000000000E+00 0. -1.
         21   -1    0    0  502  503 -0.00000000000E+00 -0.00000000000E+00 -0.84762837017E+02  0.84762837017E+02  0.00000000000E+00 0. -1.
         -6    2    1    2    0  503  0.35632311113E+01  0.95142080246E+02  0.32589708673E+03  0.37945351375E+03  0.16944422655E+03 0.  0.
        -24    2    3    3    0    0  0.67664333180E+02  0.64691656144E+02  0.20780602464E+03  0.24159935691E+03  0.80146322567E+02 0.  0.
          6    2    1    2  501    0 -0.35632311113E+01 -0.95142080246E+02  0.10881224657E+03  0.22478149358E+03  0.17211014730E+03 0.  0.
         24    2    5    5    0    0 -0.38856676973E+02 -0.81618038951E+02  0.11347969867E+02  0.12013971298E+03  0.78316208974E+02 0.  0.
          5    1    5    5  501    0  0.35293445861E+02 -0.13524041296E+02  0.97464276700E+02  0.10464178060E+03  0.47000000000E+01 0. -1.
        -11    1    6    6    0    0 -0.46772546117E+02 -0.43139786691E+02  0.36633405643E+02  0.73421513707E+02  0.00000000000E+00 0.  1.
         12    1    6    6    0    0  0.79158691438E+01 -0.38478252260E+02 -0.25285435776E+02  0.46718199277E+02  0.00000000000E+00 0. -1.
         -5    1    3    3    0  503 -0.64101102069E+02  0.30450424103E+02  0.11809106209E+03  0.13785415685E+03  0.47000000000E+01 0.  1.
         13    1    4    4    0    0  0.31656207491E+02  0.10313253796E+02  0.15248489507E+03  0.15607729464E+03  0.00000000000E+00 0. -1.
        -14    1    4    4    0    0  0.36008125689E+02  0.54378402348E+02  0.55321129567E+02  0.85522062266E+02  0.00000000000E+00 0.  1.
</event>
<event>
12    1  0.1032880E+000  0.3207433E+03  0.7818608E-02  0.1075465E+00
         21   -1    0    0  503  502  0.00000000000E+00  0.00000000000E+00  0.59464768435E+02  0.59464768435E+02  0.00000000000E+00 0.  1.
         21   -1    0    0  501  503 -0.00000000000E+00 -0.00000000000E+00 -0.17561324690E+04  0.17561324690E+04  0.00000000000E+00 0.  1.
          6    2    1    2  501    0 -0.16589451882E+02 -0.26978551302E+03 -0.72124421722E+03  0.78879286714E+03  0.17012211330E+03 0.  0.
         24    2    3    3    0    0  0.27860333384E+02 -0.20268944187E+03 -0.38558916889E+03  0.44359137867E+03  0.78962624343E+02 0.  0.
         -6    2    1    2    0  502  0.16589451882E+02  0.26978551302E+03 -0.97542348331E+03  0.10268043703E+04  0.17267544712E+03 0.  0.
        -24    2    5    5    0    0  0.39424348716E+02  0.11252968913E+03 -0.29116145004E+03  0.32431775342E+03  0.78675313705E+02 0.  0.
          5    1    3    3  501    0 -0.44449785266E+02 -0.67096071144E+02 -0.33565504833E+03  0.34520148847E+03  0.47000000000E+01 0. -1.
        -13    1    4    4    0    0  0.32192165676E+02 -0.34241399085E+02 -0.12206274077E+03  0.13079801844E+03  0.00000000000E+00 0.  1.
         14    1    4    4    0    0 -0.43318322918E+01 -0.16844804279E+03 -0.26352642812E+03  0.31279336023E+03  0.00000000000E+00 0. -1.
         -5    1    5    5    0  502 -0.22834896835E+02  0.15725582388E+03 -0.68426203327E+03  0.70248661684E+03  0.47000000000E+01 0.  1.
         13    1    6    6    0    0  0.16244627701E+02  0.11645979690E+03 -0.22120477578E+03  0.25051611735E+03  0.00000000000E+00 0. -1.
        -14    1    6    6    0    0  0.23179721015E+02 -0.39301077692E+01 -0.69956674255E+02  0.73801636067E+02  0.00000000000E+00 0.  1.
</event>
<event>
12    1  0.1032880E+000  0.2973625E+03  0.7818608E-02  0.1086639E+00
         21   -1    0    0  503  502  0.00000000000E+00  0.00000000000E+00  0.28612786791E+03  0.28612786791E+03  0.00000000000E+00 0. -1.
         21   -1    0    0  501  503 -0.00000000000E+00 -0.00000000000E+00 -0.31460151725E+03  0.31460151725E+03  0.00000000000E+00 0. -1.
          6    2    1    2  501    0 -0.22996353417E+03 -0.78565116158E+02 -0.56287420766E+02  0.30264294420E+03  0.17137319923E+03 0.  0.
         24    2    3    3    0    0 -0.90671632968E+02 -0.62101237723E+02  0.28642778421E+02  0.13860477252E+03  0.79454172063E+02 0.  0.
         -6    2    1    2    0  502  0.22996353417E+03  0.78565116158E+02  0.27813771429E+02  0.29808644096E+03  0.17037081874E+03 0.  0.
        -24    2    5    5    0    0  0.19843141209E+03  0.32591731270E+02 -0.25902524746E+02  0.22052770634E+03  0.86742620585E+02 0.  0.
          5    1    3    3  501    0 -0.13929190121E+03 -0.16463878435E+02 -0.84930199187E+02  0.16403817168E+03  0.47000000000E+01 0. -1.
        -11    1    4    4    0    0 -0.79268137404E+02 -0.73900271509E+02  0.33119286089E+01  0.10842350579E+03  0.00000000000E+00 0.  1.
         12    1    4    4    0    0 -0.11403495564E+02  0.11799033786E+02  0.25330849812E+02  0.30181266732E+02  0.00000000000E+00 0. -1.
         -5    1    5    5    0  502  0.31532122085E+02  0.45973384888E+02  0.53716296175E+02  0.77558734621E+02  0.47000000000E+01 0.  1.
         13    1    6    6    0    0  0.60621371762E+01  0.25809773703E+02 -0.30220976505E+01  0.26683834057E+02  0.00000000000E+00 0. -1.
        -14    1    6    6    0    0  0.19236927491E+03  0.67819575670E+01 -0.22880427096E+02  0.19384387229E+03  0.00000000000E+00 0.  1.
</event>
<event>
12    1  0.1032880E+000  0.1784984E+03  0.7818608E-02  0.1169699E+00
         21   -1    0    0  503  502  0.00000000000E+00  0.00000000000E+00  0.55334899421E+03  0.55334899421E+03  0.00000000000E+00 0.  1.
         21   -1    0    0  501  503 -0.00000000000E+00 -0.00000000000E+00 -0.57016053422E+02  0.57016053422E+02  0.00000000000E+00 0.  1.
          6    2    1    2  501    0 -0.48400902696E+02 -0.83065697192E+01  0.24645424800E+03  0.30430473171E+03  0.17161010140E+03 0.  0.
         24    2    3    3    0    0 -0.71621480331E+02 -0.44924294925E+02  0.22562457210E+03  0.25597235723E+03  0.86415111008E+02 0.  0.
         -6    2    1    2    0  502  0.48400902696E+02  0.83065697192E+01  0.24987869279E+03  0.30606031592E+03  0.16977016637E+03 0.  0.
        -24    2    5    5    0    0 -0.35366356935E+02  0.16977406096E+02  0.13925899264E+03  0.16695264090E+03  0.83313298759E+02 0.  0.
          5    1    3    3  501    0  0.23220577635E+02  0.36617725206E+02  0.20829675892E+02  0.48332374478E+02  0.47000000000E+01 0. -1.
        -11    1    4    4    0    0 -0.44440833358E+01 -0.44357276910E+02  0.14126121716E+03  0.14812848938E+03  0.00000000000E+00 0.  1.
         12    1    4    4    0    0 -0.67177396995E+02 -0.56701801490E+00  0.84363354942E+02  0.10784386785E+03  0.00000000000E+00 0. -1.
         -5    1    5    5    0  502  0.83767259631E+02 -0.86708363770E+01  0.11061970015E+03  0.13910767502E+03  0.47000000000E+01 0.  1.
         11    1    6    6    0    0  0.24636689110E+02 -0.92869635623E+01  0.34431788202E+02  0.43344690347E+02  0.00000000000E+00 0. -1.
        -12    1    6    6    0    0 -0.60003046045E+02  0.26264369659E+02  0.10482720444E+03  0.12360795055E+03  0.00000000000E+00 0.  1.
</event>
<event>
12    1  0.1032880E+000  0.2007150E+03  0.7818608E-02  0.1149514E+00
         21   -1    0    0  503  502  0.00000000000E+00  0.00000000000E+00  0.15391293852E+03  0.15391293852E+03  0.00000000000E+00 0. -1.
         21   -1    0    0  501  503 -0.00000000000E+00 -0.00000000000E+00 -0.77184527082E+03  0.77184527082E+03  0.00000000000E+00 0. -1.
          6    2    1    2  501    0 -0.82402164444E+02  0.61720979287E+02  0.68648335453E+02  0.21044042894E+03  0.17021452401E+03 0.  0.
         24    2    3    3    0    0 -0.11482340912E+03  0.79889185304E+02  0.51252431158E+02  0.16913754402E+03  0.80087451506E+02 0.  0.
         -6    2    1    2    0  502  0.82402164444E+02 -0.61720979287E+02 -0.68658066776E+03  0.71531778040E+03  0.17229891938E+03 0.  0.
        -24    2    5    5    0    0  0.41337744959E+02 -0.30267128933E+02 -0.15445067248E+03  0.18065896103E+03  0.78471279578E+02 0.  0.
          5    1    3    3  501    0  0.32421244675E+02 -0.18168206017E+02  0.17395904295E+02  0.41302884916E+02  0.47000000000E+01 0. -1.
        -13    1    4    4    0    0 -0.99545201035E+02  0.85157646453E+02  0.18085557252E+02  0.13224280389E+03  0.00000000000E+00 0.  1.
         14    1    4    4    0    0 -0.15278208084E+02 -0.52684611495E+01  0.33166873907E+02  0.36894740138E+02  0.00000000000E+00 0. -1.
         -5    1    5    5    0  502  0.41064419485E+02 -0.31453850354E+02 -0.53212999528E+03  0.53465881937E+03  0.47000000000E+01 0.  1.
         13    1    6    6    0    0 -0.14218587340E+02 -0.22181268717E+02 -0.14968925995E+02  0.30302568427E+02  0.00000000000E+00 0. -1.
        -14    1    6    6    0    0  0.55556332299E+02 -0.80858602160E+01 -0.13948174648E+03  0.15035639260E+03  0.00000000000E+00 0.  1.
</event>
<event>
12    1  0.1032880E+000  0.1814993E+03  0.7818608E-02  0.1166388E+00
         21   -1    0    0  501  502  0.00000000000E+00  0.00000000000E+00  0.40034810318E+02  0.40034810318E+02  0.00000000000E+00 0.  1.
         21   -1    0    0  502  503 -0.00000000000E+00 -0.00000000000E+00 -0.83642124435E+03  0.83642124435E+03  0.00000000000E+00 0.  1.
         -6    2    1    2    0  503  0.56551950306E+02 -0.23176665614E+02 -0.34137237397E+03  0.38662266532E+03  0.17089969783E+03 0.  0.
        -24    2    3    3    0    0  0.73502569757E+02  0.25854464112E+02 -0.28711658075E+03  0.31140859563E+03  0.92023374287E+02 0.  0.
          6    2    1    2  501    0 -0.56551950306E+02  0.23176665614E+02 -0.45501406006E+03  0.48983338934E+03  0.17077374959E+03 0.  0.
         24    2    5    5    0    0 -0.26800385509E+01  0.53473983135E+02 -0.14369195790E+03  0.17240048049E+03  0.78790211515E+02 0.  0.
          5    1    5    5  501    0 -0.53871911755E+02 -0.30297317521E+02 -0.31132210217E+03  0.31743290885E+03  0.47000000000E+01 0. -1.
        -13    1    6    6    0    0 -0.19811297758E+01 -0.17340231944E+02 -0.61398458653E+02  0.63830864353E+02  0.00000000000E+00 0.  1.
         14    1    6    6    0    0 -0.69890877514E+00  0.70814215079E+02 -0.82293499242E+02  0.10856961614E+03  0.00000000000E+00 0. -1.
         -5    1    3    3    0  503 -0.16950619451E+02 -0.49031129726E+02 -0.54255793219E+02  0.75214069693E+02  0.47000000000E+01 0.  1.
         13    1    4    4    0    0  0.40919923848E+02  0.57627319915E+02 -0.13170857800E+03  0.14947407028E+03  0.00000000000E+00 0. -1.
        -14    1    4    4    0    0  0.32582645909E+02 -0.31772855803E+02 -0.15540800275E+03  0.16193452535E+03  0.00000000000E+00 0.  1.
</event>
<event>
12    1  0.1032880E+000  0.1887620E+03  0.7818608E-02  0.1159647E+00
         21   -1    0    0  501  502  0.00000000000E+00  0.00000000000E+00  0.50101190176E+03  0.50101190176E+03  0.00000000000E+00 0.  1.
         21   -1    0    0  502  503 -0.00000000000E+00 -0.00000000000E+00 -0.18161386940E+03  0.18161386940E+03  0.00000000000E+00 0.  1.
         -6    2    1    2    0  503 -0.45301263966E+02 -0.64193468232E+02  0.42609885486E+03  0.46603791979E+03  0.17163362925E+03 0.  0.
        -24    2    3    3    0    0  0.30818047721E+02  0.41025249599E+01  0.17946625049E+03  0.19900192253E+03  0.80168867571E+02 0.  0.
          6    2    1    2  501    0  0.45301263966E+02  0.64193468232E+02 -0.10670082249E+03  0.21658785137E+03  0.17132491342E+03 0.  0.
         24    2    5    5    0    0  0.59012486508E+02 -0.42968987274E+01 -0.16527622231E+02  0.10242908458E+03  0.81961077151E+02 0.  0.
          5    1    5    5  501    0 -0.13711222542E+02  0.68490366960E+02 -0.90173200263E+02  0.11415876679E+03  0.47000000000E+01 0. -1.
        -11    1    6    6    0    0  0.31656715140E+02  0.38717426155E+02 -0.10449057647E+02  0.51091775339E+02  0.00000000000E+00 0.  1.
         12    1    6    6    0    0  0.27355771368E+02 -0.43014324883E+02 -0.60785645835E+01  0.51337309237E+02  0.00000000000E+00 0. -1.
         -5    1    3    3    0  503 -0.76119311688E+02 -0.68295993192E+02  0.24663260437E+03  0.26703599726E+03  0.47000000000E+01 0.  1.
         13    1    4    4    0    0  0.21494859541E+02  0.18708423226E+00  0.18582017785E+03  0.18705935551E+03  0.00000000000E+00 0. -1.
        -14    1    4    4    0    0  0.93231881807E+01  0.39154407277E+01 -0.63539273628E+01  0.11942567014E+02  0.00000000000E+00 0.  1.
</event>
<event>
12    1  0.1032880E+000  0.1056974E+04  0.7818608E-02  0.9248230E-01
         21   -1    0    0  501  502  0.00000000000E+00  0.00000000000E+00  0.72585413321E+03  0.72585413321E+03  0.00000000000E+00 0.  1.
         21   -1    0    0  502  503 -0.00000000000E+00 -0.00000000000E+00 -0.21550875932E+04  0.21550875932E+04  0.00000000000E+00 0.  1.
         -6    2    1    2    0  503  0.25086736699E+03 -0.10120023519E+04  0.55622726286E+02  0.10584366496E+04  0.17352537994E+03 0.  0.
        -24    2    3    3    0    0  0.18356472936E+03 -0.52247946110E+03  0.72748475527E+02  0.56398980016E+03  0.78175167722E+02 0.  0.
          6    2    1    2  501    0 -0.25086736699E+03  0.10120023519E+04 -0.14848561863E+04  0.18225050768E+04  0.17217335750E+03 0.  0.
         24    2    5    5    0    0 -0.24621493577E+03  0.84233914582E+03 -0.13094675280E+04  0.15783933809E+04  0.80395440931E+02 0.  0.
          5    1    5    5  501    0 -0.46524312197E+01  0.16966320607E+03 -0.17538865825E+03  0.24411169585E+03  0.47000000000E+01 0. -1.
        -11    1    6    6    0    0 -0.10806060474E+02  0.21888866048E+02 -0.64122434900E+02  0.68611806983E+02  0.00000000000E+00 0.  1.
         12    1    6    6    0    0 -0.23540887529E+03  0.82045027977E+03 -0.12453450931E+04  0.15097815740E+04  0.00000000000E+00 0. -1.
         -5    1    3    3    0  503  0.67302637622E+02 -0.48952289078E+03 -0.17125749241E+02  0.49444684944E+03  0.47000000000E+01 0.  1.
         11    1    4    4    0    0  0.56382538675E+02 -0.78179369872E+02  0.16212973196E+01  0.96403491358E+02  0.00000000000E+00 0. -1.
        -12    1    4    4    0    0  0.12718219069E+03 -0.44430009123E+03  0.71127178208E+02  0.46758630880E+03  0.00000000000E+00 0.  1.
</event>
<event>
12    1  0.1032880E+000  0.2665531E+03  0.7818608E-02  0.1103316E+00
         21   -1    0    0  503  502  0.00000000000E+00  0.00000000000E+00  0.26259007610E+03  0.26259007610E+03  0.00000000000E+00 0. -1.
         21   -1    0    0  501  503 -0.00000000000E+00 -0.00000000000E+00 -0.28138130425E+03  0.28138130425E+03  0.00000000000E+00 0. -1.
          6    2    1    2  501    0 -0.12536196693E+03 -0.15983838078E+03  0.44719390655E+02  0.26995648697E+03  0.17208355596E+03 0.  0.
         24    2    3    3    0    0 -0.61385032663E+02 -0.54989949634E+02 -0.43213715836E+02  0.11882554093E+03  0.73892267160E+02 0.  0.
         -6    2    1    2    0  502  0.12536196693E+03  0.15983838078E+03 -0.63510618798E+02  0.27401489338E+03  0.17258804238E+03 0.  0.
        -24    2    5    5    0    0  0.12753378521E+03  0.55362010332E+02 -0.19840373368E+02  0.16066054140E+03  0.78027883422E+02 0.  0.
          5    1    3    3  501    0 -0.63976934264E+02 -0.10484843115E+03  0.87933106491E+02  0.15113094603E+03  0.47000000000E+01 0. -1.
        -11    1    4    4    0    0  0.27623308835E+01 -0.45660416062E+02 -0.20644847107E+02  0.50186788888E+02  0.00000000000E+00 0.  1.
         12    1    4    4    0    0 -0.64147363546E+02 -0.93295335723E+01 -0.22568868729E+02  0.68638752045E+02  0.00000000000E+00 0. -1.
         -5    1    5    5    0  502 -0.21718182797E+01  0.10447637045E+03 -0.43670245430E+02  0.11335435198E+03  0.47000000000E+01 0.  1.
         13    1    6    6    0    0  0.77433260205E+02  0.72556884762E+02 -0.82288354815E+01  0.10643366500E+03  0.00000000000E+00 0. -1.
        -14    1    6    6    0    0  0.50100525002E+02 -0.17194874430E+02 -0.11611537886E+02  0.54226876401E+02  0.00000000000E+00 0.  1.
</event>
<event>
12    1  0.1032880E+000  0.2281834E+03  0.7818608E-02  0.1128096E+00
         21   -1    0    0  501  502  0.00000000000E+00  0.00000000000E+00  0.29315103045E+03  0.29315103045E+03  0.00000000000E+00 0. -1.
         21   -1    0    0  502  503 -0.00000000000E+00 -0.00000000000E+00 -0.17890049326E+03  0.17890049326E+03  0.00000000000E+00 0. -1.
         -6    2    1    2    0  503 -0.75875073163E+00 -0.14993570252E+03  0.82156739709E+02  0.24162221192E+03  0.17073450975E+03 0.  0.
        -24    2    3    3    0    0  0.47263874125E+00 -0.22583765380E+02  0.79510552703E+02  0.11415015805E+03  0.78727890513E+02 0.  0.
          6    2    1    2  501    0  0.75875073163E+00  0.14993570252E+03  0.32093797488E+02  0.23042931179E+03  0.17200687574E+03 0.  0.
         24    2    5    5    0    0 -0.25698120820E+02  0.25280265685E+02  0.51230040588E+02  0.10148269576E+03  0.79841939067E+02 0.  0.
          5    1    5    5  501    0  0.26456871552E+02  0.12465543684E+03 -0.19136243100E+02  0.12894661603E+03  0.47000000000E+01 0. -1.
        -11    1    6    6    0    0 -0.25057854411E+00  0.40213456311E+02 -0.23851761741E+01  0.40284909377E+02  0.00000000000E+00 0.  1.
         12    1    6    6    0    0 -0.25447542276E+02 -0.14933190627E+02  0.53615216762E+02  0.61197786387E+02  0.00000000000E+00 0. -1.
         -5    1    3    3    0  503 -0.12313894729E+01 -0.12735193714E+03  0.26461870066E+01  0.12747205388E+03  0.47000000000E+01 0.  1.
         13    1    4    4    0    0  0.20243419668E+02  0.23510760363E+02  0.37912849338E+02  0.48989142038E+02  0.00000000000E+00 0. -1.
        -14    1    4    4    0    0 -0.19770780927E+02 -0.46094525743E+02  0.41597703365E+02  0.65161016008E+02  0.00000000000E+00 0.  1.
</event>
<event>
12    1  0.1032880E+000  0.3619460E+03  0.7818608E-02  0.1058247E+00
         21   -1    0    0  501  502  0.00000000000E+00  0.00000000000E+00  0.37976089571E+03  0.37976089571E+03  0.00000000000E+00 0.  1.
         21   -1    0    0  502  503 -0.00000000000E+00 -0.00000000000E+00 -0.37264259597E+03  0.37264259597E+03  0.00000000000E+00 0. -1.
         -6    2    1    2    0  503  0.27719327026E+03 -0.14668509701E+03 -0.10637440319E+03  0.37308103291E+03  0.17181768449E+03 0.  0.
        -24    2    3    3    0    0  0.66289562466E+02 -0.93674339425E+02 -0.42402716525E+02  0.14635436691E+03  0.80326971731E+02 0.  0.
          6    2    1    2  501    0 -0.27719327026E+03  0.14668509701E+03  0.11349270293E+03  0.37932245876E+03  0.18069949458E+03 0.  0.
         24    2    5    5    0    0 -0.14238131028E+03  0.22992468473E+02  0.10553789016E+03  0.19612993721E+03  0.80793656219E+02 0.  0.
          5    1    5    5  501    0 -0.13481195998E+03  0.12369262854E+03  0.79548127728E+01  0.18319252155E+03  0.47000000000E+01 0. -1.
        -11    1    6    6    0    0 -0.10584203366E+02  0.31448759451E+02  0.23399006456E+02  0.40602504049E+02  0.00000000000E+00 0.  1.
         12    1    6    6    0    0 -0.13179710692E+03 -0.84562909787E+01  0.82138883705E+02  0.15552743316E+03  0.00000000000E+00 0. -1.
         -5    1    3    3    0  503  0.21090370779E+03 -0.53010757583E+02 -0.63971686664E+02  0.22672666600E+03  0.47000000000E+01 0.  1.
         13    1    4    4    0    0  0.75129685575E+02 -0.81695763812E+02 -0.57629324089E+02  0.12505921187E+03  0.00000000000E+00 0. -1.
        -14    1    4    4    0    0 -0.88401231092E+01 -0.11978575613E+02  0.15226607564E+02  0.21295155040E+02  0.00000000000E+00 0.  1.
</event>
<event>
12    1  0.1032880E+000  0.1900974E+03  0.7818608E-02  0.1158439E+00
         21   -1    0    0  501  502  0.00000000000E+00  0.00000000000E+00  0.76449961448E+02  0.76449961448E+02  0.00000000000E+00 0.  1.
         21   -1    0    0  502  503 -0.00000000000E+00 -0.00000000000E+00 -0.90660631209E+03  0.90660631209E+03  0.00000000000E+00 0.  1.
         -6    2    1    2    0  503  0.31058664529E+02 -0.75366124239E+02 -0.74579832352E+02  0.20393311628E+03  0.17141140918E+03 0.  0.
        -24    2    3    3    0    0  0.71683314878E+02 -0.95393853527E+02 -0.60802791266E+02  0.15635823827E+03  0.80699655062E+02 0.  0.
          6    2    1    2  501    0 -0.31058664529E+02  0.75366124239E+02 -0.75557651829E+03  0.77912315725E+03  0.17173329863E+03 0.  0.
         24    2    5    5    0    0  0.24791965282E+02  0.64570040307E+02 -0.65526028827E+03  0.66370528912E+03  0.79716584116E+02 0.  0.
          5    1    5    5  501    0 -0.55850629811E+02  0.10796083932E+02 -0.10031623002E+03  0.11541786813E+03  0.47000000000E+01 0. -1.
        -13    1    6    6    0    0  0.50782678367E+02  0.22836679052E+02 -0.38564081783E+03  0.38963987823E+03  0.00000000000E+00 0.  1.
         14    1    6    6    0    0 -0.25990713085E+02  0.41733361255E+02 -0.26961947044E+03  0.27406541090E+03  0.00000000000E+00 0. -1.
         -5    1    3    3    0  503 -0.40624650349E+02  0.20027729288E+02 -0.13777041085E+02  0.47574878007E+02  0.47000000000E+01 0.  1.
         13    1    4    4    0    0 -0.99907518188E+01 -0.45807470949E+02 -0.31248438043E+02  0.56343627827E+02  0.00000000000E+00 0. -1.
        -14    1    4    4    0    0  0.81674066696E+02 -0.49586382578E+02 -0.29554353223E+02  0.10001461044E+03  0.00000000000E+00 0.  1.
</event>
<event>
12    1  0.1032880E+000  0.1885038E+03  0.7818608E-02  0.1160161E+00
         21   -1    0    0  503  502  0.00000000000E+00  0.00000000000E+00  0.24496074313E+03  0.24496074313E+03  0.00000000000E+00 0.  1.
         21   -1    0    0  501  503 -0.00000000000E+00 -0.00000000000E+00 -0.14400908685E+03  0.14400908685E+03  0.00000000000E+00 0.  1.
          6    2    1    2  501    0 -0.78640172726E+02 -0.21382373468E+01  0.45454123319E+02  0.19390656929E+03  0.17130333173E+03 0.  0.
         24    2    3    3    0    0  0.25004805073E+02 -0.15518513607E+02  0.23300302036E+02  0.86975773851E+02  0.78459012362E+02 0.  0.
         -6    2    1    2    0  502  0.78640172726E+02  0.21382373468E+01  0.55497532961E+02  0.19506326070E+03  0.16964919889E+03 0.  0.
        -24    2    5    5    0    0  0.76954284064E+02  0.45929496232E+02 -0.64137906139E+01  0.11906577020E+03  0.78128358888E+02 0.  0.
          5    1    3    3  501    0 -0.10364497780E+03  0.13380276260E+02  0.22153821283E+02  0.10693079544E+03  0.47000000000E+01 0. -1.
        -13    1    4    4    0    0  0.13015589175E+02 -0.47694394140E+02  0.12786439148E+02  0.51065191863E+02  0.00000000000E+00 0.  1.
         14    1    4    4    0    0  0.11989215897E+02  0.32175880533E+02  0.10513862888E+02  0.35910581988E+02  0.00000000000E+00 0. -1.
         -5    1    5    5    0  502  0.16858886619E+01 -0.43791258886E+02  0.61911323575E+02  0.75997490499E+02  0.47000000000E+01 0.  1.
         13    1    6    6    0    0  0.54661936838E+02 -0.47787658499E+01  0.19074006091E+02  0.58091149500E+02  0.00000000000E+00 0. -1.
        -14    1    6    6    0    0  0.22292347226E+02  0.50708262082E+02 -0.25487796704E+02  0.60974620697E+02  0.00000000000E+00 0.  1.
</event>
<event>
12    1  0.1032880E+000  0.2273609E+03  0.7818608E-02  0.1129743E+00
         21   -1    0    0  503  502  0.00000000000E+00  0.00000000000E+00  0.22657548747E+03  0.22657548747E+03  0.00000000000E+00 0.  1.
         21   -1    0    0  501  503 -0.00000000000E+00 -0.00000000000E+00 -0.23738288067E+03  0.23738288067E+03  0.00000000000E+00 0.  1.
          6    2    1    2  501    0 -0.11824520536E+03  0.72852231328E+02  0.54881407533E+02  0.22729831423E+03  0.17135687485E+03 0.  0.
         24    2    3    3    0    0 -0.69486087925E+02  0.54744605286E+02  0.10199286385E+03  0.15696399138E+03  0.80061614340E+02 0.  0.
         -6    2    1    2    0  502  0.11824520536E+03 -0.72852231328E+02 -0.65688800736E+02  0.23666005391E+03  0.18000996187E+03 0.  0.
        -24    2    5    5    0    0  0.29578412099E+02 -0.52287311666E+02  0.29574519621E+02  0.10481959595E+03  0.80645211024E+02 0.  0.
          5    1    3    3  501    0 -0.48759117436E+02  0.18107626042E+02 -0.47111456319E+02  0.70334322848E+02  0.47000000000E+01 0. -1.
        -11    1    4    4    0    0  0.53163425576E+01  0.20638497952E+02 -0.51396758898E+01  0.21923215188E+02  0.00000000000E+00 0.  1.
         12    1    4    4    0    0 -0.74802430482E+02  0.34106107333E+02  0.10713253974E+03  0.13504077619E+03  0.00000000000E+00 0. -1.
         -5    1    5    5    0  502  0.88666793262E+02 -0.20564919662E+02 -0.95263320357E+02  0.13184045795E+03  0.47000000000E+01 0.  1.
         13    1    6    6    0    0  0.19467317690E+02 -0.12335226696E+02 -0.26570545330E+02  0.35172832624E+02  0.00000000000E+00 0. -1.
        -14    1    6    6    0    0  0.10111094408E+02 -0.39952084970E+02  0.56145064951E+02  0.69646763327E+02  0.00000000000E+00 0.  1.
</event>
<event>
12    1  0.1032880E+000  0.2884473E+03  0.7818608E-02  0.1092894E+00
         21   -1    0    0  501  502  0.00000000000E+00  0.00000000000E+00  0.33815972683E+03  0.33815972683E+03  0.00000000000E+00 0.  1.
         21   -1    0    0  502  503 -0.00000000000E+00 -0.00000000000E+00 -0.31947307231E+03  0.31947307231E+03  0.00000000000E+00 0.  1.
         -6    2    1    2    0  503 -0.17276853244E+03 -0.12918980397E+03  0.17803729095E+03  0.32809602878E+03  0.17149564391E+03 0.  0.
        -24    2    3    3    0    0 -0.15007028218E+02 -0.66915836917E+02  0.79195434090E+02  0.13173273828E+03  0.79866497535E+02 0.  0.
          6    2    1    2  501    0  0.17276853244E+03  0.12918980397E+03 -0.15935063643E+03  0.32953677036E+03  0.19147555050E+03 0.  0.
         24    2    5    5    0    0  0.18324656441E+03  0.63141979468E+02 -0.15875395001E+03  0.26249536294E+03  0.78324874611E+02 0.  0.
          5    1    5    5  501    0 -0.10478031961E+02  0.66047824499E+02 -0.59668642285E+00  0.67041407425E+02  0.47000000000E+01 0. -1.
        -13    1    6    6    0    0  0.10995479054E+03  0.76879551799E+02 -0.10886192257E+03  0.17277569167E+03  0.00000000000E+00 0.  1.
         14    1    6    6    0    0  0.73291773865E+02 -0.13737572331E+02 -0.49892027440E+02  0.89719671265E+02  0.00000000000E+00 0. -1.
         -5    1    3    3    0  503 -0.15776150423E+03 -0.62273967051E+02  0.98841856864E+02  0.19636329050E+03  0.47000000000E+01 0.  1.
         11    1    4    4    0    0 -0.39585068894E+02 -0.35183182546E+02  0.13348742127E+02  0.54617057132E+02  0.00000000000E+00 0. -1.
        -12    1    4    4    0    0  0.24578040676E+02 -0.31732654371E+02  0.65846691962E+02  0.77115681150E+02  0.00000000000E+00 0.  1.
</event>
<event>
12    1  0.1032880E+000  0.1976600E+03  0.7818608E-02  0.1151781E+00
         21   -1    0    0  501  502  0.00000000000E+00  0.00000000000E+00  0.38607791768E+03  0.38607791768E+03  0.00000000000E+00 0. -1.
         21   -1    0    0  502  503 -0.00000000000E+00 -0.00000000000E+00 -0.12383702311E+03  0.12383702311E+03  0.00000000000E+00 0. -1.
         -6    2    1    2    0  503 -0.20908989886E+02  0.95412541827E+02  0.24037151709E+03  0.31104876344E+03  0.17155794361E+03 0.  0.
        -24    2    3    3    0    0  0.18914810557E+02  0.58103233708E+01  0.53521846466E+02  0.99981518124E+02  0.82098635806E+02 0.  0.
          6    2    1    2  501    0  0.20908989886E+02 -0.95412541827E+02  0.21869377474E+02  0.19886617735E+03  0.17183930815E+03 0.  0.
         24    2    5    5    0    0  0.44031418419E+02 -0.12318812358E+02  0.52928711933E+02  0.10707300312E+03  0.81071946466E+02 0.  0.
          5    1    5    5  501    0 -0.23122428533E+02 -0.83093729470E+02 -0.31059334459E+02  0.91793174231E+02  0.47000000000E+01 0. -1.
        -13    1    6    6    0    0  0.48942574116E+02 -0.35283494980E+02  0.57274240616E+02  0.83190379355E+02  0.00000000000E+00 0.  1.
         14    1    6    6    0    0 -0.49111556979E+01  0.22964682622E+02 -0.43455286825E+01  0.23882623762E+02  0.00000000000E+00 0. -1.
         -5    1    3    3    0  503 -0.39823800442E+02  0.89602218457E+02  0.18684967062E+03  0.21106724532E+03  0.47000000000E+01 0.  1.
         11    1    4    4    0    0  0.32374843708E+02  0.37752207003E+02  0.29765529907E+02  0.57959868956E+02  0.00000000000E+00 0. -1.
        -12    1    4    4    0    0 -0.13460033151E+02 -0.31941883632E+02  0.23756316559E+02  0.42021649168E+02  0.00000000000E+00 0.  1.
</event>
<event>
12    1  0.1032880E+000  0.1884362E+03  0.7818608E-02  0.1160222E+00
         21   -1    0    0  503  502  0.00000000000E+00  0.00000000000E+00  0.23937650428E+03  0.23937650428E+03  0.00000000000E+00 0.  1.
         21   -1    0    0  501  503 -0.00000000000E+00 -0.00000000000E+00 -0.18578795362E+03  0.18578795362E+03  0.00000000000E+00 0.  1.
          6    2    1    2  501    0  0.71522602733E+02  0.26311946066E+02  0.12381230309E+03  0.22547212865E+03  0.17233802017E+03 0.  0.
         24    2    3    3    0    0 -0.19045806103E+02  0.26770051237E+02  0.14210334805E+02  0.83213462865E+02  0.75121025109E+02 0.  0.
         -6    2    1    2    0  502 -0.71522602733E+02 -0.26311946066E+02 -0.70223752429E+02  0.19969232924E+03  0.17069812461E+03 0.  0.
        -24    2    5    5    0    0 -0.12941818591E+02 -0.88487412936E+01 -0.10274522846E+03  0.13029198202E+03  0.78572436110E+02 0.  0.
          5    1    3    3  501    0  0.90568408836E+02 -0.45810517119E+00  0.10960196829E+03  0.14225866579E+03  0.47000000000E+01 0. -1.
        -13    1    4    4    0    0 -0.46492953745E+02  0.27799175201E+02  0.13064410951E+02  0.55723134542E+02  0.00000000000E+00 0.  1.
         14    1    4    4    0    0  0.27447147642E+02 -0.10291239633E+01  0.11459238539E+01  0.27490328323E+02  0.00000000000E+00 0. -1.
         -5    1    5    5    0  502 -0.58580784143E+02 -0.17463204772E+02  0.32521476031E+02  0.69400347225E+02  0.47000000000E+01 0.  1.
         11    1    6    6    0    0 -0.21200731609E+02 -0.14017079994E+01  0.51198426353E+01  0.21855173179E+02  0.00000000000E+00 0. -1.
        -12    1    6    6    0    0  0.82589130181E+01 -0.74470332942E+01 -0.10786507110E+03  0.10843680884E+03  0.00000000000E+00 0.  1.
</event>
<event>
12    1  0.1032880E+000  0.3328944E+03  0.7818608E-02  0.1069869E+00
         21   -1    0    0  501  502  0.00000000000E+00  0.00000000000E+00  0.19082928885E+03  0.19082928885E+03  0.00000000000E+00 0.  1.
         21   -1    0    0  502  503 -0.00000000000E+00 -0.00000000000E+00 -0.58062966825E+03  0.58062966825E+03  0.00000000000E+00 0.  1.
         -6    2    1    2    0  503  0.24907279248E+03 -0.13858836038E+03 -0.19466278885E+03  0.38558671423E+03  0.17187065847E+03 0.  0.
        -24    2    3    3    0    0  0.62094998093E+02 -0.88586050861E+02 -0.11362669853E+03  0.17570611845E+03  0.79109646992E+02 0.  0.
          6    2    1    2  501    0 -0.24907279248E+03  0.13858836038E+03 -0.19513759055E+03  0.38587224286E+03  0.17197301818E+03 0.  0.
         24    2    5    5    0    0 -0.18853853690E+03  0.32365331084E+02 -0.14863488209E+03  0.25498175449E+03  0.79555467430E+02 0.  0.
          5    1    5    5  501    0 -0.60534255582E+02  0.10622302930E+03 -0.46502708455E+02  0.13089048837E+03  0.47000000000E+01 0. -1.
        -11    1    6    6    0    0 -0.11253294679E+03  0.29983785271E+02 -0.13401473886E+03  0.17754616787E+03  0.00000000000E+00 0.  1.
         12    1    6    6    0    0 -0.76005590109E+02  0.23815458127E+01 -0.14620143234E+02  0.77435586628E+02  0.00000000000E+00 0. -1.
         -5    1    3    3    0  503  0.18697779439E+03 -0.50002309520E+02 -0.81036090320E+02  0.20988059578E+03  0.47000000000E+01 0.  1.
         13    1    4    4    0    0  0.47538609257E+02 -0.26002531572E+02 -0.94038761974E+02  0.10853266684E+03  0.00000000000E+00 0. -1.
        -14    1    4    4    0    0  0.14556388836E+02 -0.62583519289E+02 -0.19587936554E+02  0.67173451609E+02  0.00000000000E+00 0.  1.
</event>
<event>
12    1  0.1032880E+000  0.3528943E+03  0.7818608E-02  0.1062019E+00
         21   -1    0    0  503  502  0.00000000000E+00  0.00000000000E+00  0.10288378740E+03  0.10288378740E+03  0.00000000000E+00 0. -1.
         21   -1    0    0  501  503 -0.00000000000E+00 -0.00000000000E+00 -0.12451471288E+04  0.12451471288E+04  0.00000000000E+00 0. -1.
          6    2    1    2  501    0 -0.36765616239E+01 -0.30193203801E+03 -0.70735866111E+03  0.78796262563E+03  0.17132527913E+03 0.  0.
         24    2    3    3    0    0  0.40722398169E+02 -0.28463976749E+03 -0.61512883343E+03  0.68404572921E+03  0.82806805121E+02 0.  0.
         -6    2    1    2    0  502  0.36765616239E+01  0.30193203801E+03 -0.43490468030E+03  0.56006829057E+03  0.18264155189E+03 0.  0.
        -24    2    5    5    0    0 -0.40157265923E+02  0.59092644089E+02 -0.12405627289E+03  0.16315369262E+03  0.78259964098E+02 0.  0.
          5    1    3    3  501    0 -0.44398959792E+02 -0.17292270523E+02 -0.92229827673E+02  0.10391689643E+03  0.47000000000E+01 0. -1.
        -11    1    4    4    0    0 -0.11568940842E+02 -0.14595687207E+03 -0.24603105568E+03  0.28630146569E+03  0.00000000000E+00 0.  1.
         12    1    4    4    0    0  0.52291339011E+02 -0.13868289542E+03 -0.36909777776E+03  0.39774426352E+03  0.00000000000E+00 0. -1.
         -5    1    5    5    0  502  0.43833827547E+02  0.24283939392E+03 -0.31084840741E+03  0.39691459795E+03  0.47000000000E+01 0.  1.
         11    1    6    6    0    0 -0.25604044144E+02 -0.11204450386E+02 -0.62969105792E+02  0.68892779514E+02  0.00000000000E+00 0. -1.
        -12    1    6    6    0    0 -0.14553221780E+02  0.70297094475E+02 -0.61087167101E+02  0.94260913109E+02  0.00000000000E+00 0.  1.
</event>
<event>
12    1  0.1032880E+000  0.2670774E+03  0.7818608E-02  0.1103071E+00
         21   -1    0    0  501  502  0.00000000000E+00  0.00000000000E+00  0.12981017496E+03  0.12981017496E+03  0.00000000000E+00 0. -1.
         21   -1    0    0  502  503 -0.00000000000E+00 -0.00000000000E+00 -0.13211363362E+04  0.13211363362E+04  0.00000000000E+00 0. -1.
         -6    2    1    2    0  503  0.16273995846E+03  0.12361154378E+03 -0.40340835248E+02  0.26938079429E+03  0.17080550784E+03 0.  0.
        -24    2    3    3    0    0  0.44655896104E+02  0.11653093154E+03 -0.24499449416E+02  0.14993616127E+03  0.79416763801E+02 0.  0.
          6    2    1    2  501    0 -0.16273995846E+03 -0.12361154378E+03 -0.11509853260E+04  0.11815657169E+04  0.17194829103E+03 0.  0.
         24    2    5    5    0    0 -0.11946133923E+03 -0.14674409801E+03 -0.73162625193E+03  0.75931901534E+03  0.74051014039E+02 0.  0.
          5    1    5    5  501    0 -0.43278619236E+02  0.23132554224E+02 -0.41935907406E+03  0.42224670152E+03  0.47000000000E+01 0. -1.
        -13    1    6    6    0    0 -0.18730937057E+02 -0.68898850468E+02 -0.34370914647E+03  0.35104683016E+03  0.00000000000E+00 0.  1.
         14    1    6    6    0    0 -0.10073040217E+03 -0.77845247538E+02 -0.38791710546E+03  0.40827218518E+03  0.00000000000E+00 0. -1.
         -5    1    3    3    0  503  0.11808406236E+03  0.70806122469E+01 -0.15841385832E+02  0.11944463302E+03  0.47000000000E+01 0.  1.
         11    1    4    4    0    0  0.22480595272E+02  0.26549921511E+02 -0.43126871600E+02  0.55409408498E+02  0.00000000000E+00 0. -1.
        -12    1    4    4    0    0  0.22175300832E+02  0.89981010025E+02  0.18627422184E+02  0.94526752770E+02  0.00000000000E+00 0.  1.
</event>
<event>
12    1  0.1032880E+000  0.2184190E+03  0.7818608E-02  0.1135232E+00
         21   -1    0    0  503  502  0.00000000000E+00  0.00000000000E+00  0.27029080070E+03  0.27029080070E+03  0.00000000000E+00 0.  1.
         21   -1    0    0  501  503 -0.00000000000E+00 -0.00000000000E+00 -0.18296133079E+03  0.18296133079E+03  0.00000000000E+00 0.  1.
          6    2    1    2  501    0 -0.90454981847E+02  0.98516737987E+02 -0.11037511494E+01  0.21842174545E+03  0.17268233614E+03 0.  0.
         24    2    3    3    0    0 -0.62522068491E+02 -0.11526647831E+02  0.70257179360E+01  0.10450084009E+03  0.82638926714E+02 0.  0.
         -6    2    1    2    0  502  0.90454981847E+02 -0.98516737987E+02  0.88433221058E+02  0.23483038604E+03  0.17157279568E+03 0.  0.
        -24    2    5    5    0    0  0.99084327888E+02 -0.11676846494E+03  0.11029291686E+03  0.20470518977E+03  0.79291290663E+02 0.  0.
          5    1    3    3  501    0 -0.27932913356E+02  0.11004338582E+03 -0.81294690855E+01  0.11392090536E+03  0.47000000000E+01 0. -1.
        -11    1    4    4    0    0 -0.47145380792E+02  0.14215759276E+02 -0.29376580497E+02  0.57338976478E+02  0.00000000000E+00 0.  1.
         12    1    4    4    0    0 -0.15376687699E+02 -0.25742407106E+02  0.36402298433E+02  0.47161863612E+02  0.00000000000E+00 0. -1.
         -5    1    5    5    0  502 -0.86293460415E+01  0.18251726951E+02 -0.21859695798E+02  0.30125196268E+02  0.47000000000E+01 0.  1.
         11    1    6    6    0    0  0.10386825686E+03 -0.71703634015E+02  0.71554150495E+02  0.14508625837E+03  0.00000000000E+00 0. -1.
        -12    1    6    6    0    0 -0.47839289755E+01 -0.45064830924E+02  0.38738766361E+02  0.59618931404E+02  0.00000000000E+00 0.  1.
</event>
<event>
12    1  0.1032880E+000  0.1790625E+03  0.7818608E-02  0.1168863E+00
         21   -1    0    0  503  502  0.00000000000E+00  0.00000000000E+00  0.70458106616E+03  0.70458106616E+03  0.00000000000E+00 0. -1.
         21   -1    0    0  501  503 -0.00000000000E+00 -0.00000000000E+00 -0.45990382517E+02  0.45990382517E+02  0.00000000000E+00 0. -1.
          6    2    1    2  501    0  0.26271451806E+02  0.44136703361E+02  0.37407678259E+03  0.41472499451E+03  0.17153758782E+03 0.  0.
         24    2    3    3    0    0  0.82977654135E+02  0.30925787048E+02  0.22340308904E+03  0.25312433356E+03  0.79506557318E+02 0.  0.
         -6    2    1    2    0  502 -0.26271451806E+02 -0.44136703361E+02  0.28451390105E+03  0.33584645416E+03  0.17089892662E+03 0.  0.
        -24    2    5    5    0    0 -0.51250851736E+02 -0.14678510887E+02  0.59729023531E+02  0.10771910664E+03  0.72067615463E+02 0.  0.
          5    1    3    3  501    0 -0.56706202329E+02  0.13210916313E+02  0.15067369355E+03  0.16160066095E+03  0.47000000000E+01 0. -1.
        -13    1    4    4    0    0  0.29761068623E+02  0.27344411267E+02  0.24651988043E+02  0.47340876076E+02  0.00000000000E+00 0.  1.
         14    1    4    4    0    0  0.53216585512E+02  0.35813757811E+01  0.19875110100E+03  0.20578345749E+03  0.00000000000E+00 0. -1.
         -5    1    5    5    0  502  0.24979399930E+02 -0.29458192474E+02  0.22478487752E+03  0.22812734752E+03  0.47000000000E+01 0.  1.
         11    1    6    6    0    0  0.45600885967E+01 -0.28785346224E+02  0.33663782772E+02  0.44526855220E+02  0.00000000000E+00 0. -1.
        -12    1    6    6    0    0 -0.55810940333E+02  0.14106835338E+02  0.26065240759E+02  0.63192251423E+02  0.00000000000E+00 0.  1.
</event>
<event>
12    1  0.1032880E+000  0.5840559E+03  0.7818608E-02  0.9939070E-01
         21   -1    0    0  501  502  0.00000000000E+00  0.00000000000E+00  0.11649349831E+04  0.11649349831E+04  0.00000000000E+00 0. -1.
         21   -1    0    0  502  503 -0.00000000000E+00 -0.00000000000E+00 -0.29406876647E+03  0.29406876647E+03  0.00000000000E+00 0.  1.
         -6    2    1    2    0  503 -0.47207514128E+03  0.29757532331E+03  0.48326026165E+03  0.75803325289E+03  0.17224378054E+03 0.  0.
        -24    2    3    3    0    0 -0.10080431528E+03  0.95002187293E+02  0.12582187727E+03  0.20426237039E+03  0.81884342747E+02 0.  0.
          6    2    1    2  501    0  0.47207514128E+03 -0.29757532331E+03  0.38760595493E+03  0.70097049663E+03  0.17238111496E+03 0.  0.
         24    2    5    5    0    0  0.45382531920E+03 -0.30408333246E+03  0.33774402307E+03  0.64727028772E+03  0.80397181636E+02 0.  0.
          5    1    5    5  501    0  0.18249822081E+02  0.65080091484E+01  0.49861931854E+02  0.53700208913E+02  0.47000000000E+01 0. -1.
        -13    1    6    6    0    0  0.39217172430E+03 -0.22750726954E+03  0.28759926094E+03  0.53690926042E+03  0.00000000000E+00 0.  1.
         14    1    6    6    0    0  0.61653594904E+02 -0.76576062924E+02  0.50144762133E+02  0.11036102730E+03  0.00000000000E+00 0. -1.
         -5    1    3    3    0  503 -0.37127082600E+03  0.20257313602E+03  0.35743838438E+03  0.55377088250E+03  0.47000000000E+01 0.  1.
         13    1    4    4    0    0 -0.42309246759E+02  0.92912588564E+02  0.74060010135E+02  0.12612575699E+03  0.00000000000E+00 0. -1.
        -14    1    4    4    0    0 -0.58495068520E+02  0.20895987296E+01  0.51761867133E+02  0.78136613397E+02  0.00000000000E+00 0.  1.
</event>
<event>
12    1  0.1032880E+000  0.2105803E+03  0.7818608E-02  0.1141222E+00
         21   -1    0    0  501  502  0.00000000000E+00  0.00000000000E+00  0.24198508411E+04  0.24198508411E+04  0.00000000000E+00 0. -1.
         21   -1    0    0  502  503 -0.00000000000E+00 -0.00000000000E+00 -0.21637921203E+02  0.21637921203E+02  0.00000000000E+00 0. -1.
         -6    2    1    2    0  503 -0.11676126731E+03  0.29747397427E+02  0.16817878156E+04  0.16949201528E+04  0.17270195819E+03 0.  0.
        -24    2    3    3    0    0 -0.17974756138E+02  0.37846484565E+02  0.11757511618E+04  0.11792462684E+04  0.80470608782E+02 0.  0.
          6    2    1    2  501    0  0.11676126731E+03 -0.29747397427E+02  0.71642510430E+03  0.74656860954E+03  0.17199319021E+03 0.  0.
         24    2    5    5    0    0  0.72657308500E+02 -0.81782247521E+01  0.19575243217E+03  0.22356525401E+03  0.79476035761E+02 0.  0.
          5    1    5    5  501    0  0.44103958809E+02 -0.21569172675E+02  0.52067267213E+03  0.52300335553E+03  0.47000000000E+01 0. -1.
        -13    1    6    6    0    0  0.33677380953E+02 -0.43565459995E+02  0.10812031201E+03  0.12133473188E+03  0.00000000000E+00 0.  1.
         14    1    6    6    0    0  0.38979927547E+02  0.35387235243E+02  0.87632120163E+02  0.10223052212E+03  0.00000000000E+00 0. -1.
         -5    1    3    3    0  503 -0.98786511171E+02 -0.80990871378E+01  0.50603665386E+03  0.51567388440E+03  0.47000000000E+01 0.  1.
         13    1    4    4    0    0 -0.74476357033E+01  0.62181209660E+02  0.91844513276E+03  0.92057777075E+03  0.00000000000E+00 0. -1.
        -14    1    4    4    0    0 -0.10527120435E+02 -0.24334725095E+02  0.25730602900E+03  0.25866849763E+03  0.00000000000E+00 0.  1.
</event>
<event>
12    1  0.1032880E+000  0.3948230E+03  0.7818608E-02  0.1045670E+00
         21   -1    0    0  503  502  0.00000000000E+00  0.00000000000E+00  0.28677822783E+04  0.28677822783E+04  0.00000000000E+00 0.  1.
         21   -1    0    0  501  503 -0.00000000000E+00 -0.00000000000E+00 -0.67795925258E+02  0.67795925258E+02  0.00000000000E+00 0.  1.
          6    2    1    2  501    0 -0.34109648944E+03  0.98024722727E+02  0.20552855220E+04  0.20926876167E+04  0.17084268464E+03 0.  0.
         24    2    3    3    0    0 -0.12374063805E+03  0.68044098481E+02  0.62850385120E+03  0.64912589997E+03  0.80034981068E+02 0.  0.
         -6    2    1    2    0  502  0.34109648944E+03 -0.98024722727E+02  0.74470083098E+03  0.84289058676E+03  0.17300159601E+03 0.  0.
        -24    2    5    5    0    0  0.32598196445E+03 -0.52872728988E+02  0.60517464538E+03  0.69538872958E+03  0.90936061074E+02 0.  0.
          5    1    3    3  501    0 -0.21735585140E+03  0.29980624245E+02  0.14267816708E+04  0.14435617168E+04  0.47000000000E+01 0. -1.
        -13    1    4    4    0    0 -0.21982894824E+02 -0.18215358197E+02  0.94993293992E+02  0.99190588478E+02  0.00000000000E+00 0.  1.
         14    1    4    4    0    0 -0.10175774322E+03  0.86259456679E+02  0.53351055721E+03  0.54993531149E+03  0.00000000000E+00 0. -1.
         -5    1    5    5    0  502  0.15114524994E+02 -0.45151993739E+02  0.13952618560E+03  0.14750185718E+03  0.47000000000E+01 0.  1.
         11    1    6    6    0    0  0.24641070052E+03  0.77539276778E+00  0.44480105577E+03  0.50849465463E+03  0.00000000000E+00 0. -1.
        -12    1    6    6    0    0  0.79571263925E+02 -0.53648121756E+02  0.16037358960E+03  0.18689407495E+03  0.00000000000E+00 0.  1.
</event>
<event>
12    1  0.1032880E+000  0.1943000E+03  0.7818608E-02  0.1155169E+00
         21   -1    0    0  501  502  0.00000000000E+00  0.00000000000E+00  0.51527543497E+02  0.51527543497E+02  0.00000000000E+00 0. -1.
         21   -1    0    0  502  503 -0.00000000000E+00 -0.00000000000E+00 -0.75075578138E+03  0.75075578138E+03  0.00000000000E+00 0.  1.
         -6    2    1    2    0  503  0.71142603746E+02 -0.63625400500E+02 -0.42796398510E+03  0.47000602593E+03  0.16924251894E+03 0.  0.
        -24    2    3    3    0    0 -0.77708212067E+01 -0.59941146947E+02 -0.14324410970E+03  0.17449223639E+03  0.79217036285E+02 0.  0.
          6    2    1    2  501    0 -0.71142603746E+02  0.63625400500E+02 -0.27126425279E+03  0.33227729895E+03  0.16647656561E+03 0.  0.
         24    2    5    5    0    0 -0.56504463545E+02  0.23518540771E+02 -0.27108336567E+03  0.28932432389E+03  0.80476686655E+02 0.  0.
          5    1    5    5  501    0 -0.14638140200E+02  0.40106859730E+02 -0.18088712238E+00  0.42952975055E+02  0.47000000000E+01 0. -1.
        -13    1    6    6    0    0 -0.47752715601E+02  0.43977025786E+02 -0.11840977520E+03  0.13503768180E+03  0.00000000000E+00 0.  1.
         14    1    6    6    0    0 -0.87517479447E+01 -0.20458485016E+02 -0.15267359047E+03  0.15428664209E+03  0.00000000000E+00 0. -1.
         -5    1    3    3    0  503  0.78913424952E+02 -0.36842535529E+01 -0.28471987540E+03  0.29551378954E+03  0.47000000000E+01 0.  1.
         13    1    4    4    0    0  0.26428764906E+02 -0.13245466375E+02 -0.13652625357E+02  0.32562496420E+02  0.00000000000E+00 0. -1.
        -14    1    4    4    0    0 -0.34199586113E+02 -0.46695680572E+02 -0.12959148434E+03  0.14192973997E+03  0.00000000000E+00 0.  1.
</event>
<event>
12    1  0.1032880E+000  0.1940988E+03  0.7818608E-02  0.1155373E+00
         21   -1    0    0  501  502  0.00000000000E+00  0.00000000000E+00  0.61224203379E+03  0.61224203379E+03  0.00000000000E+00 0.  1.
         21   -1    0    0  502  503 -0.00000000000E+00 -0.00000000000E+00 -0.11523450181E+03  0.11523450181E+03  0.00000000000E+00 0.  1.
         -6    2    1    2    0  503 -0.89508308780E+02  0.90748322013E+01  0.49778484308E+03  0.53337613115E+03  0.16913384452E+03 0.  0.
        -24    2    3    3    0    0 -0.86921075180E+02  0.36784215364E+02  0.48848607216E+03  0.50365979165E+03  0.78397648028E+02 0.  0.
          6    2    1    2  501    0  0.89508308780E+02 -0.90748322013E+01 -0.77731110773E+00  0.19410040445E+03  0.17198916499E+03 0.  0.
         24    2    5    5    0    0  0.51916301229E+02 -0.23951049018E+02  0.64177489674E+02  0.11744743971E+03  0.80038714578E+02 0.  0.
          5    1    5    5  501    0  0.37592007551E+02  0.14876216817E+02 -0.64954800782E+02  0.76652964738E+02  0.47000000000E+01 0. -1.
        -13    1    6    6    0    0  0.58011470349E+02 -0.31899582255E+02  0.15825423469E+02  0.68068774545E+02  0.00000000000E+00 0.  1.
         14    1    6    6    0    0 -0.60951691205E+01  0.79485332365E+01  0.48352066205E+02  0.49378665165E+02  0.00000000000E+00 0. -1.
         -5    1    3    3    0  503 -0.25872335994E+01 -0.27709383163E+02  0.92987709170E+01  0.29716339504E+02  0.47000000000E+01 0.  1.
         13    1    4    4    0    0 -0.57076202748E+02 -0.75207195599E+01  0.14442064175E+03  0.15547210652E+03  0.00000000000E+00 0. -1.
        -14    1    4    4    0    0 -0.29844872433E+02  0.44304934924E+02  0.34406543042E+03  0.34818768513E+03  0.00000000000E+00 0.  1.
</event>
<event>
12    1  0.1032880E+000  0.2099465E+03  0.7818608E-02  0.1141630E+00
         21   -1    0    0  501  502  0.00000000000E+00  0.00000000000E+00  0.48698288301E+03  0.48698288301E+03  0.00000000000E+00 0.  1.
         21   -1    0    0  502  503 -0.00000000000E+00 -0.00000000000E+00 -0.13566283420E+03  0.13566283420E+03  0.00000000000E+00 0.  1.
         -6    2    1    2    0  503 -0.26412775934E+01 -0.12049841842E+03  0.35538701041E+03  0.41276806640E+03  0.17190318288E+03 0.  0.
        -24    2    3    3    0    0 -0.59351618766E+02 -0.61996988346E+02  0.27079860615E+03  0.29522757018E+03  0.80381539475E+02 0.  0.
          6    2    1    2  501    0  0.26412775934E+01  0.12049841842E+03 -0.40669616045E+01  0.20987765080E+03  0.17177090249E+03 0.  0.
         24    2    5    5    0    0 -0.44195789272E+02  0.58722337959E+02 -0.50746076403E+02  0.11926294611E+03  0.79037366345E+02 0.  0.
          5    1    5    5  501    0  0.46837066865E+02  0.61776080457E+02  0.46679114799E+02  0.90614704698E+02  0.47000000000E+01 0. -1.
        -13    1    6    6    0    0  0.18760648334E+01  0.61681212994E+02 -0.30850612895E+02  0.68991680452E+02  0.00000000000E+00 0.  1.
         14    1    6    6    0    0 -0.46071854105E+02 -0.29588750350E+01 -0.19895463508E+02  0.50271265653E+02  0.00000000000E+00 0. -1.
         -5    1    3    3    0  503  0.56710341172E+02 -0.58501430070E+02  0.84588404261E+02  0.11754049622E+03  0.47000000000E+01 0.  1.
         11    1    4    4    0    0  0.17764065177E+02 -0.20107297126E+02  0.95375803103E+02  0.99077793813E+02  0.00000000000E+00 0. -1.
        -12    1    4    4    0    0 -0.77115683943E+02 -0.41889691220E+02  0.17542280305E+03  0.19614977637E+03  0.00000000000E+00 0.  1.
</event>
<event>
12    1  0.1032880E+000  0.1939461E+03  0.7818608E-02  0.1155173E+00
         21   -1    0    0  501  502  0.00000000000E+00  0.00000000000E+00  0.12808105837E+03  0.12808105837E+03  0.00000000000E+00 0. -1.
         21   -1    0    0  502  503 -0.00000000000E+00 -0.00000000000E+00 -0.35617626019E+03  0.35617626019E+03  0.00000000000E+00 0. -1.
         -6    2    1    2    0  503  0.20725082279E+02  0.86414402996E+02 -0.11634961636E+02  0.19429483062E+03  0.17238947413E+03 0.  0.
        -24    2    3    3    0    0  0.80517030197E+02  0.57098905250E+02 -0.10241718266E+01  0.12669931077E+03  0.79425369298E+02 0.  0.
          6    2    1    2  501    0 -0.20725082279E+02 -0.86414402996E+02 -0.21646024019E+03  0.28996248794E+03  0.17124903138E+03 0.  0.
         24    2    5    5    0    0 -0.16118420635E+02 -0.12155439769E+02 -0.19734029585E+03  0.21299965780E+03  0.77576437528E+02 0.  0.
          5    1    5    5  501    0 -0.46066616438E+01 -0.74258963226E+02 -0.19119944339E+02  0.76962830136E+02  0.47000000000E+01 0. -1.
        -11    1    6    6    0    0  0.24623096483E+01 -0.42954012704E+02 -0.89197054538E+02  0.99031432962E+02  0.00000000000E+00 0.  1.
         12    1    6    6    0    0 -0.18580730283E+02  0.30798572935E+02 -0.10814324131E+03  0.11396822484E+03  0.00000000000E+00 0. -1.
         -5    1    3    3    0  503 -0.59791947918E+02  0.29315497746E+02 -0.10610789810E+02  0.67595519853E+02  0.47000000000E+01 0.  1.
         11    1    4    4    0    0  0.57127491877E+01  0.29993926680E+01  0.28932667717E+02  0.29643399280E+02  0.00000000000E+00 0. -1.
        -12    1    4    4    0    0  0.74804281009E+02  0.54099512582E+02 -0.29956839543E+02  0.97055911486E+02  0.00000000000E+00 0.  1.
</event>
<event>
12    1  0.1032880E+000  0.1922005E+03  0.7818608E-02  0.1156878E+00
         21   -1    0    0  503  502  0.00000000000E+00  0.00000000000E+00  0.13444080608E+03  0.13444080608E+03  0.00000000000E+00 0.  1.
         21   -1    0    0  501  503 -0.00000000000E+00 -0.00000000000E+00 -0.32220189862E+03  0.32220189862E+03  0.00000000000E+00 0.  1.
          6    2    1    2  501    0  0.25724010221E+02  0.72391478292E+02 -0.18337204429E+03  0.26439208079E+03  0.17428601471E+03 0.  0.
         24    2    3    3    0    0  0.63620135290E+02  0.12274869751E+01 -0.55015335668E+02  0.11274128256E+03  0.75065846398E+02 0.  0.
         -6    2    1    2    0  502 -0.25724010221E+02 -0.72391478292E+02 -0.43890482544E+01  0.19225062391E+03  0.17617828419E+03 0.  0.
        -24    2    5    5    0    0 -0.47512778112E+02  0.21942951138E+02  0.13416336091E+01  0.95149307255E+02  0.79452083055E+02 0.  0.
          5    1    3    3  501    0 -0.37896125069E+02  0.71163991317E+02 -0.12835670862E+03  0.15165079823E+03  0.47000000000E+01 0. -1.
        -13    1    4    4    0    0  0.38923406077E+02  0.34640060632E+02 -0.47522409440E+02  0.70521945096E+02  0.00000000000E+00 0.  1.
         14    1    4    4    0    0  0.24696729213E+02 -0.33412573657E+02 -0.74929262281E+01  0.42219337461E+02  0.00000000000E+00 0. -1.
         -5    1    5    5    0  502  0.21788767891E+02 -0.94334429431E+02 -0.57306818634E+01  0.97101316659E+02  0.47000000000E+01 0.  1.
         13    1    6    6    0    0 -0.10562097915E+02 -0.27581621572E+02 -0.12094301835E+02  0.31915135873E+02  0.00000000000E+00 0. -1.
        -14    1    6    6    0    0 -0.36950680197E+02  0.49524572710E+02  0.13435935444E+02  0.63234171382E+02  0.00000000000E+00 0.  1.
</event>
<event>
12    1  0.1032880E+000  0.1801361E+03  0.7818608E-02  0.1168451E+00
         21   -1    0    0  501  502  0.00000000000E+00  0.00000000000E+00  0.18283141565E+03  0.18283141565E+03  0.00000000000E+00 0.  1.
         21   -1    0    0  502  503 -0.00000000000E+00 -0.00000000000E+00 -0.34641812745E+03  0.34641812745E+03  0.00000000000E+00 0.  1.
         -6    2    1    2    0  503  0.41629426168E+02 -0.33027030836E+02  0.10433627860E+03  0.20817075684E+03  0.17211975796E+03 0.  0.
        -24    2    3    3    0    0  0.77824125120E+02 -0.27868779606E+02  0.69417104448E+01  0.10403404048E+03  0.62782409211E+02 0.  0.
          6    2    1    2  501    0 -0.41629426168E+02  0.33027030836E+02 -0.26792299040E+03  0.32107878626E+03  0.16877518868E+03 0.  0.
         24    2    5    5    0    0 -0.90735051134E+01 -0.26822808237E+01 -0.25332814069E+03  0.27038221268E+03  0.94031223237E+02 0.  0.
          5    1    5    5  501    0 -0.32555921054E+02  0.35709311660E+02 -0.14594849708E+02  0.50696573582E+02  0.47000000000E+01 0. -1.
        -11    1    6    6    0    0 -0.83751925991E+01 -0.13410641204E+02  0.98521300357E+00  0.15841710553E+02  0.00000000000E+00 0.  1.
         12    1    6    6    0    0 -0.69831251434E+00  0.10728360380E+02 -0.25431335369E+03  0.25454050213E+03  0.00000000000E+00 0. -1.
         -5    1    3    3    0  503 -0.36194698952E+02 -0.51582512301E+01  0.97394568157E+02  0.10413671636E+03  0.47000000000E+01 0.  1.
         13    1    4    4    0    0  0.44386717531E+02  0.86074432402E+01  0.24627039285E+02  0.51485530358E+02  0.00000000000E+00 0. -1.
        -14    1    4    4    0    0  0.33437407589E+02 -0.36476222846E+02 -0.17685328840E+02  0.52548510118E+02  0.00000000000E+00 0.  1.
</event>
<event>
12    1  0.1032880E+000  0.3300022E+03  0.7818608E-02  0.1071246E+00
         21   -1    0    0  501  502  0.00000000000E+00  0.00000000000E+00  0.79963996477E+03  0.79963996477E+03  0.00000000000E+00 0. -1.
         21   -1    0    0  502  503 -0.00000000000E+00 -0.00000000000E+00 -0.13872286013E+03  0.13872286013E+03  0.00000000000E+00 0.  1.
         -6    2    1    2    0  503 -0.23685292396E+03 -0.15364463724E+03  0.26258026896E+03  0.42172245889E+03  0.17086676841E+03 0.  0.
        -24    2    3    3    0    0 -0.25139564500E+03 -0.12085835574E+03  0.23765363798E+03  0.37779231067E+03  0.91876361930E+02 0.  0.
          6    2    1    2  501    0  0.23685292396E+03  0.15364463724E+03  0.39833683568E+03  0.51664036601E+03  0.16893504964E+03 0.  0.
         24    2    5    5    0    0  0.20054761270E+03  0.11193561897E+03  0.21378169245E+03  0.32392189590E+03  0.80460268848E+02 0.  0.
          5    1    5    5  501    0  0.36305311257E+02  0.41709018272E+02  0.18455514323E+03  0.19271847011E+03  0.47000000000E+01 0. -1.
        -11    1    6    6    0    0  0.88497616791E+02  0.13317545413E+02  0.11150044135E+03  0.14297389137E+03  0.00000000000E+00 0.  1.
         12    1    6    6    0    0  0.11204999591E+03  0.98618073559E+02  0.10228125110E+03  0.18094800453E+03  0.00000000000E+00 0. -1.
         -5    1    3    3    0  503  0.14542721045E+02 -0.32786281507E+02  0.24926630981E+02  0.43930148219E+02  0.47000000000E+01 0.  1.
         13    1    4    4    0    0 -0.76556129984E+02  0.68453515632E+01  0.54785897882E+02  0.94388529403E+02  0.00000000000E+00 0. -1.
        -14    1    4    4    0    0 -0.17483951502E+03 -0.12770370730E+03  0.18286774009E+03  0.28340378127E+03  0.00000000000E+00 0.  1.
</event>
<event>
12    1  0.1032880E+000  0.1899103E+03  0.7818608E-02  0.1158738E+00
         21   -1    0    0  501  502  0.00000000000E+00  0.00000000000E+00  0.16711382930E+04  0.16711382930E+04  0.00000000000E+00 0.  1.
         21   -1    0    0  502  503 -0.00000000000E+00 -0.00000000000E+00 -0.24454199285E+02  0.24454199285E+02  0.00000000000E+00 0.  1.
         -6    2    1    2    0  503  0.29918244888E+01  0.81123961966E+02  0.11204770665E+04  0.11364571226E+04  0.17168542975E+03 0.  0.
        -24    2    3    3    0    0 -0.32986498971E+02  0.11182433093E+03  0.92146601079E+03  0.93184910052E+03  0.75168790050E+02 0.  0.
          6    2    1    2  501    0 -0.29918244888E+01 -0.81123961966E+02  0.52620702727E+03  0.55913536971E+03  0.17072925320E+03 0.  0.
         24    2    5    5    0    0 -0.36268134222E+02 -0.66399264033E+02  0.18164928285E+03  0.21262958512E+03  0.80564500150E+02 0.  0.
          5    1    5    5  501    0  0.33276309733E+02 -0.14724697934E+02  0.34455774442E+03  0.34650578459E+03  0.47000000000E+01 0. -1.
        -13    1    6    6    0    0 -0.50463137543E+02 -0.24277717369E+02  0.55351253644E+02  0.78738155245E+02  0.00000000000E+00 0.  1.
         14    1    6    6    0    0  0.14195003322E+02 -0.42121546663E+02  0.12629802921E+03  0.13389142988E+03  0.00000000000E+00 0. -1.
         -5    1    3    3    0  503  0.35978323460E+02 -0.30700368965E+02  0.19901105567E+03  0.20460802207E+03  0.47000000000E+01 0.  1.
         11    1    4    4    0    0 -0.49537453373E+02  0.40183614965E+02  0.36270835847E+03  0.36827440245E+03  0.00000000000E+00 0. -1.
        -12    1    4    4    0    0  0.16550954401E+02  0.71640715966E+02  0.55875765232E+03  0.56357469807E+03  0.00000000000E+00 0.  1.
</event>
<event>
12    1  0.1032880E+000  0.3560532E+03  0.7818608E-02  0.1060186E+00
         21   -1    0    0  503  502  0.00000000000E+00  0.00000000000E+00  0.12502644906E+03  0.12502644906E+03  0.00000000000E+00 0. -1.
         21   -1    0    0  501  503 -0.00000000000E+00 -0.00000000000E+00 -0.11971963195E+04  0.11971963195E+04  0.00000000000E+00 0.  1.
          6    2    1    2  501    0  0.26513122128E+03  0.16427887564E+03 -0.27671164917E+03  0.45071393027E+03  0.17114787956E+03 0.  0.
         24    2    3    3    0    0  0.18324808674E+03  0.15905684351E+03 -0.14067364673E+03  0.29177826578E+03  0.80414804219E+02 0.  0.
         -6    2    1    2    0  502 -0.26513122128E+03 -0.16427887564E+03 -0.79545822128E+03  0.87150883830E+03  0.17173165098E+03 0.  0.
        -24    2    5    5    0    0 -0.64428516171E+02 -0.97494073708E+02 -0.26146148499E+03  0.29712535144E+03  0.79153257863E+02 0.  0.
          5    1    3    3  501    0  0.81883134538E+02  0.52220321363E+01 -0.13603800243E+03  0.15893566449E+03  0.47000000000E+01 0. -1.
        -13    1    4    4    0    0  0.11447178785E+03  0.77018928007E+02 -0.11976950098E+03  0.18270314406E+03  0.00000000000E+00 0.  1.
         14    1    4    4    0    0  0.68776298889E+02  0.82037915500E+02 -0.20904145752E+02  0.10907512172E+03  0.00000000000E+00 0. -1.
         -5    1    5    5    0  502 -0.20070270511E+03 -0.66784801935E+02 -0.53399673629E+03  0.57438348686E+03  0.47000000000E+01 0.  1.
         13    1    6    6    0    0  0.30146978837E+01 -0.41077681067E+00  0.48679233102E+01  0.57405416358E+01  0.00000000000E+00 0. -1.
        -14    1    6    6    0    0 -0.67443214054E+02 -0.97083296897E+02 -0.26632940830E+03  0.29138480980E+03  0.00000000000E+00 0.  1.
</event>
<event>
12    1  0.1032880E+000  0.1763018E+03  0.7818608E-02  0.1172074E+00
         21   -1    0    0  503  502  0.00000000000E+00  0.00000000000E+00  0.48135860853E+03  0.48135860853E+03  0.00000000000E+00 0.  1.
         21   -1    0    0  501  503 -0.00000000000E+00 -0.00000000000E+00 -0.92260217544E+02  0.92260217544E+02  0.00000000000E+00 0.  1.
          6    2    1    2  501    0  0.50407779941E+01 -0.49237165445E+01  0.35528784607E+03  0.39662549135E+03  0.17616093322E+03 0.  0.
         24    2    3    3    0    0 -0.85942156234E+01  0.47253636563E+02  0.97564329396E+02  0.13327802074E+03  0.77054952673E+02 0.  0.
         -6    2    1    2    0  502 -0.50407779941E+01  0.49237165445E+01  0.33810544912E+02  0.17699333472E+03  0.17359099966E+03 0.  0.
        -24    2    5    5    0    0 -0.44154013384E+02 -0.24639232782E+02  0.64810329774E+02  0.11879634324E+03  0.85764349428E+02 0.  0.
          5    1    3    3  501    0  0.13634993618E+02 -0.52177353107E+02  0.25772351668E+03  0.26334747061E+03  0.47000000000E+01 0. -1.
        -11    1    4    4    0    0  0.13089146917E+01  0.29871506164E+02 -0.36349893489E+01  0.30120313507E+02  0.00000000000E+00 0.  1.
         12    1    4    4    0    0 -0.99031303151E+01  0.17382130398E+02  0.10119931874E+03  0.10315770723E+03  0.00000000000E+00 0. -1.
         -5    1    5    5    0  502  0.39113235390E+02  0.29562949327E+02 -0.30999784862E+02  0.58196991478E+02  0.47000000000E+01 0.  1.
         13    1    6    6    0    0 -0.18556352470E+02  0.23424568741E+02 -0.49577402369E+01  0.30292372405E+02  0.00000000000E+00 0. -1.
        -14    1    6    6    0    0 -0.25597660914E+02 -0.48063801524E+02  0.69768070011E+02  0.88503970839E+02  0.00000000000E+00 0.  1.
</event>
<event>
12    1  0.1032880E+000  0.5329398E+03  0.7818608E-02  0.1005533E+00
         21   -1    0    0  503  502  0.00000000000E+00  0.00000000000E+00  0.75896590034E+03  0.75896590034E+03  0.00000000000E+00 0.  1.
         21   -1    0    0  501  503 -0.00000000000E+00 -0.00000000000E+00 -0.39308071830E+03  0.39308071830E+03  0.00000000000E+00 0.  1.
          6    2    1    2  501    0 -0.13026595286E+03  0.48747877318E+03  0.56309775660E+02  0.53571734559E+03  0.17093130420E+03 0.  0.
         24    2    3    3    0    0 -0.13147242647E+03  0.24426335412E+03  0.13835221466E+02  0.28877327621E+03  0.79050658539E+02 0.  0.
         -6    2    1    2    0  502  0.13026595286E+03 -0.48747877318E+03  0.30957540638E+03  0.61632927306E+03  0.17152279098E+03 0.  0.
        -24    2    5    5    0    0  0.70735182582E+02 -0.25734040824E+03  0.87318166866E+02  0.29086352964E+03  0.75825977344E+02 0.  0.
          5    1    3    3  501    0  0.12064736035E+01  0.24321541905E+03  0.42474554194E+02  0.24694406937E+03  0.47000000000E+01 0. -1.
        -13    1    4    4    0    0 -0.12441216007E+03  0.17943757115E+03  0.32948336417E+02  0.22082078794E+03  0.00000000000E+00 0.  1.
         14    1    4    4    0    0 -0.70602663915E+01  0.64825782973E+02 -0.19113114951E+02  0.67952488275E+02  0.00000000000E+00 0. -1.
         -5    1    5    5    0  502  0.59530770279E+02 -0.23013836493E+03  0.22225723951E+03  0.32546574342E+03  0.47000000000E+01 0.  1.
         13    1    6    6    0    0  0.59038530432E+02 -0.14581796988E+03  0.16361334595E+02  0.15816485604E+03  0.00000000000E+00 0. -1.
        -14    1    6    6    0    0  0.11696652150E+02 -0.11152243836E+03  0.70956832271E+02  0.13269867360E+03  0.00000000000E+00 0.  1.
</event>
<event>
12    1  0.1032880E+000  0.3410417E+03  0.7818608E-02  0.1066398E+00
         21   -1    0    0  503  502  0.00000000000E+00  0.00000000000E+00  0.18447635537E+03  0.18447635537E+03  0.00000000000E+00 0.  1.
         21   -1    0    0  501  503 -0.00000000000E+00 -0.00000000000E+00 -0.10822910093E+04  0.10822910093E+04  0.00000000000E+00 0.  1.
          6    2    1    2  501    0  0.27112025845E+03 -0.11471406936E+03 -0.39483687016E+02  0.34331970927E+03  0.17217418210E+03 0.  0.
         24    2    3    3    0    0  0.23425498675E+03 -0.34092447217E+02 -0.77312516851E+01  0.24903714797E+03  0.76954759732E+02 0.  0.
         -6    2    1    2    0  502 -0.27112025845E+03  0.11471406936E+03 -0.85833096690E+03  0.92344765540E+03  0.17134179661E+03 0.  0.
        -24    2    5    5    0    0 -0.27127871281E+03  0.13736669442E+03 -0.82484044434E+03  0.88274296732E+03  0.80072710570E+02 0.  0.
          5    1    3    3  501    0  0.36865271702E+02 -0.80621622143E+02 -0.31752435331E+02  0.94282561293E+02  0.47000000000E+01 0. -1.
        -13    1    4    4    0    0  0.16350078034E+01  0.95691799536E+01  0.68892444923E+01  0.11903955022E+02  0.00000000000E+00 0.  1.
         14    1    4    4    0    0  0.23261997894E+03 -0.43661627171E+02 -0.14620496177E+02  0.23713319295E+03  0.00000000000E+00 0. -1.
         -5    1    5    5    0  502  0.15845435940E+00 -0.22652625060E+02 -0.33490522567E+02  0.40704688080E+02  0.47000000000E+01 0.  1.
         13    1    6    6    0    0 -0.32479375658E+02  0.48698087252E+02 -0.12625139711E+03  0.13916116131E+03  0.00000000000E+00 0. -1.
        -14    1    6    6    0    0 -0.23879933715E+03  0.88668607169E+02 -0.69858904723E+03  0.74358180601E+03  0.00000000000E+00 0.  1.
</event>
<event>
12    1  0.1032880E+000  0.2767998E+03  0.7818608E-02  0.1097700E+00
         21   -1    0    0  501  502  0.00000000000E+00  0.00000000000E+00  0.67212544759E+03  0.67212544759E+03  0.00000000000E+00 0. -1.
         21   -1    0    0  502  503 -0.00000000000E+00 -0.00000000000E+00 -0.13554973378E+03  0.13554973378E+03  0.00000000000E+00 0. -1.
         -6    2    1    2    0  503  0.21650193206E+03 -0.90794402174E+01  0.43133957741E+03  0.51154549484E+03  0.16932052278E+03 0.  0.
        -24    2    3    3    0    0  0.85270803567E+02 -0.42994237901E+02  0.28704724790E+03  0.31351976686E+03  0.82334119604E+02 0.  0.
          6    2    1    2  501    0 -0.21650193206E+03  0.90794402174E+01  0.10523613640E+03  0.29612968653E+03  0.17222840654E+03 0.  0.
         24    2    5    5    0    0 -0.11685746332E+03  0.62365883736E+02  0.98831188226E+02  0.18285312861E+03  0.78246358941E+02 0.  0.
          5    1    5    5  501    0 -0.99644468743E+02 -0.53286443518E+02  0.64049481713E+01  0.11327655792E+03  0.47000000000E+01 0. -1.
        -13    1    6    6    0    0 -0.10617829419E+03  0.19230265012E+02  0.58003814184E+02  0.12250745165E+03  0.00000000000E+00 0.  1.
         14    1    6    6    0    0 -0.10679169124E+02  0.43135618724E+02  0.40827374042E+02  0.60345676954E+02  0.00000000000E+00 0. -1.
         -5    1    3    3    0  503  0.13123112849E+03  0.33914797684E+02  0.14429232951E+03  0.19802572798E+03  0.47000000000E+01 0.  1.
         11    1    4    4    0    0 -0.12916441323E+02 -0.19722655845E+02  0.76320405057E+02  0.79878794671E+02  0.00000000000E+00 0. -1.
        -12    1    4    4    0    0  0.98187244890E+02 -0.23271582056E+02  0.21072684284E+03  0.23364097219E+03  0.00000000000E+00 0.  1.
</event>
<event>
12    1  0.1032880E+000  0.2744662E+03  0.7818608E-02  0.1099036E+00
         21   -1    0    0  501  502  0.00000000000E+00  0.00000000000E+00  0.25540697726E+04  0.25540697726E+04  0.00000000000E+00 0.  1.
         21   -1    0    0  502  503 -0.00000000000E+00 -0.00000000000E+00 -0.12452964068E+03  0.12452964068E+03  0.00000000000E+00 0.  1.
         -6    2    1    2    0  503  0.13176706792E+03 -0.16871133495E+03  0.44500384647E+02  0.27805028271E+03  0.17177194403E+03 0.  0.
        -24    2    3    3    0    0  0.22857027320E+02 -0.12165878683E+03 -0.90081994229E+01  0.14781742282E+03  0.80284112496E+02 0.  0.
          6    2    1    2  501    0 -0.13176706792E+03  0.16871133495E+03  0.23850397473E+04  0.24005491305E+04  0.16850951729E+03 0.  0.
         24    2    5    5    0    0 -0.48057637770E+02  0.15968753611E+03  0.16274500254E+04  0.16382808219E+04  0.86952979287E+02 0.  0.
          5    1    5    5  501    0 -0.83709430153E+02  0.90237988301E+01  0.75758972186E+03  0.76226830861E+03  0.47000000000E+01 0. -1.
        -11    1    6    6    0    0  0.14703591221E+02  0.21912360923E+02  0.10281649209E+03  0.10614884927E+03  0.00000000000E+00 0.  1.
         12    1    6    6    0    0 -0.62761228991E+02  0.13777517519E+03  0.15246335333E+04  0.15321319727E+04  0.00000000000E+00 0. -1.
         -5    1    3    3    0  503  0.10891004060E+03 -0.47052548110E+02  0.53508584070E+02  0.13023285990E+03  0.47000000000E+01 0.  1.
         13    1    4    4    0    0  0.11084851986E+02 -0.11949342278E+02 -0.31262552072E+02  0.35256316973E+02  0.00000000000E+00 0. -1.
        -14    1    4    4    0    0  0.11772175334E+02 -0.10970944456E+03  0.22254352649E+02  0.11256110584E+03  0.00000000000E+00 0.  1.
</event>
<event>
12    1  0.1032880E+000  0.2106985E+03  0.7818608E-02  0.1141370E+00
         21   -1    0    0  503  502  0.00000000000E+00  0.00000000000E+00  0.30067301756E+04  0.30067301756E+04  0.00000000000E+00 0.  1.
         21   -1    0    0  501  503 -0.00000000000E+00 -0.00000000000E+00 -0.16789815218E+02  0.16789815218E+02  0.00000000000E+00 0.  1.
          6    2    1    2  501    0  0.89879202702E+02 -0.78552819829E+02  0.94830825467E+03  0.97104452937E+03  0.17143545595E+03 0.  0.
         24    2    3    3    0    0  0.61459239988E+02  0.22145857995E+02  0.41849922762E+03  0.43098192823E+03  0.79599885312E+02 0.  0.
         -6    2    1    2    0  502 -0.89879202702E+02  0.78552819829E+02  0.20416321057E+04  0.20524754614E+04  0.17362329396E+03 0.  0.
        -24    2    5    5    0    0 -0.70736374206E+02 -0.83925773504E+01  0.71164380709E+03  0.71950250057E+03  0.78567615241E+02 0.  0.
          5    1    3    3  501    0  0.28419962714E+02 -0.10069867782E+03  0.52980902705E+03  0.54006260113E+03  0.47000000000E+01 0. -1.
        -13    1    4    4    0    0  0.37991866853E+02  0.45357285420E+01  0.59209590877E+02  0.70496315026E+02  0.00000000000E+00 0.  1.
         14    1    4    4    0    0  0.23467373136E+02  0.17610129453E+02  0.35928963674E+03  0.36048561321E+03  0.00000000000E+00 0. -1.
         -5    1    5    5    0  502 -0.19142828496E+02  0.86945397180E+02  0.13299882986E+04  0.13329729609E+04  0.47000000000E+01 0.  1.
         13    1    6    6    0    0 -0.15775630571E+02 -0.25245717032E+02  0.81940767311E+02  0.87180881481E+02  0.00000000000E+00 0. -1.
        -14    1    6    6    0    0 -0.54960743635E+02  0.16853139682E+02  0.62970303978E+03  0.63232161909E+03  0.00000000000E+00 0.  1.
</event>
<event>
12    1  0.1032880E+000  0.3341668E+03  0.7818608E-02  0.1069318E+00
         21   -1    0    0  503  502  0.00000000000E+00  0.00000000000E+00  0.80141138299E+03  0.80141138299E+03  0.00000000000E+00 0. -1.
         21   -1    0    0  501  503 -0.00000000000E+00 -0.00000000000E+00 -0.15197439628E+03  0.15197439628E+03  0.00000000000E+00 0. -1.
          6    2    1    2  501    0  0.95714482692E+02  0.27004895833E+03  0.18701376430E+03  0.38285734476E+03  0.17180773064E+03 0.  0.
         24    2    3    3    0    0  0.18852809441E+02  0.44327917138E+02  0.76551021554E+02  0.12002315218E+03  0.78899337752E+02 0.  0.
         -6    2    1    2    0  502 -0.95714482692E+02 -0.27004895833E+03  0.46242322242E+03  0.57052843452E+03  0.17198766198E+03 0.  0.
        -24    2    5    5    0    0 -0.51964545166E+02 -0.16944432041E+03  0.39857044497E+03  0.44350632073E+03  0.80173344991E+02 0.  0.
          5    1    3    3  501    0  0.76861673251E+02  0.22572104119E+03  0.11046274274E+03  0.26283419257E+03  0.47000000000E+01 0. -1.
        -13    1    4    4    0    0  0.76439570048E+01  0.65352150829E+02  0.42021220840E+02  0.78071228360E+02  0.00000000000E+00 0.  1.
         14    1    4    4    0    0  0.11208852436E+02 -0.21024233691E+02  0.34529800714E+02  0.41951923825E+02  0.00000000000E+00 0. -1.
         -5    1    5    5    0  502 -0.43749937526E+02 -0.10060463792E+03  0.63852777444E+02  0.12702211379E+03  0.47000000000E+01 0.  1.
         13    1    6    6    0    0  0.20940162265E+02 -0.24154874048E+02  0.65963434322E+02  0.73301589366E+02  0.00000000000E+00 0. -1.
        -14    1    6    6    0    0 -0.72904707431E+02 -0.14528944636E+03  0.33260701065E+03  0.37020473136E+03  0.00000000000E+00 0.  1.
</event>
<event>
12    1  0.1032880E+000  0.2153062E+03  0.7818608E-02  0.1137483E+00
         21   -1    0    0  503  502  0.00000000000E+00  0.00000000000E+00  0.77436471913E+02  0.77436471913E+02  0.00000000000E+00 0.  1.
         21   -1    0    0  501  503 -0.00000000000E+00 -0.00000000000E+00 -0.11467753911E+04  0.11467753911E+04  0.00000000000E+00 0.  1.
          6    2    1    2  501    0 -0.31488345169E+02 -0.12522366952E+03 -0.11137007740E+03  0.24240470064E+03  0.17229121122E+03 0.  0.
         24    2    3    3    0    0  0.49705199709E+01  0.15560869490E+01 -0.26773345687E+02  0.85621243242E+02  0.81160691099E+02 0.  0.
         -6    2    1    2    0  502  0.31488345169E+02  0.12522366952E+03 -0.95796884176E+03  0.98180716234E+03  0.17195499108E+03 0.  0.
        -24    2    5    5    0    0 -0.14438686073E+02  0.12562660166E+03 -0.86419689814E+03  0.87728576758E+03  0.82483456190E+02 0.  0.
          5    1    3    3  501    0 -0.36458865140E+02 -0.12677975647E+03 -0.84596731715E+02  0.15678345740E+03  0.47000000000E+01 0. -1.
        -11    1    4    4    0    0  0.19412701200E+02  0.55949870729E+01 -0.52271619648E+02  0.56039977417E+02  0.00000000000E+00 0.  1.
         12    1    4    4    0    0 -0.14442181229E+02 -0.40389001240E+01  0.25498273961E+02  0.29581265825E+02  0.00000000000E+00 0. -1.
         -5    1    5    5    0  502  0.45927031242E+02 -0.40293213717E+00 -0.93771943626E+02  0.10452139477E+03  0.47000000000E+01 0.  1.
         11    1    6    6    0    0  0.46224448247E+01  0.38789209702E+02 -0.53090013678E+03  0.53233535015E+03  0.00000000000E+00 0. -1.
        -12    1    6    6    0    0 -0.19061130898E+02  0.86837391957E+02 -0.33329676135E+03  0.34495041742E+03  0.00000000000E+00 0.  1.
</event>
<event>
12    1  0.1032880E+000  0.1723294E+03  0.7818608E-02  0.1175464E+00
         21   -1    0    0  503  502  0.00000000000E+00  0.00000000000E+00  0.10195239407E+04  0.10195239407E+04  0.00000000000E+00 0. -1.
         21   -1    0    0  501  503 -0.00000000000E+00 -0.00000000000E+00 -0.29287771819E+02  0.29287771819E+02  0.00000000000E+00 0. -1.
          6    2    1    2  501    0  0.38036582651E+01  0.12137776541E+02  0.53546187659E+03  0.56248150534E+03  0.17176795141E+03 0.  0.
         24    2    3    3    0    0 -0.37559867107E+02 -0.30489311813E+02  0.18597706280E+03  0.20795402409E+03  0.79479975430E+02 0.  0.
         -6    2    1    2    0  502 -0.38036582651E+01 -0.12137776541E+02  0.45477429233E+03  0.48633020722E+03  0.17185930308E+03 0.  0.
        -24    2    5    5    0    0 -0.51690069538E+02  0.20718919107E+02  0.37455105660E+03  0.38718118612E+03  0.80744287662E+02 0.  0.
          5    1    3    3  501    0  0.41363525372E+02  0.42627088354E+02  0.34948481378E+03  0.35452748125E+03  0.47000000000E+01 0. -1.
        -11    1    4    4    0    0 -0.24271346768E+02 -0.15549197738E+02  0.95032081064E+01  0.30351059101E+02  0.00000000000E+00 0.  1.
         12    1    4    4    0    0 -0.13288520339E+02 -0.14940114075E+02  0.17647385470E+03  0.17760296499E+03  0.00000000000E+00 0. -1.
         -5    1    5    5    0  502  0.47886411273E+02 -0.32856695648E+02  0.80223235731E+02  0.99149021098E+02  0.47000000000E+01 0.  1.
         11    1    6    6    0    0  0.83243163693E+01  0.33892822696E+02  0.10252710394E+03  0.10830431531E+03  0.00000000000E+00 0. -1.
        -12    1    6    6    0    0 -0.60014385907E+02 -0.13173903589E+02  0.27202395266E+03  0.27887687081E+03  0.00000000000E+00 0.  1.
</event>
<event>
12    1  0.1032880E+000  0.2115379E+03  0.7818608E-02  0.1140543E+00
         21   -1    0    0  501  502  0.00000000000E+00  0.00000000000E+00  0.33252884646E+03  0.33252884646E+03  0.00000000000E+00 0. -1.
         21   -1    0    0  502  503 -0.00000000000E+00 -0.00000000000E+00 -0.14985124209E+03  0.14985124209E+03  0.00000000000E+00 0. -1.
         -6    2    1    2    0  503 -0.12237467224E+03  0.14752351064E+02  0.17007150609E+03  0.27142698308E+03  0.17191596114E+03 0.  0.
        -24    2    3    3    0    0 -0.91568288887E+02  0.88504359017E+01  0.19581162952E+03  0.23057958644E+03  0.79760075752E+02 0.  0.
          6    2    1    2  501    0  0.12237467224E+03 -0.14752351064E+02  0.12606098279E+02  0.21095310546E+03  0.17073109477E+03 0.  0.
         24    2    5    5    0    0  0.10330795932E+03 -0.31037812586E+02 -0.48521155392E+02  0.14471575240E+03  0.83381450006E+02 0.  0.
          5    1    5    5  501    0  0.19066712928E+02  0.16285461522E+02  0.61127253671E+02  0.66237353059E+02  0.47000000000E+01 0. -1.
        -13    1    6    6    0    0  0.10258639980E+03  0.21211030712E+01 -0.30908062377E+02  0.10716238529E+03  0.00000000000E+00 0.  1.
         14    1    6    6    0    0  0.72155951599E+00 -0.33158915657E+02 -0.17613093015E+02  0.37553367109E+02  0.00000000000E+00 0. -1.
         -5    1    3    3    0  503 -0.30806383356E+02  0.59019151620E+01 -0.25740123429E+02  0.40847396640E+02  0.47000000000E+01 0.  1.
         11    1    4    4    0    0 -0.40093976227E+02  0.63044533203E+01  0.16166231354E+02  0.43687756838E+02  0.00000000000E+00 0. -1.
        -12    1    4    4    0    0 -0.51474312660E+02  0.25459825813E+01  0.17964539817E+03  0.18689182961E+03  0.00000000000E+00 0.  1.
</event>
<event>
12    1  0.1032880E+000  0.2801352E+03  0.7818608E-02  0.1095793E+00
         21   -1    0    0  503  502  0.00000000000E+00  0.00000000000E+00  0.20337232619E+03  0.20337232619E+03  0.00000000000E+00 0.  1.
         21   -1    0    0  501  503 -0.00000000000E+00 -0.00000000000E+00 -0.39841266086E+03  0.39841266086E+03  0.00000000000E+00 0.  1.
          6    2    1    2  501    0 -0.12872621963E+03 -0.17764220937E+03 -0.40669794883E+02  0.28307204880E+03  0.17420837645E+03 0.  0.
         24    2    3    3    0    0 -0.37215332632E+02 -0.13663350662E+02  0.55146913696E+01  0.89633672792E+02  0.80200469718E+02 0.  0.
         -6    2    1    2    0  502  0.12872621963E+03  0.17764220937E+03 -0.15437053978E+03  0.31871293826E+03  0.17210601177E+03 0.  0.
        -24    2    5    5    0    0  0.81684110729E+02  0.38278963434E+02 -0.27757305890E+02  0.12457876990E+03  0.81313153253E+02 0.  0.
          5    1    3    3  501    0 -0.91510887001E+02 -0.16397885871E+03 -0.46184486253E+02  0.19343837601E+03  0.47000000000E+01 0. -1.
        -13    1    4    4    0    0  0.20256351253E+02  0.12350387260E+02  0.11311225119E+02  0.26282991558E+02  0.00000000000E+00 0.  1.
         14    1    4    4    0    0 -0.57471683885E+02 -0.26013737922E+02 -0.57965337495E+01  0.63350681233E+02  0.00000000000E+00 0. -1.
         -5    1    5    5    0  502  0.47042108904E+02  0.13936324593E+03 -0.12661323389E+03  0.19413416836E+03  0.47000000000E+01 0.  1.
         11    1    6    6    0    0  0.90618885725E+02  0.93220952523E+01 -0.22307891914E+02  0.93788730408E+02  0.00000000000E+00 0. -1.
        -12    1    6    6    0    0 -0.89347749962E+01  0.28956868182E+02 -0.54494139762E+01  0.30790039490E+02  0.00000000000E+00 0.  1.
</event>
<event>
12    1  0.1032880E+000  0.2795464E+03  0.7818608E-02  0.1096365E+00
         21   -1    0    0  501  502  0.00000000000E+00  0.00000000000E+00  0.24180089367E+03  0.24180089367E+03  0.00000000000E+00 0. -1.
         21   -1    0    0  502  503 -0.00000000000E+00 -0.00000000000E+00 -0.34126831076E+03  0.34126831076E+03  0.00000000000E+00 0.  1.
         -6    2    1    2    0  503  0.78867845007E+02  0.20199722486E+03  0.23469338315E+02  0.28052980526E+03  0.17641753306E+03 0.  0.
        -24    2    3    3    0    0  0.10907552828E+03  0.11114427335E+03  0.48269035216E+02  0.18151527152E+03  0.79795824853E+02 0.  0.
          6    2    1    2  501    0 -0.78867845007E+02 -0.20199722486E+03 -0.12293675541E+03  0.30253939917E+03  0.17144569517E+03 0.  0.
         24    2    5    5    0    0 -0.97752919842E+02 -0.19162061671E+03 -0.14457032653E+03  0.27164568706E+03  0.81343136776E+02 0.  0.
          5    1    5    5  501    0  0.18885074834E+02 -0.10376608152E+02  0.21633571126E+02  0.30893712109E+02  0.47000000000E+01 0. -1.
        -13    1    6    6    0    0 -0.25162698309E+02 -0.96192083340E+02 -0.10684319450E+03  0.14595049330E+03  0.00000000000E+00 0.  1.
         14    1    6    6    0    0 -0.72590221533E+02 -0.95428533369E+02 -0.37727132026E+02  0.12569519376E+03  0.00000000000E+00 0. -1.
         -5    1    3    3    0  503 -0.30207683273E+02  0.90852951510E+02 -0.24799696901E+02  0.99014533747E+02  0.47000000000E+01 0.  1.
         11    1    4    4    0    0  0.87545117647E+02  0.36560392463E+02  0.11334060223E+02  0.95547217866E+02  0.00000000000E+00 0. -1.
        -12    1    4    4    0    0  0.21530410634E+02  0.74583880888E+02  0.36934974994E+02  0.85968053649E+02  0.00000000000E+00 0.  1.
</event>
<event>
12    1  0.1032880E+000  0.3005677E+03  0.7818608E-02  0.1085091E+00
         21   -1    0    0  503  502  0.00000000000E+00  0.00000000000E+00  0.27554777437E+03  0.27554777437E+03  0.00000000000E+00 0.  1.
         21   -1    0    0  501  503 -0.00000000000E+00 -0.00000000000E+00 -0.46872161096E+03  0.46872161096E+03  0.00000000000E+00 0.  1.
          6    2    1    2  501    0 -0.24219297288E+03  0.44562923744E+02 -0.30131742926E+03  0.42483866086E+03  0.17044765853E+03 0.  0.
         24    2    3    3    0    0 -0.19697197876E+03  0.12605528282E+02 -0.14389963338E+03  0.25789955252E+03  0.82753942158E+02 0.  0.
         -6    2    1    2    0  502  0.24219297288E+03 -0.44562923744E+02  0.10814359266E+03  0.31943072447E+03  0.17233009259E+03 0.  0.
        -24    2    5    5    0    0  0.91108885242E+02  0.36133646232E+02  0.35972153983E+02  0.13350293067E+03  0.83201966780E+02 0.  0.
          5    1    3    3  501    0 -0.45220994120E+02  0.31957395462E+02 -0.15741779588E+03  0.16693910834E+03  0.47000000000E+01 0. -1.
        -11    1    4    4    0    0 -0.32997933028E+02 -0.22126303370E+02 -0.55930794832E+02  0.68605325562E+02  0.00000000000E+00 0.  1.
         12    1    4    4    0    0 -0.16397404574E+03  0.34731831651E+02 -0.87968838549E+02  0.18929422696E+03  0.00000000000E+00 0. -1.
         -5    1    5    5    0  502  0.15108408764E+03 -0.80696569976E+02  0.72171438679E+02  0.18592779380E+03  0.47000000000E+01 0.  1.
         13    1    6    6    0    0  0.10000371371E+03  0.94698947470E+01  0.27574839393E+02  0.10416714180E+03  0.00000000000E+00 0. -1.
        -14    1    6    6    0    0 -0.88948284682E+01  0.26663751485E+02  0.83973145907E+01  0.29335788878E+02  0.00000000000E+00 0.  1.
</event>
<event>
12    1  0.1032880E+000  0.4757583E+03  0.7818608E-02  0.1020862E+00
         21   -1    0    0  501  502  0.00000000000E+00  0.00000000000E+00  0.11691546012E+03  0.11691546012E+03  0.00000000000E+00 0. -1.
         21   -1    0    0  502  503 -0.00000000000E+00 -0.00000000000E+00 -0.20518472463E+04  0.20518472463E+04  0.00000000000E+00 0. -1.
         -6    2    1    2    0  503  0.41331605310E+03  0.13646073658E+03 -0.12510931512E+04  0.13357073191E+04  0.17154671980E+03 0.  0.
        -24    2    3    3    0    0  0.33379646675E+03  0.55730546096E+02 -0.83130442551E+03  0.90086781717E+03  0.77264488296E+02 0.  0.
          6    2    1    2  501    0 -0.41331605310E+03 -0.13646073658E+03 -0.68383863498E+03  0.83305538726E+03  0.19207890871E+03 0.  0.
         24    2    5    5    0    0 -0.34454947226E+03 -0.71134536445E+02 -0.62194020000E+03  0.71969815847E+03  0.85914875433E+02 0.  0.
          5    1    5    5  501    0 -0.68766580848E+02 -0.65326200135E+02 -0.61898434973E+02  0.11335722878E+03  0.47000000000E+01 0. -1.
        -11    1    6    6    0    0 -0.28638765569E+03 -0.68752092524E+02 -0.57039367523E+03  0.64194523466E+03  0.00000000000E+00 0.  1.
         12    1    6    6    0    0 -0.58161816568E+02 -0.23824439207E+01 -0.51546524774E+02  0.77752923815E+02  0.00000000000E+00 0. -1.
         -5    1    3    3    0  503  0.79519586350E+02  0.80730190483E+02 -0.41978872566E+03  0.43483950196E+03  0.47000000000E+01 0.  1.
         13    1    4    4    0    0  0.16805601468E+03  0.48892140218E+02 -0.34154532399E+03  0.38377919926E+03  0.00000000000E+00 0. -1.
        -14    1    4    4    0    0  0.16574045207E+03  0.68384058779E+01 -0.48975910152E+03  0.51708861790E+03  0.00000000000E+00 0.  1.
</event>
<event>
12    1  0.1032880E+000  0.1962610E+03  0.7818608E-02  0.1153281E+00
         21   -1    0    0  501  502  0.00000000000E+00  0.00000000000E+00  0.15221252798E+04  0.15221252798E+04  0.00000000000E+00 0. -1.
         21   -1    0    0  502  503 -0.00000000000E+00 -0.00000000000E+00 -0.25751482609E+02  0.25751482609E+02  0.00000000000E+00 0. -1.
         -6    2    1    2    0  503 -0.92865236533E+02  0.11326147965E+02  0.86837664926E+03  0.88992630592E+03  0.17070029642E+03 0.  0.
        -24    2    3    3    0    0 -0.11239653141E+03 -0.10917747339E+02  0.45594763926E+03  0.47640963074E+03  0.79534326164E+02 0.  0.
          6    2    1    2  501    0  0.92865236533E+02 -0.11326147965E+02  0.62799714793E+03  0.65795045649E+03  0.17252869792E+03 0.  0.
         24    2    5    5    0    0 -0.20015884085E+02  0.30188659482E+01  0.26594287816E+03  0.27840690027E+03  0.79843838225E+02 0.  0.
          5    1    5    5  501    0  0.11288112062E+03 -0.14345013913E+02  0.36205426977E+03  0.37954355622E+03  0.47000000000E+01 0. -1.
        -13    1    6    6    0    0  0.29812093961E+02  0.24797189113E+01  0.68024031534E+02  0.74311363992E+02  0.00000000000E+00 0.  1.
         14    1    6    6    0    0 -0.49827978046E+02  0.53914703689E+00  0.19791884663E+03  0.20409553627E+03  0.00000000000E+00 0. -1.
         -5    1    3    3    0  503  0.19531294873E+02  0.22243895305E+02  0.41242901000E+03  0.41351667518E+03  0.47000000000E+01 0.  1.
         13    1    4    4    0    0  0.80302364488E+01  0.68154584306E+01  0.11500458885E+02  0.15594733906E+02  0.00000000000E+00 0. -1.
        -14    1    4    4    0    0 -0.12042676785E+03 -0.17733205770E+02  0.44444718037E+03  0.46081489683E+03  0.00000000000E+00 0.  1.
</event>
<event>
12    1  0.1032880E+000  0.1940212E+03  0.7818608E-02  0.1155813E+00
         21   -1    0    0  503  502  0.00000000000E+00  0.00000000000E+00  0.72462201090E+03  0.72462201090E+03  0.00000000000E+00 0. -1.
         21   -1    0    0  501  503 -0.00000000000E+00 -0.00000000000E+00 -0.67476760052E+02  0.67476760052E+02  0.00000000000E+00 0. -1.
          6    2    1    2  501    0 -0.20879924085E+02 -0.85221910049E+02  0.52254869732E+03  0.55596222739E+03  0.16833927656E+03 0.  0.
         24    2    3    3    0    0  0.28659012380E+02 -0.10500230832E+03  0.32772778076E+03  0.35391606952E+03  0.77487174673E+02 0.  0.
         -6    2    1    2    0  502  0.20879924085E+02  0.85221910049E+02  0.13459655353E+03  0.23613654356E+03  0.17304765182E+03 0.  0.
        -24    2    5    5    0    0  0.31402523741E+01  0.35094538993E+02  0.15526334830E+03  0.17889446387E+03  0.81578391903E+02 0.  0.
          5    1    3    3  501    0 -0.49538936465E+02  0.19780398271E+02  0.19482091656E+03  0.20204615787E+03  0.47000000000E+01 0. -1.
        -11    1    4    4    0    0  0.71160461490E+01 -0.27608922826E+02  0.17496115110E+02  0.33451528759E+02  0.00000000000E+00 0.  1.
         12    1    4    4    0    0  0.21542966231E+02 -0.77393385494E+02  0.31023166565E+03  0.32046454076E+03  0.00000000000E+00 0. -1.
         -5    1    5    5    0  502  0.17739671711E+02  0.50127371056E+02 -0.20666794771E+02  0.57242079692E+02  0.47000000000E+01 0.  1.
         11    1    6    6    0    0  0.30803394503E+02 -0.87886095484E+01  0.32555916976E+02  0.45672491731E+02  0.00000000000E+00 0. -1.
        -12    1    6    6    0    0 -0.27663142129E+02  0.43883148542E+02  0.12270743133E+03  0.13322197214E+03  0.00000000000E+00 0.  1.
</event>
<event>
12    1  0.1673260E+000  0.1915547E+03  0.7818608E-02  0.1159200E+00
         21   -1    0    0  501  502  0.00000000000E+00  0.00000000000E+00  0.17185250776E+03  0.17185250776E+03  0.00000000000E+00 0.  1.
         21   -1    0    0  502  503 -0.00000000000E+00 -0.00000000000E+00 -0.74901649606E+03  0.74901649606E+03  0.00000000000E+00 0.  1.
         -6    2    1    2    0  503  0.56873632749E+02 -0.18197160522E+02  0.10636133588E+03  0.21100982228E+03  0.17218206810E+03 0.  0.
        -24    2    3    3    0    0 -0.36070464797E+02 -0.16619849893E+02  0.51918276921E+02  0.10318018885E+03  0.79833239012E+02 0.  0.
          6    2    1    2  501    0 -0.56873632749E+02  0.18197160522E+02 -0.68352532417E+03  0.70985918154E+03  0.18200945603E+03 0.  0.
         24    2    5    5    0    0 -0.43386787325E+02 -0.30655537210E+02 -0.62262114612E+03  0.63048733528E+03  0.83874984806E+02 0.  0.
          5    1    5    5  501    0 -0.13486845424E+02  0.48852697732E+02 -0.60904178048E+02  0.79371846261E+02  0.47000000000E+01 0. -1.
        -11    1    6    6    0    0 -0.26400025177E+02 -0.33496169848E+02 -0.11630239802E+03  0.12387575433E+03  0.00000000000E+00 0.  1.
         12    1    6    6    0    0 -0.16986762148E+02  0.28406326382E+01 -0.50631874810E+03  0.50661158096E+03  0.00000000000E+00 0. -1.
         -5    1    3    3    0  503  0.92944097546E+02 -0.15773106285E+01  0.54443058956E+02  0.10782963343E+03  0.47000000000E+01 0.  1.
         11    1    4    4    0    0 -0.83645388129E+01 -0.16241188487E+02  0.68496524914E+02  0.70890871333E+02  0.00000000000E+00 0. -1.
        -12    1    4    4    0    0 -0.27705925985E+02 -0.37866140569E+00 -0.16578247993E+02  0.32289317516E+02  0.00000000000E+00 0.  1.
</event>
<event>
12    1  0.1032880E+000  0.1835827E+03  0.7818608E-02  0.1164526E+00
         21   -1    0    0  501  502  0.00000000000E+00  0.00000000000E+00  0.49402744805E+03  0.49402744805E+03  0.00000000000E+00 0. -1.
         21   -1    0    0  502  503 -0.00000000000E+00 -0.00000000000E+00 -0.70420794856E+02  0.70420794856E+02  0.00000000000E+00 0. -1.
         -6    2    1    2    0  503  0.12369152498E+02  0.60607767836E+02  0.26457957116E+03  0.32203253961E+03  0.17284764864E+03 0.  0.
        -24    2    3    3    0    0  0.45677444714E+02  0.69998006335E+02  0.99819099786E+02  0.15361127660E+03  0.81525589662E+02 0.  0.
          6    2    1    2  501    0 -0.12369152498E+02 -0.60607767836E+02  0.15902708204E+03  0.24241570329E+03  0.17219019405E+03 0.  0.
         24    2    5    5    0    0 -0.73101284530E+02 -0.45896494754E+02  0.12452052610E+03  0.17087825981E+03  0.79017290678E+02 0.  0.
          5    1    5    5  501    0  0.60732132032E+02 -0.14711273082E+02  0.34506555941E+02  0.71537443481E+02  0.47000000000E+01 0. -1.
        -13    1    6    6    0    0 -0.42648932918E+01 -0.29595344059E+02  0.27189446170E+01  0.30024429463E+02  0.00000000000E+00 0.  1.
         14    1    6    6    0    0 -0.68836391238E+02 -0.16301150695E+02  0.12180158148E+03  0.14085383035E+03  0.00000000000E+00 0. -1.
         -5    1    3    3    0  503 -0.33308292216E+02 -0.93902384990E+01  0.16476047137E+03  0.16842126301E+03  0.47000000000E+01 0.  1.
         13    1    4    4    0    0  0.17683304735E+02  0.64681562550E+02  0.10506324027E+03  0.12463822952E+03  0.00000000000E+00 0. -1.
        -14    1    4    4    0    0  0.27994139979E+02  0.53164437845E+01 -0.52441404889E+01  0.28973047081E+02  0.00000000000E+00 0.  1.
</event>
<event>
12    1  0.1032880E+000  0.1936620E+03  0.7818608E-02  0.1155233E+00
         21   -1    0    0  503  502  0.00000000000E+00  0.00000000000E+00  0.49630879099E+03  0.49630879099E+03  0.00000000000E+00 0.  1.
         21   -1    0    0  501  503 -0.00000000000E+00 -0.00000000000E+00 -0.77971213244E+02  0.77971213244E+02  0.00000000000E+00 0.  1.
          6    2    1    2  501    0 -0.82524817016E+02 -0.29820031586E+02  0.26029194629E+03  0.32443315529E+03  0.17264239121E+03 0.  0.
         24    2    3    3    0    0  0.95893337085E+01 -0.61159372438E+00  0.18495117527E+03  0.20180986475E+03  0.80174527799E+02 0.  0.
         -6    2    1    2    0  502  0.82524817016E+02  0.29820031586E+02  0.15804563145E+03  0.24984684894E+03  0.17246868294E+03 0.  0.
        -24    2    5    5    0    0  0.11756798027E+03  0.45101060248E+02  0.15056954720E+03  0.21061019562E+03  0.76348741530E+02 0.  0.
          5    1    3    3  501    0 -0.92114150725E+02 -0.29208437862E+02  0.75340771020E+02  0.12262329054E+03  0.47000000000E+01 0. -1.
        -11    1    4    4    0    0 -0.10705408029E+02  0.27033783367E+02  0.15019018313E+03  0.15297882962E+03  0.00000000000E+00 0.  1.
         12    1    4    4    0    0  0.20294741737E+02 -0.27645377092E+02  0.34760992139E+02  0.48831035123E+02  0.00000000000E+00 0. -1.
         -5    1    5    5    0  502 -0.35043163257E+02 -0.15281028661E+02  0.74760842490E+01  0.39236653319E+02  0.47000000000E+01 0.  1.
         11    1    6    6    0    0  0.63517124691E+02 -0.16149798696E+02  0.69222965700E+02  0.95326072547E+02  0.00000000000E+00 0. -1.
        -12    1    6    6    0    0  0.54050855582E+02  0.61250858944E+02  0.81346581503E+02  0.11528412307E+03  0.00000000000E+00 0.  1.
</event>
<event>
12    1  0.1032880E+000  0.1744450E+03  0.7818608E-02  0.1173912E+00
         21   -1    0    0  503  502  0.00000000000E+00  0.00000000000E+00  0.15090858968E+03  0.15090858968E+03  0.00000000000E+00 0.  1.
         21   -1    0    0  501  503 -0.00000000000E+00 -0.00000000000E+00 -0.21636260290E+03  0.21636260290E+03  0.00000000000E+00 0.  1.
          6    2    1    2  501    0 -0.15995035016E+02  0.15679644901E+02 -0.85206912207E+02  0.19414237674E+03  0.17300101777E+03 0.  0.
         24    2    3    3    0    0 -0.48928180198E+01 -0.12524678414E+02 -0.12084658359E+03  0.14712090024E+03  0.82824243331E+02 0.  0.
         -6    2    1    2    0  502  0.15995035016E+02 -0.15679644901E+02  0.19752898993E+02  0.17312881584E+03  0.17053362555E+03 0.  0.
        -24    2    5    5    0    0 -0.46192073912E+02 -0.26397007700E+02 -0.19318709531E+02  0.98759608669E+02  0.80930451986E+02 0.  0.
          5    1    3    3  501    0 -0.11102216996E+02  0.28204323315E+02  0.35639671388E+02  0.47021476503E+02  0.47000000000E+01 0. -1.
        -13    1    4    4    0    0 -0.31887303342E+02 -0.25128596295E+02 -0.27246533989E+02  0.48893967732E+02  0.00000000000E+00 0.  1.
         14    1    4    4    0    0  0.26994485322E+02  0.12603917881E+02 -0.93600049605E+02  0.98226932507E+02  0.00000000000E+00 0. -1.
         -5    1    5    5    0  502  0.62187108928E+02  0.10717362799E+02  0.39071608523E+02  0.74369207168E+02  0.47000000000E+01 0.  1.
         13    1    6    6    0    0  0.98097129379E+01  0.11232827712E+02  0.16607509308E+02  0.22320758314E+02  0.00000000000E+00 0. -1.
        -14    1    6    6    0    0 -0.56001786850E+02 -0.37629835412E+02 -0.35926218838E+02  0.76438850354E+02  0.00000000000E+00 0.  1.
</event>
<event>
12    1  0.1032880E+000  0.1721587E+03  0.7818608E-02  0.1175813E+00
         21   -1    0    0  503  502  0.00000000000E+00  0.00000000000E+00  0.92769281012E+02  0.92769281012E+02  0.00000000000E+00 0. -1.
         21   -1    0    0  501  503 -0.00000000000E+00 -0.00000000000E+00 -0.33469561439E+03  0.33469561439E+03  0.00000000000E+00 0. -1.
          6    2    1    2  501    0 -0.92426017254E+01 -0.62019334117E+01 -0.73052860263E+02  0.18630754018E+03  0.17102599063E+03 0.  0.
         24    2    3    3    0    0 -0.34434462056E+02  0.45336875521E+02 -0.61953947687E+01  0.98086854703E+02  0.79633433243E+02 0.  0.
         -6    2    1    2    0  502  0.92426017254E+01  0.62019334117E+01 -0.16887347311E+03  0.24115735522E+03  0.17179851685E+03 0.  0.
        -24    2    5    5    0    0 -0.59129341089E+02 -0.62421557157E+01 -0.11997296423E+03  0.15605196358E+03  0.80146489032E+02 0.  0.
          5    1    3    3  501    0  0.25191860331E+02 -0.51538808933E+02 -0.66857465494E+02  0.88220685474E+02  0.47000000000E+01 0. -1.
        -11    1    4    4    0    0 -0.22612557947E+02  0.86707061010E+01 -0.40048355694E+02  0.46801492657E+02  0.00000000000E+00 0.  1.
         12    1    4    4    0    0 -0.11821904110E+02  0.36666169420E+02  0.33852960925E+02  0.51285362045E+02  0.00000000000E+00 0. -1.
         -5    1    5    5    0  502  0.68371942814E+02  0.12444089127E+02 -0.48900508881E+02  0.85105391646E+02  0.47000000000E+01 0.  1.
         13    1    6    6    0    0 -0.18901891193E+02 -0.11784086401E+02 -0.11259832470E+03  0.11478035071E+03  0.00000000000E+00 0. -1.
        -14    1    6    6    0    0 -0.40227449896E+02  0.55419306852E+01 -0.73746395334E+01  0.41271612873E+02  0.00000000000E+00 0.  1.
</event>
<event>
12    1  0.1032880E+000  0.2134387E+03  0.7818608E-02  0.1139056E+00
         21   -1    0    0  503  502  0.00000000000E+00  0.00000000000E+00  0.56069084709E+03  0.56069084709E+03  0.00000000000E+00 0. -1.
         21   -1    0    0  501  503 -0.00000000000E+00 -0.00000000000E+00 -0.88333818871E+02  0.88333818871E+02  0.00000000000E+00 0. -1.
          6    2    1    2  501    0  0.29861346888E+02  0.12205431718E+03  0.32990907124E+03  0.39241697337E+03  0.17135381327E+03 0.  0.
         24    2    3    3    0    0 -0.62901890946E+01  0.82945736330E+02  0.98078481889E+02  0.15450117564E+03  0.85625130725E+02 0.  0.
         -6    2    1    2    0  502 -0.29861346888E+02 -0.12205431718E+03  0.14244795698E+03  0.25660769259E+03  0.17253153644E+03 0.  0.
        -24    2    5    5    0    0  0.19086705970E+02 -0.66886103278E+02  0.12130951555E+02  0.10679428996E+03  0.80123699528E+02 0.  0.
          5    1    3    3  501    0  0.36151535982E+02  0.39108580853E+02  0.23183058935E+03  0.23791579773E+03  0.47000000000E+01 0. -1.
        -13    1    4    4    0    0 -0.99454401063E+01  0.17121990160E+02 -0.14153499560E+02  0.24339183958E+02  0.00000000000E+00 0.  1.
         14    1    4    4    0    0  0.36552510117E+01  0.65823746170E+02  0.11223198145E+03  0.13016199169E+03  0.00000000000E+00 0. -1.
         -5    1    5    5    0  502 -0.48948052858E+02 -0.55168213904E+02  0.13031700542E+03  0.14981340263E+03  0.47000000000E+01 0.  1.
         13    1    6    6    0    0 -0.17628428380E+02 -0.66127127309E+02  0.14642828775E+02  0.69985504841E+02  0.00000000000E+00 0. -1.
        -14    1    6    6    0    0  0.36715134350E+02 -0.75897596961E+00 -0.25118772197E+01  0.36808785120E+02  0.00000000000E+00 0.  1.
</event>
<event>
12    1  0.1032880E+000  0.1789231E+03  0.7818608E-02  0.1168975E+00
         21   -1    0    0  501  502  0.00000000000E+00  0.00000000000E+00  0.33375151491E+02  0.33375151491E+02  0.00000000000E+00 0.  1.
         21   -1    0    0  502  503 -0.00000000000E+00 -0.00000000000E+00 -0.11266549014E+04  0.11266549014E+04  0.00000000000E+00 0.  1.
         -6    2    1    2    0  503 -0.46299449298E+02  0.56966875069E+01 -0.32053257204E+03  0.36683923622E+03  0.17220279974E+03 0.  0.
        -24    2    3    3    0    0 -0.18380940963E+02 -0.29166796712E+02 -0.65002343842E+02  0.10739233768E+03  0.78225625381E+02 0.  0.
          6    2    1    2  501    0  0.46299449298E+02 -0.56966875069E+01 -0.77274717787E+03  0.79319081667E+03  0.17273499788E+03 0.  0.
         24    2    5    5    0    0 -0.13832133485E+02  0.31045587789E+02 -0.60901138159E+03  0.61487283377E+03  0.77579522850E+02 0.  0.
          5    1    5    5  501    0  0.60131582784E+02 -0.36742275296E+02 -0.16373579628E+03  0.17831798290E+03  0.47000000000E+01 0. -1.
        -11    1    6    6    0    0 -0.22678502663E+02 -0.20013274253E+02 -0.30289355445E+03  0.30439998515E+03  0.00000000000E+00 0.  1.
         12    1    6    6    0    0  0.88463691777E+01  0.51058862042E+02 -0.30611782714E+03  0.31047284862E+03  0.00000000000E+00 0. -1.
         -5    1    3    3    0  503 -0.27918508335E+02  0.34863484218E+02 -0.25553022820E+03  0.25944689855E+03  0.47000000000E+01 0.  1.
         13    1    4    4    0    0  0.29366949187E+02 -0.20292585569E+02 -0.36629690808E+02  0.51146270463E+02  0.00000000000E+00 0. -1.
        -14    1    4    4    0    0 -0.47747890149E+02 -0.88742111427E+01 -0.28372653034E+02  0.56246067216E+02  0.00000000000E+00 0.  1.
</event>
<event>
12    1  0.1032880E+000  0.2435818E+03  0.7818608E-02  0.1117496E+00
         21   -1    0    0  501  502  0.00000000000E+00  0.00000000000E+00  0.52115082326E+03  0.52115082326E+03  0.00000000000E+00 0.  1.
         21   -1    0    0  502  503 -0.00000000000E+00 -0.00000000000E+00 -0.14250830007E+03  0.14250830007E+03  0.00000000000E+00 0.  1.
         -6    2    1    2    0  503 -0.24275426628E+02 -0.17101569221E+03  0.33849855973E+03  0.41679150410E+03  0.17116722709E+03 0.  0.
        -24    2    3    3    0    0  0.56145683930E+01 -0.19034786629E+03  0.27419399898E+03  0.34314158019E+03  0.79372296195E+02 0.  0.
          6    2    1    2  501    0  0.24275426628E+02  0.17101569221E+03  0.40143963464E+02  0.24686761923E+03  0.17174521915E+03 0.  0.
         24    2    5    5    0    0  0.17608820933E+02  0.28325761112E+02 -0.23338096599E+02  0.90480528914E+02  0.80806188144E+02 0.  0.
          5    1    5    5  501    0  0.66666056949E+01  0.14268993109E+03  0.63482060063E+02  0.15638709031E+03  0.47000000000E+01 0. -1.
        -13    1    6    6    0    0  0.26226717009E+01  0.39001449876E+02 -0.46598284173E+02  0.60822623975E+02  0.00000000000E+00 0.  1.
         14    1    6    6    0    0  0.14986149232E+02 -0.10675688764E+02  0.23260187574E+02  0.29657904939E+02  0.00000000000E+00 0. -1.
         -5    1    3    3    0  503 -0.29889995021E+02  0.19332174087E+02  0.64304560758E+02  0.73649923908E+02  0.47000000000E+01 0.  1.
         13    1    4    4    0    0 -0.21523023543E+02 -0.16949343214E+03  0.21332973137E+03  0.27331454108E+03  0.00000000000E+00 0. -1.
        -14    1    4    4    0    0  0.27137591936E+02 -0.20854434156E+02  0.60864267609E+02  0.69827039116E+02  0.00000000000E+00 0.  1.
</event>
<event>
12    1  0.1032880E+000  0.2310143E+03  0.7818608E-02  0.1127106E+00
         21   -1    0    0  503  502  0.00000000000E+00  0.00000000000E+00  0.52568900274E+03  0.52568900274E+03  0.00000000000E+00 0. -1.
         21   -1    0    0  501  503 -0.00000000000E+00 -0.00000000000E+00 -0.15447558212E+03  0.15447558212E+03  0.00000000000E+00 0. -1.
          6    2    1    2  501    0 -0.13468797128E+03 -0.58337743699E+02  0.39179967507E+03  0.45483468564E+03  0.17839132246E+03 0.  0.
         24    2    3    3    0    0 -0.14603983131E+03 -0.15542623790E+02  0.22176129334E+03  0.27906373162E+03  0.84435120658E+02 0.  0.
         -6    2    1    2    0  502  0.13468797128E+03  0.58337743699E+02 -0.20586254448E+02  0.22532989923E+03  0.16972220735E+03 0.  0.
        -24    2    5    5    0    0  0.15365218693E+03  0.24099898246E+02  0.98754409185E+01  0.17551146468E+03  0.80727630076E+02 0.  0.
          5    1    3    3  501    0  0.11351860031E+02 -0.42795119910E+02  0.17003838173E+03  0.17577095402E+03  0.47000000000E+01 0. -1.
        -11    1    4    4    0    0 -0.26190825595E+02 -0.38827871884E+02  0.71175413950E+02  0.85202714342E+02  0.00000000000E+00 0.  1.
         12    1    4    4    0    0 -0.11984900571E+03  0.23285248094E+02  0.15058587939E+03  0.19386101728E+03  0.00000000000E+00 0. -1.
         -5    1    5    5    0  502 -0.18964215647E+02  0.34237845454E+02 -0.30461695367E+02  0.49818434550E+02  0.47000000000E+01 0.  1.
         11    1    6    6    0    0  0.22740646432E+02 -0.59744084952E+01  0.31658896836E+02  0.39434962989E+02  0.00000000000E+00 0. -1.
        -12    1    6    6    0    0  0.13091154049E+03  0.30074306741E+02 -0.21783455918E+02  0.13607650169E+03  0.00000000000E+00 0.  1.
</event>
<event>
12    1  0.1032880E+000  0.1723291E+03  0.7818608E-02  0.1175639E+00
         21   -1    0    0  501  502  0.00000000000E+00  0.00000000000E+00  0.12501684165E+03  0.12501684165E+03  0.00000000000E+00 0.  1.
         21   -1    0    0  502  503 -0.00000000000E+00 -0.00000000000E+00 -0.26288200698E+03  0.26288200698E+03  0.00000000000E+00 0.  1.
         -6    2    1    2    0  503  0.10708266304E+02 -0.90669838450E+01 -0.73314472635E+01  0.17171289109E+03  0.17098154779E+03 0.  0.
        -24    2    3    3    0    0  0.30310089816E+02  0.49471266596E+02  0.26789206365E+02  0.10102153905E+03  0.78240539432E+02 0.  0.
          6    2    1    2  501    0 -0.10708266304E+02  0.90669838450E+01 -0.13053371807E+03  0.21618595754E+03  0.17175691986E+03 0.  0.
         24    2    5    5    0    0 -0.22645177793E+02  0.42169411496E+02 -0.14128271104E+02  0.94487236693E+02  0.80231954422E+02 0.  0.
          5    1    5    5  501    0  0.11936911488E+02 -0.33102427651E+02 -0.11640544696E+03  0.12169872084E+03  0.47000000000E+01 0. -1.
        -11    1    6    6    0    0 -0.14709234782E+02  0.19837334475E+02  0.33305281588E+02  0.41462310700E+02  0.00000000000E+00 0.  1.
         12    1    6    6    0    0 -0.79359430107E+01  0.22332077021E+02 -0.47433552692E+02  0.53024925993E+02  0.00000000000E+00 0. -1.
         -5    1    3    3    0  503 -0.19601823511E+02 -0.58538250441E+02 -0.34120653629E+02  0.70691352043E+02  0.47000000000E+01 0.  1.
         13    1    4    4    0    0 -0.20391702626E+02 -0.43932288382E+01  0.15948891617E+02  0.26258125207E+02  0.00000000000E+00 0. -1.
        -14    1    4    4    0    0  0.50701792442E+02  0.53864495434E+02  0.10840314749E+02  0.74763413840E+02  0.00000000000E+00 0.  1.
</event>
<event>
12    1  0.1032880E+000  0.1849349E+03  0.7818608E-02  0.1163199E+00
         21   -1    0    0  503  502  0.00000000000E+00  0.00000000000E+00  0.53088629065E+03  0.53088629065E+03  0.00000000000E+00 0. -1.
         21   -1    0    0  501  503 -0.00000000000E+00 -0.00000000000E+00 -0.98562745443E+02  0.98562745443E+02  0.00000000000E+00 0.  1.
          6    2    1    2  501    0 -0.27716373017E+02  0.61236081903E+02  0.40189162265E+03  0.44240004914E+03  0.17228717904E+03 0.  0.
         24    2    3    3    0    0 -0.59367601208E+02  0.32542783819E+02  0.38112399990E+03  0.39466652050E+03  0.76958522959E+02 0.  0.
         -6    2    1    2    0  502  0.27716373017E+02 -0.61236081903E+02  0.30431922558E+02  0.18704898696E+03  0.17188125713E+03 0.  0.
        -24    2    5    5    0    0  0.17942419873E+02  0.13932484243E+02 -0.31998277677E+02  0.88735898317E+02  0.79587218370E+02 0.  0.
          5    1    3    3  501    0  0.31651228192E+02  0.28693298084E+02  0.20767622751E+02  0.47733528632E+02  0.47000000000E+01 0. -1.
        -11    1    4    4    0    0 -0.40712279989E+02  0.49678075158E+02  0.16495572281E+03  0.17701918365E+03  0.00000000000E+00 0.  1.
         12    1    4    4    0    0 -0.18655321220E+02 -0.17135291339E+02  0.21616827709E+03  0.21764733685E+03  0.00000000000E+00 0. -1.
         -5    1    5    5    0  502  0.97739531434E+01 -0.75168566146E+02  0.62430200235E+02  0.98313088640E+02  0.47000000000E+01 0.  1.
         13    1    6    6    0    0  0.40161681970E+02  0.34099019296E+02 -0.22187850949E+02  0.57166463467E+02  0.00000000000E+00 0. -1.
        -14    1    6    6    0    0 -0.22219262097E+02 -0.20166535053E+02 -0.98104267276E+01  0.31569434850E+02  0.00000000000E+00 0.  1.
</event>
<event>
12    1  0.1032880E+000  0.1796483E+03  0.7818608E-02  0.1168292E+00
         21   -1    0    0  501  502  0.00000000000E+00  0.00000000000E+00  0.78560401352E+02  0.78560401352E+02  0.00000000000E+00 0. -1.
         21   -1    0    0  502  503 -0.00000000000E+00 -0.00000000000E+00 -0.49100634033E+03  0.49100634033E+03  0.00000000000E+00 0. -1.
         -6    2    1    2    0  503  0.84394672213E+01  0.49895082350E+02 -0.90427669733E+02  0.20112354844E+03  0.17237393780E+03 0.  0.
        -24    2    3    3    0    0 -0.49719927030E+02 -0.67342327354E+01 -0.70629074563E+02  0.11743681808E+03  0.79281265335E+02 0.  0.
          6    2    1    2  501    0 -0.84394672213E+01 -0.49895082350E+02 -0.32201826925E+03  0.36844319325E+03  0.17173781492E+03 0.  0.
         24    2    5    5    0    0 -0.39904665046E+02 -0.90194963870E+02 -0.22131676727E+03  0.25540770490E+03  0.80774194207E+02 0.  0.
          5    1    5    5  501    0  0.31465197825E+02  0.40299881521E+02 -0.10070150198E+03  0.11303548835E+03  0.47000000000E+01 0. -1.
        -13    1    6    6    0    0 -0.31990112794E+02 -0.56462520083E+01 -0.11410924804E+03  0.11864302747E+03  0.00000000000E+00 0.  1.
         14    1    6    6    0    0 -0.79145522521E+01 -0.84548711862E+02 -0.10720751922E+03  0.13676467743E+03  0.00000000000E+00 0. -1.
         -5    1    3    3    0  503  0.58159394251E+02  0.56629315085E+02 -0.19798595170E+02  0.83686730354E+02  0.47000000000E+01 0.  1.
         11    1    4    4    0    0 -0.31513462716E+02 -0.14765791805E+02 -0.85685613150E+02  0.92483248434E+02  0.00000000000E+00 0. -1.
        -12    1    4    4    0    0 -0.18206464314E+02  0.80315590694E+01  0.15056538588E+02  0.24953569647E+02  0.00000000000E+00 0.  1.
</event>
<event>
12    1  0.1032880E+000  0.2884096E+03  0.7818608E-02  0.1091184E+00
         21   -1    0    0  503  502  0.00000000000E+00  0.00000000000E+00  0.52825084703E+03  0.52825084703E+03  0.00000000000E+00 0.  1.
         21   -1    0    0  501  503 -0.00000000000E+00 -0.00000000000E+00 -0.17965648995E+03  0.17965648995E+03  0.00000000000E+00 0.  1.
          6    2    1    2  501    0  0.14842466160E+03  0.17783387395E+03  0.49875429331E+02  0.29269035319E+03  0.17182932667E+03 0.  0.
         24    2    3    3    0    0  0.22099898166E+01  0.53472071688E+02  0.96243463560E+01  0.96509753261E+02  0.79733041621E+02 0.  0.
         -6    2    1    2    0  502 -0.14842466160E+03 -0.17783387395E+03  0.29871892775E+03  0.41521698378E+03  0.17180622493E+03 0.  0.
        -24    2    5    5    0    0 -0.25545633400E+02 -0.73772372984E+02  0.59314484238E+02  0.12666087290E+03  0.80186197569E+02 0.  0.
          5    1    3    3  501    0  0.14621467179E+03  0.12436180226E+03  0.40251082975E+02  0.19618059993E+03  0.47000000000E+01 0. -1.
        -11    1    4    4    0    0  0.25859466753E+02 -0.17624363364E+01  0.23340276846E+02  0.34879603292E+02  0.00000000000E+00 0.  1.
         12    1    4    4    0    0 -0.23649476936E+02  0.55234508025E+02 -0.13715930489E+02  0.61630149970E+02  0.00000000000E+00 0. -1.
         -5    1    5    5    0  502 -0.12287902820E+03 -0.10406150097E+03  0.23940444351E+03  0.28855611088E+03  0.47000000000E+01 0.  1.
         11    1    6    6    0    0 -0.41122034709E+02 -0.81979318813E+02  0.38684899084E+02  0.99539699963E+02  0.00000000000E+00 0. -1.
        -12    1    6    6    0    0  0.15576401309E+02  0.82069458285E+01  0.20629585154E+02  0.27121172932E+02  0.00000000000E+00 0.  1.
</event>
<event>
12    1  0.1032880E+000  0.2191861E+03  0.7818608E-02  0.1134910E+00
         21   -1    0    0  503  502  0.00000000000E+00  0.00000000000E+00  0.18141233706E+02  0.18141233706E+02  0.00000000000E+00 0.  1.
         21   -1    0    0  501  503 -0.00000000000E+00 -0.00000000000E+00 -0.26376003463E+04  0.26376003463E+04  0.00000000000E+00 0.  1.
          6    2    1    2  501    0 -0.13900551993E+03  0.13444161110E+02 -0.14201719808E+04  0.14369867823E+04  0.16893571961E+03 0.  0.
         24    2    3    3    0    0 -0.78048184048E+01  0.29283801998E+02 -0.55413480245E+03  0.56091201230E+03  0.81476683847E+02 0.  0.
         -6    2    1    2    0  502  0.13900551993E+03 -0.13444161110E+02 -0.11992871318E+04  0.12187547977E+04  0.16604322466E+03 0.  0.
        -24    2    5    5    0    0  0.11586816353E+02  0.15981369733E+01 -0.35000335851E+03  0.35982126461E+03  0.82657021119E+02 0.  0.
          5    1    3    3  501    0 -0.13120070152E+03 -0.15839640888E+02 -0.86603717834E+03  0.87607476996E+03  0.47000000000E+01 0. -1.
        -11    1    4    4    0    0  0.88145047829E+01 -0.20136976702E+02 -0.33253634421E+03  0.33326207937E+03  0.00000000000E+00 0.  1.
         12    1    4    4    0    0 -0.16619323188E+02  0.49420778700E+02 -0.22159845823E+03  0.22764993293E+03  0.00000000000E+00 0. -1.
         -5    1    5    5    0  502  0.12741870358E+03 -0.15042298083E+02 -0.84928377327E+03  0.85893353311E+03  0.47000000000E+01 0.  1.
         11    1    6    6    0    0  0.34445205754E+02  0.25075392515E+02 -0.27042645928E+03  0.27376215478E+03  0.00000000000E+00 0. -1.
        -12    1    6    6    0    0 -0.22858389401E+02 -0.23477255542E+02 -0.79576899233E+02  0.86059109834E+02  0.00000000000E+00 0.  1.
</event>
<event>
12    1  0.1032880E+000  0.2287373E+03  0.7818608E-02  0.1128001E+00
         21   -1    0    0  501  502  0.00000000000E+00  0.00000000000E+00  0.19109717548E+03  0.19109717548E+03  0.00000000000E+00 0. -1.
         21   -1    0    0  502  503 -0.00000000000E+00 -0.00000000000E+00 -0.32625964610E+03  0.32625964610E+03  0.00000000000E+00 0. -1.
         -6    2    1    2    0  503  0.14590151102E+03  0.17555905617E+02 -0.17405035510E+03  0.28533739602E+03  0.17183842038E+03 0.  0.
        -24    2    3    3    0    0  0.81951989255E+02  0.76279305967E+02 -0.87110642416E+02  0.16237974996E+03  0.79020618289E+02 0.  0.
          6    2    1    2  501    0 -0.14590151102E+03 -0.17555905617E+02  0.38887884478E+02  0.23201942556E+03  0.17528629593E+03 0.  0.
         24    2    5    5    0    0 -0.14357435604E+03  0.27515775573E+02 -0.10033271181E+02  0.16529430610E+03  0.76490701938E+02 0.  0.
          5    1    5    5  501    0 -0.23271549815E+01 -0.45071681190E+02  0.48921155659E+02  0.66725119457E+02  0.47000000000E+01 0. -1.
        -11    1    6    6    0    0 -0.59207754366E+01  0.54890398643E+01 -0.23875826104E+02  0.25203972159E+02  0.00000000000E+00 0.  1.
         12    1    6    6    0    0 -0.13765358060E+03  0.22026735709E+02  0.13842554923E+02  0.14009033395E+03  0.00000000000E+00 0. -1.
         -5    1    3    3    0  503  0.63949521764E+02 -0.58723400350E+02 -0.86939712684E+02  0.12295764606E+03  0.47000000000E+01 0.  1.
         13    1    4    4    0    0  0.69111639390E+00  0.19520762613E+02 -0.54719093880E+02  0.58100921249E+02  0.00000000000E+00 0. -1.
        -14    1    4    4    0    0  0.81260872861E+02  0.56758543354E+02 -0.32391548536E+02  0.10427882872E+03  0.00000000000E+00 0.  1.
</event>
<event>
12    1  0.1032880E+000  0.6633380E+03  0.7818608E-02  0.9782174E-01
         21   -1    0    0  503  502  0.00000000000E+00  0.00000000000E+00  0.14608055966E+04  0.14608055966E+04  0.00000000000E+00 0. -1.
         21   -1    0    0  501  503 -0.00000000000E+00 -0.00000000000E+00 -0.30932727417E+03  0.30932727417E+03  0.00000000000E+00 0.  1.
          6    2    1    2  501    0 -0.47433709295E+03 -0.42999201997E+03  0.43158554451E+03  0.79138071620E+03  0.17357574933E+03 0.  0.
         24    2    3    3    0    0 -0.10567653388E+03 -0.14952982840E+03  0.12199090083E+03  0.23420876598E+03  0.80282418891E+02 0.  0.
         -6    2    1    2    0  502  0.47433709295E+03  0.42999201997E+03  0.71989277796E+03  0.97875215460E+03  0.17268860237E+03 0.  0.
        -24    2    5    5    0    0  0.37220755136E+03  0.31830742703E+03  0.45372645916E+03  0.67253247720E+03  0.81081155340E+02 0.  0.
          5    1    3    3  501    0 -0.36866055907E+03 -0.28046219157E+03  0.30959464368E+03  0.55717195022E+03  0.47000000000E+01 0. -1.
        -11    1    4    4    0    0 -0.11521275429E+03 -0.11009259573E+03  0.97263160609E+02  0.18669354782E+03  0.00000000000E+00 0.  1.
         12    1    4    4    0    0  0.95362204130E+01 -0.39437232670E+02  0.24727740219E+02  0.47515218159E+02  0.00000000000E+00 0. -1.
         -5    1    5    5    0  502  0.10212954159E+03  0.11168459295E+03  0.26616631880E+03  0.30621967740E+03  0.47000000000E+01 0.  1.
         11    1    6    6    0    0  0.36181956916E+02  0.66594129251E+02  0.83478939445E+02  0.11275036757E+03  0.00000000000E+00 0. -1.
        -12    1    6    6    0    0  0.33602559445E+03  0.25171329777E+03  0.37024751972E+03  0.55978210963E+03  0.00000000000E+00 0.  1.
</event>
<event>
12    1  0.1032880E+000  0.1806683E+03  0.7818608E-02  0.1167591E+00
         21   -1    0    0  501  502  0.00000000000E+00  0.00000000000E+00  0.14020375636E+03  0.14020375636E+03  0.00000000000E+00 0. -1.
         21   -1    0    0  502  503 -0.00000000000E+00 -0.00000000000E+00 -0.23298473008E+03  0.23298473008E+03  0.00000000000E+00 0. -1.
         -6    2    1    2    0  503  0.87041164818E+01 -0.48424177182E+02 -0.27392595190E+02  0.18273311760E+03  0.17384008576E+03 0.  0.
        -24    2    3    3    0    0  0.58617154100E+02 -0.72449627977E+02 -0.37978900491E+01  0.12233995805E+03  0.79168946047E+02 0.  0.
          6    2    1    2  501    0 -0.87041164818E+01  0.48424177182E+02 -0.65388378532E+02  0.19045536884E+03  0.17197948975E+03 0.  0.
         24    2    5    5    0    0  0.45126507912E+02  0.72962812105E+02 -0.60670759564E+02  0.13092196095E+03  0.78100224878E+02 0.  0.
          5    1    5    5  501    0 -0.53830624393E+02 -0.24538634923E+02 -0.47176189674E+01  0.59533407891E+02  0.47000000000E+01 0. -1.
        -13    1    6    6    0    0 -0.17024336354E+02  0.25264151731E+02 -0.39280314268E+02  0.49709641721E+02  0.00000000000E+00 0.  1.
         14    1    6    6    0    0  0.62150844266E+02  0.47698660373E+02 -0.21390445296E+02  0.81212319228E+02  0.00000000000E+00 0. -1.
         -5    1    3    3    0  503 -0.49913037618E+02  0.24025450795E+02 -0.23594705141E+02  0.60393159553E+02  0.47000000000E+01 0.  1.
         13    1    4    4    0    0  0.46549817934E+02 -0.15051863927E+00  0.10352465864E+02  0.47687333277E+02  0.00000000000E+00 0. -1.
        -14    1    4    4    0    0  0.12067336166E+02 -0.72299109338E+02 -0.14150355913E+02  0.74652624774E+02  0.00000000000E+00 0.  1.
</event>
<event>
12    1  0.1032880E+000  0.2065253E+03  0.7818608E-02  0.1144517E+00
         21   -1    0    0  501  502  0.00000000000E+00  0.00000000000E+00  0.11224380234E+04  0.11224380234E+04  0.00000000000E+00 0.  1.
         21   -1    0    0  502  503 -0.00000000000E+00 -0.00000000000E+00 -0.42480218350E+02  0.42480218350E+02  0.00000000000E+00 0.  1.
         -6    2    1    2    0  503 -0.51683428041E+01  0.11374437362E+03  0.34857812555E+03  0.40516590517E+03  0.17230266046E+03 0.  0.
        -24    2    3    3    0    0  0.60444316893E+02  0.82054153428E+02  0.23919869055E+03  0.27365452935E+03  0.85348628193E+02 0.  0.
          6    2    1    2  501    0  0.51683428041E+01 -0.11374437362E+03  0.73137967947E+03  0.75975233655E+03  0.17129764462E+03 0.  0.
         24    2    5    5    0    0  0.42703100492E+02 -0.83714396063E+01  0.26597856548E+03  0.28107436530E+03  0.79778228488E+02 0.  0.
          5    1    5    5  501    0 -0.37534757688E+02 -0.10537293402E+03  0.46540111399E+03  0.47867797125E+03  0.47000000000E+01 0. -1.
        -11    1    6    6    0    0  0.70269845228E+01  0.26580081879E+02  0.17625959535E+03  0.17839093087E+03  0.00000000000E+00 0.  1.
         12    1    6    6    0    0  0.35676115969E+02 -0.34951521485E+02  0.89718970135E+02  0.10268343443E+03  0.00000000000E+00 0. -1.
         -5    1    3    3    0  503 -0.65612659697E+02  0.31690220194E+02  0.10937943499E+03  0.13151137581E+03  0.47000000000E+01 0.  1.
         13    1    4    4    0    0  0.25784028535E+02 -0.14349007246E+02  0.40602818900E+02  0.50192619368E+02  0.00000000000E+00 0. -1.
        -14    1    4    4    0    0  0.34660288358E+02  0.96403160674E+02  0.19859587165E+03  0.22346190999E+03  0.00000000000E+00 0.  1.
</event>
<event>
12    1  0.1032880E+000  0.1925840E+03  0.7818608E-02  0.1156173E+00
         21   -1    0    0  501  502  0.00000000000E+00  0.00000000000E+00  0.55648076695E+03  0.55648076695E+03  0.00000000000E+00 0.  1.
         21   -1    0    0  502  503 -0.00000000000E+00 -0.00000000000E+00 -0.67900927873E+02  0.67900927873E+02  0.00000000000E+00 0.  1.
         -6    2    1    2    0  503  0.57075021350E+02  0.68592161554E+02  0.28719290813E+03  0.34573264470E+03  0.17055454389E+03 0.  0.
        -24    2    3    3    0    0  0.73695273197E+02  0.57974897915E+02  0.10659675991E+03  0.16400202590E+03  0.82107936252E+02 0.  0.
          6    2    1    2  501    0 -0.57075021350E+02 -0.68592161554E+02  0.20138693095E+03  0.27864905012E+03  0.17066386404E+03 0.  0.
         24    2    5    5    0    0 -0.32625407617E+02 -0.96025657583E+02  0.20489104599E+03  0.24143683253E+03  0.77627696330E+02 0.  0.
          5    1    5    5  501    0 -0.24449613733E+02  0.27433496029E+02 -0.35041150423E+01  0.37212217594E+02  0.47000000000E+01 0. -1.
        -13    1    6    6    0    0  0.10154878627E+02 -0.33390303316E+02  0.13090684358E+03  0.13547928111E+03  0.00000000000E+00 0.  1.
         14    1    6    6    0    0 -0.42780286244E+02 -0.62635354267E+02  0.73984202416E+02  0.10595755142E+03  0.00000000000E+00 0. -1.
         -5    1    3    3    0  503 -0.16620251848E+02  0.10617263640E+02  0.18059614822E+03  0.18173061880E+03  0.47000000000E+01 0.  1.
         13    1    4    4    0    0  0.40970716394E+02  0.69514470819E+02  0.10031261798E+03  0.12873803859E+03  0.00000000000E+00 0. -1.
        -14    1    4    4    0    0  0.32724556804E+02 -0.11539572904E+02  0.62841419303E+01  0.35263987305E+02  0.00000000000E+00 0.  1.
</event>
<event>
12    1  0.1032880E+000  0.2383628E+03  0.7818608E-02  0.1120916E+00
         21   -1    0    0  501  502  0.00000000000E+00  0.00000000000E+00  0.57835296553E+03  0.57835296553E+03  0.00000000000E+00 0.  1.
         21   -1    0    0  502  503 -0.00000000000E+00 -0.00000000000E+00 -0.15685752632E+03  0.15685752632E+03  0.00000000000E+00 0.  1.
         -6    2    1    2    0  503 -0.30973235820E+02  0.16159500717E+03  0.43564465098E+03  0.49659148879E+03  0.17246610430E+03 0.  0.
        -24    2    3    3    0    0  0.80605730963E+00  0.10228668497E+02  0.10400377021E+03  0.13062775322E+03  0.78368043904E+02 0.  0.
          6    2    1    2  501    0  0.30973235820E+02 -0.16159500717E+03 -0.14149211763E+02  0.23861900306E+03  0.17223977691E+03 0.  0.
         24    2    5    5    0    0  0.20880812883E+02 -0.25057015837E+01 -0.37434863093E+01  0.78801503160E+02  0.75851013991E+02 0.  0.
          5    1    5    5  501    0  0.10092422937E+02 -0.15908930559E+03 -0.10405725454E+02  0.15981749990E+03  0.47000000000E+01 0. -1.
        -13    1    6    6    0    0  0.37641026321E+02 -0.20845389081E+02  0.17169605501E+02  0.46326800682E+02  0.00000000000E+00 0.  1.
         14    1    6    6    0    0 -0.16760213437E+02  0.18339687498E+02 -0.20913091810E+02  0.32474702478E+02  0.00000000000E+00 0. -1.
         -5    1    3    3    0  503 -0.31779293130E+02  0.15136633867E+03  0.33164088077E+03  0.36596373557E+03  0.47000000000E+01 0.  1.
         11    1    4    4    0    0 -0.80367705550E+01  0.21817815524E+02  0.11173393555E+03  0.11412746868E+03  0.00000000000E+00 0. -1.
        -12    1    4    4    0    0  0.88428278646E+01 -0.11589147027E+02 -0.77301653401E+01  0.16500284532E+02  0.00000000000E+00 0.  1.
</event>
<event>
12    1  0.1032880E+000  0.2520469E+03  0.7818608E-02  0.1112022E+00
         21   -1    0    0  503  502  0.00000000000E+00  0.00000000000E+00  0.41090028623E+03  0.41090028623E+03  0.00000000000E+00 0.  1.
         21   -1    0    0  501  503 -0.00000000000E+00 -0.00000000000E+00 -0.18710010674E+03  0.18710010674E+03  0.00000000000E+00 0.  1.
          6    2    1    2  501    0 -0.10442351668E+03 -0.15229759866E+03  0.23652955244E+03  0.34563221916E+03  0.17151260114E+03 0.  0.
         24    2    3    3    0    0 -0.14089036141E+03 -0.13132779964E+03  0.18192963488E+03  0.27654673420E+03  0.79262975269E+02 0.  0.
         -6    2    1    2    0  502  0.10442351668E+03  0.15229759866E+03 -0.12729372944E+02  0.25236817381E+03  0.17154832796E+03 0.  0.
        -24    2    5    5    0    0  0.13988278726E+03  0.11350825234E+03 -0.24388884579E+02  0.19833108036E+03  0.79303733993E+02 0.  0.
          5    1    3    3  501    0  0.36466844733E+02 -0.20969799017E+02  0.54599917553E+02  0.69085484961E+02  0.47000000000E+01 0. -1.
        -13    1    4    4    0    0 -0.25190816812E+01  0.23221251942E+01 -0.64454710196E+01  0.72994612540E+01  0.00000000000E+00 0.  1.
         14    1    4    4    0    0 -0.13837127973E+03 -0.13364992483E+03  0.18837510590E+03  0.26924727294E+03  0.00000000000E+00 0. -1.
         -5    1    5    5    0  502 -0.35459270578E+02  0.38789346321E+02  0.11659511635E+02  0.54037093459E+02  0.47000000000E+01 0.  1.
         11    1    6    6    0    0  0.41291278571E+02  0.76346135226E+02  0.10297565925E+02  0.87405617176E+02  0.00000000000E+00 0. -1.
        -12    1    6    6    0    0  0.98591508686E+02  0.37162117109E+02 -0.34686450504E+02  0.11092546318E+03  0.00000000000E+00 0.  1.
</event>
<event>
12    1  0.1032880E+000  0.2312124E+03  0.7818608E-02  0.1128440E+00
         21   -1    0    0  501  502  0.00000000000E+00  0.00000000000E+00  0.26899240323E+03  0.26899240323E+03  0.00000000000E+00 0. -1.
         21   -1    0    0  502  503 -0.00000000000E+00 -0.00000000000E+00 -0.18646939351E+03  0.18646939351E+03  0.00000000000E+00 0. -1.
         -6    2    1    2    0  503 -0.61397086759E+02 -0.14063856865E+03  0.45655672669E+02  0.22132850893E+03  0.15281707747E+03 0.  0.
        -24    2    3    3    0    0  0.16755106881E+01 -0.80337891822E+02 -0.16387684132E+02  0.11415672021E+03  0.79411689188E+02 0.  0.
          6    2    1    2  501    0  0.61397086759E+02  0.14063856865E+03  0.36867337047E+02  0.23413328781E+03  0.17294619587E+03 0.  0.
         24    2    5    5    0    0  0.71230954703E+02  0.16981387740E+03  0.31095124150E+02  0.20245818652E+03  0.78178057519E+02 0.  0.
          5    1    5    5  501    0 -0.98338679438E+01 -0.29175308759E+02  0.57722128965E+01  0.31675101288E+02  0.47000000000E+01 0. -1.
        -13    1    6    6    0    0 -0.17195122712E+02  0.28521750354E+02  0.31801985287E+01  0.33455584751E+02  0.00000000000E+00 0.  1.
         14    1    6    6    0    0  0.88426077415E+02  0.14129212705E+03  0.27914925622E+02  0.16900260177E+03  0.00000000000E+00 0. -1.
         -5    1    3    3    0  503 -0.63072597447E+02 -0.60300676823E+02  0.62043356802E+02  0.10717178872E+03  0.47000000000E+01 0.  1.
         11    1    4    4    0    0 -0.17293491452E+01 -0.97184650910E+01  0.28667635095E+02  0.30319507155E+02  0.00000000000E+00 0. -1.
        -12    1    4    4    0    0  0.34048598333E+01 -0.70619426731E+02 -0.45055319227E+02  0.83837213056E+02  0.00000000000E+00 0.  1.
</event>
<event>
12    1  0.1032880E+000  0.1871518E+03  0.7818608E-02  0.1161063E+00
         21   -1    0    0  503  502  0.00000000000E+00  0.00000000000E+00  0.21059959636E+03  0.21059959636E+03  0.00000000000E+00 0.  1.
         21   -1    0    0  501  503 -0.00000000000E+00 -0.00000000000E+00 -0.16709829173E+03  0.16709829173E+03  0.00000000000E+00 0.  1.
          6    2    1    2  501    0  0.54514542978E+02 -0.52174574267E+02  0.34905385781E+02  0.19034881211E+03  0.17123160549E+03 0.  0.
         24    2    3    3    0    0  0.15496712739E+02 -0.27914228933E+02 -0.44604514489E+02  0.98398446839E+02  0.81690509516E+02 0.  0.
         -6    2    1    2    0  502 -0.54514542978E+02  0.52174574267E+02  0.85959188410E+01  0.18734907598E+03  0.17126518868E+03 0.  0.
        -24    2    5    5    0    0 -0.50723191290E+02  0.59386182599E+02  0.66355529720E+02  0.12882861553E+03  0.78065325446E+02 0.  0.
          5    1    3    3  501    0  0.39017830240E+02 -0.24260345334E+02  0.79509900270E+02  0.91950365270E+02  0.47000000000E+01 0. -1.
        -13    1    4    4    0    0 -0.25862909113E+02  0.11213236137E+02 -0.40085578086E+01  0.28472710938E+02  0.00000000000E+00 0.  1.
         14    1    4    4    0    0  0.41359621852E+02 -0.39127465070E+02 -0.40595956680E+02  0.69925735901E+02  0.00000000000E+00 0. -1.
         -5    1    5    5    0  502 -0.37913516881E+01 -0.72116083317E+01 -0.57759610879E+02  0.58520460450E+02  0.47000000000E+01 0.  1.
         11    1    6    6    0    0 -0.54128783122E+02  0.24826823698E+02  0.72224771308E+02  0.93609368803E+02  0.00000000000E+00 0. -1.
        -12    1    6    6    0    0  0.34055918317E+01  0.34559358900E+02 -0.58692415876E+01  0.35219246729E+02  0.00000000000E+00 0.  1.
</event>
<event>
12    1  0.1032880E+000  0.1770922E+03  0.7818608E-02  0.1170766E+00
         21   -1    0    0  503  502  0.00000000000E+00  0.00000000000E+00  0.16111868681E+03  0.16111868681E+03  0.00000000000E+00 0. -1.
         21   -1    0    0  501  503 -0.00000000000E+00 -0.00000000000E+00 -0.24203355233E+03  0.24203355233E+03  0.00000000000E+00 0. -1.
          6    2    1    2  501    0 -0.33441745864E+02 -0.20402055313E+02 -0.13009674809E+03  0.21935750565E+03  0.17221485765E+03 0.  0.
         24    2    3    3    0    0  0.40452643243E+02 -0.11131536152E+02 -0.30237311848E+02  0.94696684728E+02  0.79327420405E+02 0.  0.
         -6    2    1    2    0  502  0.33441745864E+02  0.20402055313E+02  0.49181882573E+02  0.18379473350E+03  0.17270510201E+03 0.  0.
        -24    2    5    5    0    0  0.54369300195E+02  0.31988137740E+02  0.89836923019E+02  0.13639091350E+03  0.80947802865E+02 0.  0.
          5    1    3    3  501    0 -0.73894389106E+02 -0.92705191615E+01 -0.99859436244E+02  0.12466082093E+03  0.47000000000E+01 0. -1.
        -13    1    4    4    0    0 -0.20028213927E+02  0.13623352578E+02 -0.56428772954E+01  0.24871010288E+02  0.00000000000E+00 0.  1.
         14    1    4    4    0    0  0.60480857169E+02 -0.24754888730E+02 -0.24594434553E+02  0.69825674440E+02  0.00000000000E+00 0. -1.
         -5    1    5    5    0  502 -0.20927554331E+02 -0.11586082427E+02 -0.40655040446E+02  0.47403819993E+02  0.47000000000E+01 0.  1.
         13    1    6    6    0    0  0.23706409458E+01  0.46232000078E+02  0.26986659901E+02  0.53584490128E+02  0.00000000000E+00 0. -1.
        -14    1    6    6    0    0  0.51998659249E+02 -0.14243862338E+02  0.62850263118E+02  0.82806423374E+02  0.00000000000E+00 0.  1.
</event>
<event>
12    1  0.1032880E+000  0.6490934E+03  0.7818608E-02  0.9810386E-01
         21   -1    0    0  501  502  0.00000000000E+00  0.00000000000E+00  0.12199042237E+04  0.12199042237E+04  0.00000000000E+00 0.  1.
         21   -1    0    0  502  503 -0.00000000000E+00 -0.00000000000E+00 -0.38837638603E+03  0.38837638603E+03  0.00000000000E+00 0. -1.
         -6    2    1    2    0  503 -0.43641604363E+03 -0.44267198209E+03  0.68879192869E+03  0.94367859171E+03  0.17227163596E+03 0.  0.
        -24    2    3    3    0    0 -0.33913056445E+03 -0.29770911892E+03  0.41138735829E+03  0.61587669752E+03  0.80151660932E+02 0.  0.
          6    2    1    2  501    0  0.43641604363E+03  0.44267198209E+03  0.14273590900E+03  0.66460201803E+03  0.18682841269E+03 0.  0.
         24    2    5    5    0    0  0.14095150016E+03  0.11942538431E+03 -0.83653625297E+01  0.20130800373E+03  0.79531033333E+02 0.  0.
          5    1    5    5  501    0  0.29546454347E+03  0.32324659778E+03  0.15110127153E+03  0.46329401430E+03  0.47000000000E+01 0. -1.
        -11    1    6    6    0    0  0.13397341982E+02 -0.75572634235E+01  0.12894485959E+02  0.20071591137E+02  0.00000000000E+00 0.  1.
         12    1    6    6    0    0  0.12755415818E+03  0.12698264773E+03 -0.21259848489E+02  0.18123641260E+03  0.00000000000E+00 0. -1.
         -5    1    3    3    0  503 -0.97285479179E+02 -0.14496286317E+03  0.27740457040E+03  0.32780189419E+03  0.47000000000E+01 0.  1.
         11    1    4    4    0    0 -0.26758963850E+03 -0.27341455028E+03  0.33658758810E+03  0.50955955039E+03  0.00000000000E+00 0. -1.
        -12    1    4    4    0    0 -0.71540925956E+02 -0.24294568644E+02  0.74799770193E+02  0.10631714713E+03  0.00000000000E+00 0.  1.
</event>
<event>
12    1  0.1032880E+000  0.1808680E+03  0.7818608E-02  0.1166999E+00
         21   -1    0    0  503  502  0.00000000000E+00  0.00000000000E+00  0.69084971735E+02  0.69084971735E+02  0.00000000000E+00 0. -1.
         21   -1    0    0  501  503 -0.00000000000E+00 -0.00000000000E+00 -0.48587370930E+03  0.48587370930E+03  0.00000000000E+00 0. -1.
          6    2    1    2  501    0  0.26800587890E+01  0.55135010136E+02 -0.25335365689E+03  0.31128977476E+03  0.17223877715E+03 0.  0.
         24    2    3    3    0    0  0.59600910190E+02  0.60788646471E+02 -0.20419883981E+03  0.23572369130E+03  0.81369308855E+02 0.  0.
         -6    2    1    2    0  502 -0.26800587890E+01 -0.55135010136E+02 -0.16343508068E+03  0.24366890628E+03  0.17209432946E+03 0.  0.
        -24    2    5    5    0    0  0.22316507205E+02  0.29736747375E+02 -0.11066490140E+03  0.14054361667E+03  0.78252713359E+02 0.  0.
          5    1    3    3  501    0 -0.56920851401E+02 -0.56536363352E+01 -0.49154817079E+02  0.75566083464E+02  0.47000000000E+01 0. -1.
        -11    1    4    4    0    0  0.32603197511E+02 -0.15582332454E+02 -0.74633499362E+02  0.82921268681E+02  0.00000000000E+00 0.  1.
         12    1    4    4    0    0  0.26997712679E+02  0.76370978925E+02 -0.12956534045E+03  0.15280242262E+03  0.00000000000E+00 0. -1.
         -5    1    5    5    0  502 -0.24996565994E+02 -0.84871757510E+02 -0.52770179281E+02  0.10312528960E+03  0.47000000000E+01 0.  1.
         13    1    6    6    0    0  0.20374772582E+02 -0.24148955093E+02 -0.52137628124E+02  0.60964216194E+02  0.00000000000E+00 0. -1.
        -14    1    6    6    0    0  0.19417346235E+01  0.53885702467E+02 -0.58527273276E+02  0.79579400481E+02  0.00000000000E+00 0.  1.
</event>
<event>
12    1  0.1032880E+000  0.1829897E+03  0.7818608E-02  0.1165146E+00
         21   -1    0    0  501  502  0.00000000000E+00  0.00000000000E+00  0.62320301616E+03  0.62320301616E+03  0.00000000000E+00 0.  1.
         21   -1    0    0  502  503 -0.00000000000E+00 -0.00000000000E+00 -0.16853793694E+03  0.16853793694E+03  0.00000000000E+00 0.  1.
         -6    2    1    2    0  503 -0.32326771525E+02 -0.51404730890E+02  0.55425202718E+03  0.58340759390E+03  0.17170219705E+03 0.  0.
        -24    2    3    3    0    0  0.10328604144E+02 -0.26091559158E+02  0.51004191723E+03  0.51679782315E+03  0.78420553203E+02 0.  0.
          6    2    1    2  501    0  0.32326771525E+02  0.51404730890E+02 -0.99586947965E+02  0.20833335920E+03  0.17262028223E+03 0.  0.
         24    2    5    5    0    0  0.72663691650E+02  0.34407287460E+02 -0.17602275033E+02  0.11527661950E+03  0.80715459502E+02 0.  0.
          5    1    5    5  501    0 -0.40336920126E+02  0.16997443430E+02 -0.81984672932E+02  0.93056739703E+02  0.47000000000E+01 0. -1.
        -13    1    6    6    0    0  0.44085194842E+02 -0.10764521972E+02 -0.36856289243E+02  0.58461657472E+02  0.00000000000E+00 0.  1.
         14    1    6    6    0    0  0.28578496808E+02  0.45171809432E+02  0.19254014210E+02  0.56814962029E+02  0.00000000000E+00 0. -1.
         -5    1    3    3    0  503 -0.42655375668E+02 -0.25313171732E+02  0.44210109949E+02  0.66609770742E+02  0.47000000000E+01 0.  1.
         11    1    4    4    0    0 -0.28383329004E+02 -0.27729439026E+02  0.34471014487E+03  0.34698648263E+03  0.00000000000E+00 0. -1.
        -12    1    4    4    0    0  0.38711933147E+02  0.16378798683E+01  0.16533177236E+03  0.16981134052E+03  0.00000000000E+00 0.  1.
</event>
<event>
12    1  0.1032880E+000  0.2487741E+03  0.7818608E-02  0.1114195E+00
         21   -1    0    0  501  502  0.00000000000E+00  0.00000000000E+00  0.23406491074E+03  0.23406491074E+03  0.00000000000E+00 0. -1.
         21   -1    0    0  502  503 -0.00000000000E+00 -0.00000000000E+00 -0.26899709311E+03  0.26899709311E+03  0.00000000000E+00 0. -1.
         -6    2    1    2    0  503 -0.16444083589E+03 -0.72109271730E+02  0.18015925193E+02  0.24871572288E+03  0.17115607401E+03 0.  0.
        -24    2    3    3    0    0 -0.60524231114E+02  0.16589417194E+02 -0.26990036539E+02  0.10479301878E+03  0.79465233890E+02 0.  0.
          6    2    1    2  501    0  0.16444083589E+03  0.72109271730E+02 -0.52948107560E+02  0.25434628096E+03  0.17218592557E+03 0.  0.
         24    2    5    5    0    0  0.13912988262E+03  0.11890439880E+03 -0.60741237037E+02  0.20037173937E+03  0.54442224147E+02 0.  0.
          5    1    5    5  501    0  0.25310953276E+02 -0.46795127069E+02  0.77931294770E+01  0.53974541593E+02  0.47000000000E+01 0. -1.
        -11    1    6    6    0    0  0.88422142834E+02  0.63684761444E+02 -0.62037032136E+02  0.12539065970E+03  0.00000000000E+00 0.  1.
         12    1    6    6    0    0  0.50707739785E+02  0.55219637355E+02  0.12957950987E+01  0.74981079671E+02  0.00000000000E+00 0. -1.
         -5    1    3    3    0  503 -0.10391660478E+03 -0.88698688924E+02  0.45005961731E+02  0.14392270411E+03  0.47000000000E+01 0.  1.
         11    1    4    4    0    0 -0.14216061901E+01  0.38042588683E+02 -0.62093763973E+01  0.38572216337E+02  0.00000000000E+00 0. -1.
        -12    1    4    4    0    0 -0.59102624924E+02 -0.21453171490E+02 -0.20780660141E+02  0.66220802440E+02  0.00000000000E+00 0.  1.
</event>
<event>
12    1  0.1032880E+000  0.2633984E+03  0.7818608E-02  0.1106112E+00
         21   -1    0    0  503  502  0.00000000000E+00  0.00000000000E+00  0.86776803979E+02  0.86776803979E+02  0.00000000000E+00 0.  1.
         21   -1    0    0  501  503 -0.00000000000E+00 -0.00000000000E+00 -0.78991369483E+03  0.78991369483E+03  0.00000000000E+00 0.  1.
          6    2    1    2  501    0  0.18383428286E+03 -0.78908752994E+02 -0.40632211764E+03  0.48422762967E+03  0.17133913505E+03 0.  0.
         24    2    3    3    0    0  0.15317845889E+03  0.40603757297E+01 -0.29474277833E+03  0.34176467018E+03  0.80309759617E+02 0.  0.
         -6    2    1    2    0  502 -0.18383428286E+03  0.78908752994E+02 -0.29681477321E+03  0.39246286914E+03  0.16095483591E+03 0.  0.
        -24    2    5    5    0    0 -0.10237968305E+03  0.54481339713E+02 -0.26783733154E+03  0.30249991857E+03  0.79495589127E+02 0.  0.
          5    1    3    3  501    0  0.30655823970E+02 -0.82969128724E+02 -0.11157933931E+03  0.14246295949E+03  0.47000000000E+01 0. -1.
        -11    1    4    4    0    0  0.21323626711E+02 -0.48986067762E+01 -0.12366325085E+03  0.12558380873E+03  0.00000000000E+00 0.  1.
         12    1    4    4    0    0  0.13185483218E+03  0.89589825059E+01 -0.17107952748E+03  0.21618086146E+03  0.00000000000E+00 0. -1.
         -5    1    5    5    0  502 -0.81454599805E+02  0.24427413281E+02 -0.28977441672E+02  0.89962950568E+02  0.47000000000E+01 0.  1.
         11    1    6    6    0    0 -0.67317760999E+02  0.69393007465E+02 -0.14824496503E+03  0.17698485836E+03  0.00000000000E+00 0. -1.
        -12    1    6    6    0    0 -0.35061922056E+02 -0.14911667752E+02 -0.11959236651E+03  0.12551506021E+03  0.00000000000E+00 0.  1.
</event>
<event>
12    1  0.1032880E+000  0.1805817E+03  0.7818608E-02  0.1167367E+00
         21   -1    0    0  503  502  0.00000000000E+00  0.00000000000E+00  0.58806354316E+03  0.58806354316E+03  0.00000000000E+00 0.  1.
         21   -1    0    0  501  503 -0.00000000000E+00 -0.00000000000E+00 -0.70201675149E+02  0.70201675149E+02  0.00000000000E+00 0.  1.
          6    2    1    2  501    0  0.46465616052E+02  0.28500891400E+02  0.10696361946E+03  0.20943659438E+03  0.17161327714E+03 0.  0.
         24    2    3    3    0    0 -0.27737623595E+02  0.43076949365E+02  0.45167791781E+02  0.11166442780E+03  0.88339208119E+02 0.  0.
         -6    2    1    2    0  502 -0.46465616052E+02 -0.28500891400E+02  0.41089824855E+03  0.44882862393E+03  0.17215809220E+03 0.  0.
        -24    2    5    5    0    0 -0.94870357265E+02 -0.32180240761E+02  0.33648952439E+03  0.35986062510E+03  0.78984282572E+02 0.  0.
          5    1    3    3  501    0  0.74203239647E+02 -0.14576057965E+02  0.61795827678E+02  0.97772166584E+02  0.47000000000E+01 0. -1.
        -13    1    4    4    0    0  0.75588591918E+01 -0.22634947655E+02 -0.10991199612E+01  0.23889019911E+02  0.00000000000E+00 0.  1.
         14    1    4    4    0    0 -0.35296482787E+02  0.65711897020E+02  0.46266911742E+02  0.87775407884E+02  0.00000000000E+00 0. -1.
         -5    1    5    5    0  502  0.48404741213E+02  0.36793493610E+01  0.74408724163E+02  0.88967998826E+02  0.47000000000E+01 0.  1.
         13    1    6    6    0    0 -0.52931700392E+02 -0.52253885970E+02  0.14694650911E+03  0.16469823935E+03  0.00000000000E+00 0. -1.
        -14    1    6    6    0    0 -0.41938656873E+02  0.20073645208E+02  0.18954301527E+03  0.19516238575E+03  0.00000000000E+00 0.  1.
</event>
<event>
12    1  0.1032880E+000  0.3306526E+03  0.7818608E-02  0.1070940E+00
         21   -1    0    0  501  502  0.00000000000E+00  0.00000000000E+00  0.26056225033E+04  0.26056225033E+04  0.00000000000E+00 0.  1.
         21   -1    0    0  502  503 -0.00000000000E+00 -0.00000000000E+00 -0.99318285873E+02  0.99318285873E+02  0.00000000000E+00 0.  1.
         -6    2    1    2    0  503 -0.27285459893E+03 -0.68064050428E+02  0.22506416487E+03  0.39998123718E+03  0.17392171994E+03 0.  0.
        -24    2    3    3    0    0 -0.22509001485E+03 -0.28602336826E+02  0.10030381293E+03  0.26060434616E+03  0.79813293966E+02 0.  0.
          6    2    1    2  501    0  0.27285459893E+03  0.68064050428E+02  0.22812400526E+04  0.23049595520E+04  0.17233691371E+03 0.  0.
         24    2    5    5    0    0  0.10190637968E+03  0.89777197320E+02  0.11293980324E+04  0.11402892623E+04  0.79213828591E+02 0.  0.
          5    1    5    5  501    0  0.17094821925E+03 -0.21713146892E+02  0.11518420202E+04  0.11646702897E+04  0.47000000000E+01 0. -1.
        -11    1    6    6    0    0  0.71491941602E+01 -0.52902992187E+01  0.29743455174E+03  0.29756748950E+03  0.00000000000E+00 0.  1.
         12    1    6    6    0    0  0.94757185522E+02  0.95067496539E+02  0.83196348066E+03  0.84272177275E+03  0.00000000000E+00 0. -1.
         -5    1    3    3    0  503 -0.47764584085E+02 -0.39461713603E+02  0.12476035195E+03  0.13937689102E+03  0.47000000000E+01 0.  1.
         13    1    4    4    0    0 -0.13987589555E+03 -0.54072361829E+02  0.48162276667E+02  0.15750775016E+03  0.00000000000E+00 0. -1.
        -14    1    4    4    0    0 -0.85214119301E+02  0.25470025003E+02  0.52141536258E+02  0.10309659599E+03  0.00000000000E+00 0.  1.
</event>
<event>
12    1  0.1032880E+000  0.2139804E+03  0.7818608E-02  0.1139138E+00
         21   -1    0    0  501  502  0.00000000000E+00  0.00000000000E+00  0.84748819048E+03  0.84748819048E+03  0.00000000000E+00 0.  1.
         21   -1    0    0  502  503 -0.00000000000E+00 -0.00000000000E+00 -0.53425261436E+02  0.53425261436E+02  0.00000000000E+00 0.  1.
         -6    2    1    2    0  503  0.21422252705E+02  0.12145720178E+03  0.36097320639E+03  0.41784584162E+03  0.17053658507E+03 0.  0.
        -24    2    3    3    0    0 -0.37646611728E+01  0.14971063627E+03  0.31806166073E+03  0.36043392698E+03  0.79510681060E+02 0.  0.
          6    2    1    2  501    0 -0.21422252705E+02 -0.12145720178E+03  0.43308972265E+03  0.48306761030E+03  0.17486235581E+03 0.  0.
         24    2    5    5    0    0  0.37425924789E+02 -0.72355593458E+02  0.14523593074E+03  0.18514820601E+03  0.80934237873E+02 0.  0.
          5    1    5    5  501    0 -0.58848177494E+02 -0.49101608319E+02  0.28785379191E+03  0.29791940429E+03  0.47000000000E+01 0. -1.
        -13    1    6    6    0    0  0.14104655923E+02  0.17212179758E+02  0.29689691573E+02  0.37103614870E+02  0.00000000000E+00 0.  1.
         14    1    6    6    0    0  0.23321268866E+02 -0.89567773216E+02  0.11554623916E+03  0.14804459114E+03  0.00000000000E+00 0. -1.
         -5    1    3    3    0  503  0.25186913877E+02 -0.28253434497E+02  0.42911545666E+02  0.57411914643E+02  0.47000000000E+01 0.  1.
         13    1    4    4    0    0 -0.35635235379E+01  0.14457632664E+03  0.22652887590E+03  0.26875703626E+03  0.00000000000E+00 0. -1.
        -14    1    4    4    0    0 -0.20113763499E+00  0.51343096296E+01  0.91532784832E+02  0.91676890713E+02  0.00000000000E+00 0.  1.
</event>
<event>
12    1  0.1032880E+000  0.2193842E+03  0.7818608E-02  0.1135198E+00
         21   -1    0    0  501  502  0.00000000000E+00  0.00000000000E+00  0.19471196398E+02  0.19471196398E+02  0.00000000000E+00 0. -1.
         21   -1    0    0  502  503 -0.00000000000E+00 -0.00000000000E+00 -0.28102529869E+04  0.28102529869E+04  0.00000000000E+00 0. -1.
         -6    2    1    2    0  503  0.16769015889E+02 -0.12786617233E+03 -0.88146037380E+03  0.90835115071E+03  0.17747806761E+03 0.  0.
        -24    2    3    3    0    0  0.49780809593E+02 -0.13723715187E+02 -0.30194469483E+03  0.31676109735E+03  0.80625831468E+02 0.  0.
          6    2    1    2  501    0 -0.16769015889E+02  0.12786617233E+03 -0.19093214167E+04  0.19213730326E+04  0.17185779061E+03 0.  0.
         24    2    5    5    0    0 -0.25059476089E+02  0.15033752309E+03 -0.18375734743E+04  0.18455868163E+04  0.79278465083E+02 0.  0.
          5    1    5    5  501    0  0.82904602009E+01 -0.22471350760E+02 -0.71747942476E+02  0.75786216325E+02  0.47000000000E+01 0. -1.
        -13    1    6    6    0    0 -0.45178426954E+00  0.32879033209E+02 -0.14139105173E+03  0.14516426710E+03  0.00000000000E+00 0.  1.
         14    1    6    6    0    0 -0.24607691820E+02  0.11745848988E+03 -0.16961824225E+04  0.17004225492E+04  0.00000000000E+00 0. -1.
         -5    1    3    3    0  503 -0.33011793704E+02 -0.11414245714E+03 -0.57951567898E+03  0.59159005335E+03  0.47000000000E+01 0.  1.
         11    1    4    4    0    0  0.12665519056E+01 -0.14590447359E+02 -0.44085754406E+01  0.15294471069E+02  0.00000000000E+00 0. -1.
        -12    1    4    4    0    0  0.48514257687E+02  0.86673217228E+00 -0.29753611939E+03  0.30146662628E+03  0.00000000000E+00 0.  1.
</event>
<event>
12    1  0.1032880E+000  0.5121037E+03  0.7818608E-02  0.1010984E+00
         21   -1    0    0  503  502  0.00000000000E+00  0.00000000000E+00  0.23848896085E+03  0.23848896085E+03  0.00000000000E+00 0.  1.
         21   -1    0    0  501  503 -0.00000000000E+00 -0.00000000000E+00 -0.12996987406E+04  0.12996987406E+04  0.00000000000E+00 0.  1.
          6    2    1    2  501    0 -0.43064251958E+03 -0.20798769710E+03 -0.22309601185E+03  0.55858927973E+03  0.18313462565E+03 0.  0.
         24    2    3    3    0    0 -0.18040285837E+03 -0.16698172057E+03 -0.10715062640E+03  0.27972228534E+03  0.79594056726E+02 0.  0.
         -6    2    1    2    0  502  0.43064251958E+03  0.20798769710E+03 -0.83811376789E+03  0.97959842172E+03  0.16872023619E+03 0.  0.
        -24    2    5    5    0    0  0.27869805503E+03  0.19658986223E+03 -0.52190999696E+03  0.62856573707E+03  0.79904074208E+02 0.  0.
          5    1    3    3  501    0 -0.25023966121E+03 -0.41005976527E+02 -0.11594538545E+03  0.27886699439E+03  0.47000000000E+01 0. -1.
        -13    1    4    4    0    0 -0.51978224945E+02 -0.16210261784E+02  0.19804650360E+00  0.54447659986E+02  0.00000000000E+00 0.  1.
         14    1    4    4    0    0 -0.12842463343E+03 -0.15077145878E+03 -0.10734867291E+03  0.22527462536E+03  0.00000000000E+00 0. -1.
         -5    1    5    5    0  502  0.15194446455E+03  0.11397834864E+02 -0.31620377093E+03  0.35103268466E+03  0.47000000000E+01 0.  1.
         13    1    6    6    0    0  0.17643856645E+03  0.98701210843E+02 -0.24562153136E+03  0.31812329908E+03  0.00000000000E+00 0. -1.
        -14    1    6    6    0    0  0.10225948858E+03  0.97888651389E+02 -0.27628846560E+03  0.31044243798E+03  0.00000000000E+00 0.  1.
</event>
<event>
12    1  0.1032880E+000  0.1822756E+03  0.7818608E-02  0.1165873E+00
         21   -1    0    0  501  502  0.00000000000E+00  0.00000000000E+00  0.13684695485E+04  0.13684695485E+04  0.00000000000E+00 0. -1.
         21   -1    0    0  502  503 -0.00000000000E+00 -0.00000000000E+00 -0.24190325632E+02  0.24190325632E+02  0.00000000000E+00 0. -1.
         -6    2    1    2    0  503  0.45691197484E+02 -0.35990225769E+02  0.64142146933E+03  0.66681772651E+03  0.17274662715E+03 0.  0.
        -24    2    3    3    0    0  0.45290259428E+02 -0.49981004088E+02  0.64344814059E+03  0.65191470582E+03  0.80112206718E+02 0.  0.
          6    2    1    2  501    0 -0.45691197484E+02  0.35990225769E+02  0.70285775355E+03  0.72584214763E+03  0.17162406497E+03 0.  0.
         24    2    5    5    0    0 -0.35681141137E+02  0.86569673009E+02  0.57542686374E+03  0.58829505246E+03  0.78787950381E+02 0.  0.
          5    1    5    5  501    0 -0.10010056347E+02 -0.50579447240E+02  0.12743088981E+03  0.13754709517E+03  0.47000000000E+01 0. -1.
        -13    1    6    6    0    0 -0.28020275272E+01  0.59050204919E+01  0.28526947280E+03  0.28534434064E+03  0.00000000000E+00 0.  1.
         14    1    6    6    0    0 -0.32879113610E+02  0.80664652517E+02  0.29015739094E+03  0.30295071182E+03  0.00000000000E+00 0. -1.
         -5    1    3    3    0  503  0.40093805573E+00  0.13990778319E+02 -0.20266712607E+01  0.14903020690E+02  0.47000000000E+01 0.  1.
         13    1    4    4    0    0  0.61679663356E+02 -0.20671890989E+02  0.51727750006E+03  0.52135181981E+03  0.00000000000E+00 0. -1.
        -14    1    4    4    0    0 -0.16389403927E+02 -0.29309113099E+02  0.12617064053E+03  0.13056288601E+03  0.00000000000E+00 0.  1.
</event>
<event>
12    1  0.1032880E+000  0.2697985E+03  0.7818608E-02  0.1101426E+00
         21   -1    0    0  501  502  0.00000000000E+00  0.00000000000E+00  0.38867457580E+03  0.38867457580E+03  0.00000000000E+00 0. -1.
         21   -1    0    0  502  503 -0.00000000000E+00 -0.00000000000E+00 -0.18721287733E+03  0.18721287733E+03  0.00000000000E+00 0. -1.
         -6    2    1    2    0  503 -0.10323841273E+03 -0.18156491755E+03  0.94632620193E+02  0.28570870153E+03  0.17044101672E+03 0.  0.
        -24    2    3    3    0    0 -0.67470633939E+02 -0.39756630933E+02  0.73663805380E+02  0.13788886069E+03  0.86337161934E+02 0.  0.
          6    2    1    2  501    0  0.10323841273E+03  0.18156491755E+03  0.10682907827E+03  0.29017875160E+03  0.17078426967E+03 0.  0.
         24    2    5    5    0    0  0.60510037512E+02  0.72314411075E+02 -0.12909640872E+02  0.12248606220E+03  0.77106017390E+02 0.  0.
          5    1    5    5  501    0  0.42728375216E+02  0.10925050648E+03  0.11973871914E+03  0.16769268939E+03  0.47000000000E+01 0. -1.
        -13    1    6    6    0    0  0.11579482100E+02  0.24233259965E+02  0.31015509704E+02  0.41028004296E+02  0.00000000000E+00 0.  1.
         14    1    6    6    0    0  0.48930555412E+02  0.48081151109E+02 -0.43925150576E+02  0.81458057907E+02  0.00000000000E+00 0. -1.
         -5    1    3    3    0  503 -0.35767778789E+02 -0.14180828662E+03  0.20968814813E+02  0.14781984085E+03  0.47000000000E+01 0.  1.
         11    1    4    4    0    0 -0.85312778966E+02 -0.27361109269E+02  0.73936868896E+02  0.11616178863E+03  0.00000000000E+00 0. -1.
        -12    1    4    4    0    0  0.17842145027E+02 -0.12395521664E+02 -0.27306351545E+00  0.21727072057E+02  0.00000000000E+00 0.  1.
</event>
<event>
12    1  0.1032880E+000  0.1959991E+03  0.7818608E-02  0.1153217E+00
         21   -1    0    0  501  502  0.00000000000E+00  0.00000000000E+00  0.20708059238E+03  0.20708059238E+03  0.00000000000E+00 0. -1.
         21   -1    0    0  502  503 -0.00000000000E+00 -0.00000000000E+00 -0.30906656365E+03  0.30906656365E+03  0.00000000000E+00 0. -1.
         -6    2    1    2    0  503 -0.83789424385E+02 -0.42315490611E+02 -0.21435490151E+03  0.29045424600E+03  0.17205922478E+03 0.  0.
        -24    2    3    3    0    0 -0.19787230076E+02  0.28307002252E+02 -0.15378588812E+03  0.17742985590E+03  0.81476582696E+02 0.  0.
          6    2    1    2  501    0  0.83789424385E+02  0.42315490611E+02  0.11236893024E+03  0.22569291003E+03  0.17175344180E+03 0.  0.
         24    2    5    5    0    0  0.16309355504E+02  0.77689337828E+02  0.95697550843E+02  0.14755909114E+03  0.79460907700E+02 0.  0.
          5    1    5    5  501    0  0.67480068880E+02 -0.35373847217E+02  0.16671379395E+02  0.78133818888E+02  0.47000000000E+01 0. -1.
        -13    1    6    6    0    0  0.40923850770E+02  0.40114653493E+02  0.22268566400E+02  0.61480371146E+02  0.00000000000E+00 0.  1.
         14    1    6    6    0    0 -0.24614495266E+02  0.37574684335E+02  0.73428984443E+02  0.86078719997E+02  0.00000000000E+00 0. -1.
         -5    1    3    3    0  503 -0.64002194309E+02 -0.70622492863E+02 -0.60569013391E+02  0.11302439010E+03  0.47000000000E+01 0.  1.
         11    1    4    4    0    0 -0.23407225324E+01  0.54998859673E+01 -0.14802144129E+03  0.14814207643E+03  0.00000000000E+00 0. -1.
        -12    1    4    4    0    0 -0.17446507543E+02  0.22807116285E+02 -0.57644468292E+01  0.29287779464E+02  0.00000000000E+00 0.  1.
</event>
<event>
12    1  0.1032880E+000  0.2760057E+03  0.7818608E-02  0.1098013E+00
         21   -1    0    0  503  502  0.00000000000E+00  0.00000000000E+00  0.76157275352E+03  0.76157275352E+03  0.00000000000E+00 0.  1.
         21   -1    0    0  501  503 -0.00000000000E+00 -0.00000000000E+00 -0.10122963784E+03  0.10122963784E+03  0.00000000000E+00 0. -1.
          6    2    1    2  501    0  0.13327249205E+03  0.16841843340E+03  0.27785270457E+03  0.39163917665E+03  0.17335741520E+03 0.  0.
         24    2    3    3    0    0  0.18374492802E+02  0.11258920207E+03  0.94158944184E+02  0.16784476004E+03  0.79322167731E+02 0.  0.
         -6    2    1    2    0  502 -0.13327249205E+03 -0.16841843340E+03  0.38249041111E+03  0.47116321471E+03  0.17195794387E+03 0.  0.
        -24    2    5    5    0    0 -0.11341252984E+03 -0.69007522542E+02  0.30801774000E+03  0.34528543257E+03  0.81991839186E+02 0.  0.
          5    1    3    3  501    0  0.11489799925E+03  0.55829231324E+02  0.18369376038E+03  0.22379441661E+03  0.47000000000E+01 0. -1.
        -13    1    4    4    0    0  0.21045345807E+02  0.52848258245E+02  0.91802307715E+02  0.10799772535E+03  0.00000000000E+00 0.  1.
         14    1    4    4    0    0 -0.26708530046E+01  0.59740943829E+02  0.23566364691E+01  0.59847034686E+02  0.00000000000E+00 0. -1.
         -5    1    5    5    0  502 -0.19859962207E+02 -0.99410910856E+02  0.74472671105E+02  0.12587778214E+03  0.47000000000E+01 0.  1.
         13    1    6    6    0    0 -0.82439933727E+02 -0.23228313176E+02  0.10838307131E+03  0.13814046240E+03  0.00000000000E+00 0. -1.
        -14    1    6    6    0    0 -0.30972596117E+02 -0.45779209366E+02  0.19963466870E+03  0.20714497017E+03  0.00000000000E+00 0.  1.
</event>
<event>
12    1  0.1032880E+000  0.1896499E+03  0.7818608E-02  0.1158784E+00
         21   -1    0    0  503  502  0.00000000000E+00  0.00000000000E+00  0.28905854197E+03  0.28905854197E+03  0.00000000000E+00 0. -1.
         21   -1    0    0  501  503 -0.00000000000E+00 -0.00000000000E+00 -0.14251739992E+03  0.14251739992E+03  0.00000000000E+00 0. -1.
          6    2    1    2  501    0 -0.55272044085E+02  0.58056308563E+02  0.15019597920E+03  0.24192132427E+03  0.17187658697E+03 0.  0.
         24    2    3    3    0    0 -0.63238148280E+02  0.61462947149E+02  0.17631927953E+03  0.21400034968E+03  0.83252051375E+02 0.  0.
         -6    2    1    2    0  502  0.55272044085E+02 -0.58056308563E+02 -0.36548371435E+01  0.18965461762E+03  0.17184290014E+03 0.  0.
        -24    2    5    5    0    0  0.89390186673E+02 -0.82614844319E+02  0.13358392315E+02  0.14406175295E+03  0.75891528132E+02 0.  0.
          5    1    3    3  501    0  0.79661041949E+01 -0.34066385855E+01 -0.26123300328E+02  0.27920974599E+02  0.47000000000E+01 0. -1.
        -13    1    4    4    0    0 -0.21962982171E+02  0.45817575506E+02  0.25490679391E+02  0.56845382811E+02  0.00000000000E+00 0.  1.
         14    1    4    4    0    0 -0.41275166109E+02  0.15645371643E+02  0.15082860014E+03  0.15715496686E+03  0.00000000000E+00 0. -1.
         -5    1    5    5    0  502 -0.34118142588E+02  0.24558535755E+02 -0.17013229459E+02  0.45592864669E+02  0.47000000000E+01 0.  1.
         13    1    6    6    0    0  0.96944065242E+02 -0.65383993283E+02  0.27980745715E+02  0.12023369118E+03  0.00000000000E+00 0. -1.
        -14    1    6    6    0    0 -0.75538785691E+01 -0.17230851035E+02 -0.14622353400E+02  0.23828061772E+02  0.00000000000E+00 0.  1.
</event>
<event>
12    1  0.1032880E+000  0.1734511E+03  0.7818608E-02  0.1174476E+00
         21   -1    0    0  501  502  0.00000000000E+00  0.00000000000E+00  0.55044512728E+03  0.55044512728E+03  0.00000000000E+00 0.  1.
         21   -1    0    0  502  503 -0.00000000000E+00 -0.00000000000E+00 -0.73173127857E+02  0.73173127857E+02  0.00000000000E+00 0.  1.
         -6    2    1    2    0  503 -0.23702553457E+02 -0.24423682284E+01  0.80477454838E+02  0.19056952732E+03  0.17109163569E+03 0.  0.
        -24    2    3    3    0    0 -0.71005649022E+02  0.26624378479E+02  0.11701170062E+02  0.10205553994E+03  0.67288603268E+02 0.  0.
          6    2    1    2  501    0  0.23702553457E+02  0.24423682284E+01  0.39679454459E+03  0.43304872782E+03  0.17180661759E+03 0.  0.
         24    2    5    5    0    0 -0.18318659924E+02  0.50453745643E+02  0.31453964199E+03  0.32884299987E+03  0.79507096733E+02 0.  0.
          5    1    5    5  501    0  0.42021213381E+02 -0.48011377415E+02  0.82254902597E+02  0.10420572794E+03  0.47000000000E+01 0. -1.
        -11    1    6    6    0    0  0.27597860685E+02  0.40257595621E+02  0.15322072131E+03  0.16080704387E+03  0.00000000000E+00 0.  1.
         12    1    6    6    0    0 -0.45916520609E+02  0.10196150022E+02  0.16131892068E+03  0.16803595600E+03  0.00000000000E+00 0. -1.
         -5    1    3    3    0  503  0.47303095566E+02 -0.29066746707E+02  0.68776284776E+02  0.88513987380E+02  0.47000000000E+01 0.  1.
         11    1    4    4    0    0 -0.23261161984E+02  0.36066994344E+02  0.27398479286E+02  0.50917446961E+02  0.00000000000E+00 0. -1.
        -12    1    4    4    0    0 -0.47744487039E+02 -0.94426158650E+01 -0.15697309225E+02  0.51138092982E+02  0.00000000000E+00 0.  1.
</event>
<event>
12    1  0.1032880E+000  0.2010315E+03  0.7818608E-02  0.1149230E+00
         21   -1    0    0  503  502  0.00000000000E+00  0.00000000000E+00  0.35377387886E+03  0.35377387886E+03  0.00000000000E+00 0.  1.
         21   -1    0    0  501  503 -0.00000000000E+00 -0.00000000000E+00 -0.13153955029E+03  0.13153955029E+03  0.00000000000E+00 0.  1.
          6    2    1    2  501    0  0.65272621527E+02 -0.78930135852E+02  0.20195574913E+03  0.28495578157E+03  0.17298321126E+03 0.  0.
         24    2    3    3    0    0  0.62404411138E+02 -0.27329747417E+02  0.36587867306E+02  0.11163684707E+03  0.80516383216E+02 0.  0.
         -6    2    1    2    0  502 -0.65272621527E+02  0.78930135852E+02  0.20278579453E+02  0.20035764759E+03  0.17100141723E+03 0.  0.
        -24    2    5    5    0    0 -0.58081101097E+02  0.52152958798E+02 -0.51913364575E+02  0.12288183226E+03  0.79445590583E+02 0.  0.
          5    1    3    3  501    0  0.28682103892E+01 -0.51600388435E+02  0.16536788182E+03  0.17331893450E+03  0.47000000000E+01 0. -1.
        -13    1    4    4    0    0  0.27574781200E+02  0.26509089765E+02  0.91981094307E+00  0.38261553165E+02  0.00000000000E+00 0.  1.
         14    1    4    4    0    0  0.34829629938E+02 -0.53838837182E+02  0.35668056362E+02  0.73375293904E+02  0.00000000000E+00 0. -1.
         -5    1    5    5    0  502 -0.71915204299E+01  0.26777177054E+02  0.72191944028E+02  0.77475815321E+02  0.47000000000E+01 0.  1.
         11    1    6    6    0    0 -0.26232082205E+02  0.65545070005E+02 -0.14721001220E+02  0.72117863360E+02  0.00000000000E+00 0. -1.
        -12    1    6    6    0    0 -0.31849018892E+02 -0.13392111207E+02 -0.37192363355E+02  0.50763968904E+02  0.00000000000E+00 0.  1.
</event>
<event>
12    1  0.1032880E+000  0.2679091E+03  0.7818608E-02  0.1102945E+00
         21   -1    0    0  503  502  0.00000000000E+00  0.00000000000E+00  0.25120604636E+03  0.25120604636E+03  0.00000000000E+00 0.  1.
         21   -1    0    0  501  503 -0.00000000000E+00 -0.00000000000E+00 -0.30406843967E+03  0.30406843967E+03  0.00000000000E+00 0.  1.
          6    2    1    2  501    0 -0.44440423034E+02  0.19903428388E+03  0.47636439255E+02  0.27211119433E+03  0.17374024973E+03 0.  0.
         24    2    3    3    0    0  0.26008202490E+02  0.61592647723E+02  0.55705594996E+02  0.11738429472E+03  0.78777398305E+02 0.  0.
         -6    2    1    2    0  502  0.44440423034E+02 -0.19903428388E+03 -0.10049883257E+03  0.28316329170E+03  0.16879525188E+03 0.  0.
        -24    2    5    5    0    0 -0.15285663563E+01 -0.20000512951E+03 -0.10027124592E+03  0.23694389834E+03  0.77998075994E+02 0.  0.
          5    1    3    3  501    0 -0.70448625524E+02  0.13744163616E+03 -0.80691557407E+01  0.15472689961E+03  0.47000000000E+01 0. -1.
        -13    1    4    4    0    0  0.54429405627E+02  0.42343060465E+02  0.35687888563E+02  0.77647410495E+02  0.00000000000E+00 0.  1.
         14    1    4    4    0    0 -0.28421203137E+02  0.19249587258E+02  0.20017706433E+02  0.39736884229E+02  0.00000000000E+00 0. -1.
         -5    1    5    5    0  502  0.45968989390E+02  0.97084562700E+00 -0.22758665684E+00  0.46219393359E+02  0.47000000000E+01 0.  1.
         13    1    6    6    0    0 -0.66641841358E+00 -0.17822855706E+03 -0.11364035906E+03  0.21137642696E+03  0.00000000000E+00 0. -1.
        -14    1    6    6    0    0 -0.86214794277E+00 -0.21776572445E+02  0.13369113146E+02  0.25567471381E+02  0.00000000000E+00 0.  1.
</event>
<event>
12    1  0.1032880E+000  0.2540478E+03  0.7818608E-02  0.1111177E+00
         21   -1    0    0  503  502  0.00000000000E+00  0.00000000000E+00  0.45269799102E+03  0.45269799102E+03  0.00000000000E+00 0.  1.
         21   -1    0    0  501  503 -0.00000000000E+00 -0.00000000000E+00 -0.14980782081E+03  0.14980782081E+03  0.00000000000E+00 0.  1.
          6    2    1    2  501    0 -0.16896350678E+02  0.18263785645E+03  0.79607806604E+02  0.26622868270E+03  0.17577893885E+03 0.  0.
         24    2    3    3    0    0 -0.44853139742E+02  0.20058281568E+03  0.80898924892E+02  0.23265249169E+03  0.73056661209E+02 0.  0.
         -6    2    1    2    0  502  0.16896350678E+02 -0.18263785645E+03  0.22328236360E+03  0.33627712913E+03  0.17200354765E+03 0.  0.
        -24    2    5    5    0    0  0.31051847154E+02 -0.19125204353E+03  0.23581537824E+03  0.31497574994E+03  0.77841306952E+02 0.  0.
          5    1    3    3  501    0  0.27956789064E+02 -0.17944959229E+02 -0.12911182882E+01  0.33576191012E+02  0.47000000000E+01 0. -1.
        -13    1    4    4    0    0  0.13941651902E+02  0.70990530142E+02  0.80764057910E+01  0.72795970754E+02  0.00000000000E+00 0.  1.
         14    1    4    4    0    0 -0.58794791643E+02  0.12959228554E+03  0.72822519101E+02  0.15985652093E+03  0.00000000000E+00 0. -1.
         -5    1    5    5    0  502 -0.14155496476E+02  0.86141870741E+01 -0.12533014642E+02  0.21301379191E+02  0.47000000000E+01 0.  1.
         11    1    6    6    0    0 -0.56140464472E+01 -0.15518091624E+03  0.19524820019E+03  0.24946842277E+03  0.00000000000E+00 0. -1.
        -12    1    6    6    0    0  0.36665893601E+02 -0.36071127287E+02  0.40567178055E+02  0.65507327168E+02  0.00000000000E+00 0.  1.
</event>
<event>
12    1  0.1032880E+000  0.2474455E+03  0.7818608E-02  0.1115085E+00
         21   -1    0    0  501  502  0.00000000000E+00  0.00000000000E+00  0.16225981330E+04  0.16225981330E+04  0.00000000000E+00 0. -1.
         21   -1    0    0  502  503 -0.00000000000E+00 -0.00000000000E+00 -0.49215966016E+02  0.49215966016E+02  0.00000000000E+00 0. -1.
         -6    2    1    2    0  503  0.33172552665E+02  0.17418849031E+03  0.38156100838E+03  0.45477254100E+03  0.17258972311E+03 0.  0.
        -24    2    3    3    0    0  0.55112985946E+02  0.37345131471E+02  0.11624647471E+03  0.15540424066E+03  0.78772679706E+02 0.  0.
          6    2    1    2  501    0 -0.33172552665E+02 -0.17418849031E+03  0.11918211586E+04  0.12170415580E+04  0.17120289553E+03 0.  0.
         24    2    5    5    0    0 -0.21353173052E+02 -0.11861374653E+03  0.44004339047E+03  0.46310512002E+03  0.79391358640E+02 0.  0.
          5    1    5    5  501    0 -0.11819379613E+02 -0.55574743778E+02  0.75177776812E+03  0.75393643799E+03  0.47000000000E+01 0. -1.
        -13    1    6    6    0    0 -0.34231909777E+02 -0.54445229113E+02  0.31981296111E+03  0.32621532262E+03  0.00000000000E+00 0.  1.
         14    1    6    6    0    0  0.12878736725E+02 -0.64168517418E+02  0.12023042936E+03  0.13688979740E+03  0.00000000000E+00 0. -1.
         -5    1    3    3    0  503 -0.21940433282E+02  0.13684335884E+03  0.26531453367E+03  0.29936830034E+03  0.47000000000E+01 0.  1.
         13    1    4    4    0    0  0.25123303216E+01 -0.16283061131E+02 -0.60895564220E+00  0.16486986092E+02  0.00000000000E+00 0. -1.
        -14    1    4    4    0    0  0.52600655625E+02  0.53628192602E+02  0.11685543035E+03  0.13891725457E+03  0.00000000000E+00 0.  1.
</event>
<event>
12    1  0.1032880E+000  0.2275625E+03  0.7818608E-02  0.1128885E+00
         21   -1    0    0  503  502  0.00000000000E+00  0.00000000000E+00  0.69891331350E+02  0.69891331350E+02  0.00000000000E+00 0. -1.
         21   -1    0    0  501  503 -0.00000000000E+00 -0.00000000000E+00 -0.14166832093E+04  0.14166832093E+04  0.00000000000E+00 0. -1.
          6    2    1    2  501    0  0.11744887950E+03 -0.91296723558E+02 -0.11880668469E+04  0.12091248619E+04  0.16837686264E+03 0.  0.
         24    2    3    3    0    0  0.13170402334E+03 -0.11659255072E+03 -0.10785941377E+04  0.10957694383E+04  0.80034838371E+02 0.  0.
         -6    2    1    2    0  502 -0.11744887950E+03  0.91296723558E+02 -0.15872503098E+03  0.27744967871E+03  0.17220731032E+03 0.  0.
        -24    2    5    5    0    0 -0.11951145282E+03  0.20560455025E+02 -0.62275662344E+02  0.15773149043E+03  0.79342581794E+02 0.  0.
          5    1    3    3  501    0 -0.14255143840E+02  0.25295827159E+02 -0.10947270919E+03  0.11335542358E+03  0.47000000000E+01 0. -1.
        -13    1    4    4    0    0  0.68115118889E+02 -0.22845063743E+02 -0.58208115390E+03  0.58649811260E+03  0.00000000000E+00 0.  1.
         14    1    4    4    0    0  0.63588904448E+02 -0.93747486973E+02 -0.49651298384E+03  0.50927132572E+03  0.00000000000E+00 0. -1.
         -5    1    5    5    0  502  0.20625733225E+01  0.70736268533E+02 -0.96449368641E+02  0.11971818828E+03  0.47000000000E+01 0.  1.
         11    1    6    6    0    0  0.58802839251E+00 -0.33665656577E+01 -0.31204989990E+02  0.31391574379E+02  0.00000000000E+00 0. -1.
        -12    1    6    6    0    0 -0.12009948121E+03  0.23927020683E+02 -0.31070672354E+02  0.12633991605E+03  0.00000000000E+00 0.  1.
</event>
<event>
12    1  0.1032880E+000  0.2654002E+03  0.7818608E-02  0.1103978E+00
         21   -1    0    0  503  502  0.00000000000E+00  0.00000000000E+00  0.58507008759E+03  0.58507008759E+03  0.00000000000E+00 0.  1.
         21   -1    0    0  501  503 -0.00000000000E+00 -0.00000000000E+00 -0.15637039599E+03  0.15637039599E+03  0.00000000000E+00 0.  1.
          6    2    1    2  501    0  0.16902210394E+03  0.11013053816E+03  0.39237880415E+03  0.47356650497E+03  0.17206656161E+03 0.  0.
         24    2    3    3    0    0  0.16331027002E+03  0.52686337138E+02  0.21151698517E+03  0.28365718755E+03  0.79220392685E+02 0.  0.
         -6    2    1    2    0  502 -0.16902210394E+03 -0.11013053816E+03  0.36320887447E+02  0.26787397861E+03  0.17245305011E+03 0.  0.
        -24    2    5    5    0    0 -0.10901408743E+03 -0.37090968382E+02  0.85606117342E+02  0.16116472556E+03  0.73388352246E+02 0.  0.
          5    1    3    3  501    0  0.57118339213E+01  0.57444201025E+02  0.18086181898E+03  0.18990931742E+03  0.47000000000E+01 0. -1.
        -11    1    4    4    0    0  0.59064356955E+02  0.58903970802E+02  0.78511978625E+02  0.11455307428E+03  0.00000000000E+00 0.  1.
         12    1    4    4    0    0  0.10424591307E+03 -0.62176336634E+01  0.13300500654E+03  0.16910411327E+03  0.00000000000E+00 0. -1.
         -5    1    5    5    0  502 -0.60008016513E+02 -0.73039569782E+02 -0.49285229895E+02  0.10670925305E+03  0.47000000000E+01 0.  1.
         13    1    6    6    0    0 -0.47459973478E+02 -0.53648928952E+02  0.34708312546E+02  0.79594746184E+02  0.00000000000E+00 0. -1.
        -14    1    6    6    0    0 -0.61554113952E+02  0.16557960571E+02  0.50897804797E+02  0.81569979379E+02  0.00000000000E+00 0.  1.
</event>
<event>
12    1  0.1032880E+000  0.2269960E+03  0.7818608E-02  0.1128825E+00
         21   -1    0    0  503  502  0.00000000000E+00  0.00000000000E+00  0.13379404200E+04  0.13379404200E+04  0.00000000000E+00 0.  1.
         21   -1    0    0  501  503 -0.00000000000E+00 -0.00000000000E+00 -0.39627449804E+02  0.39627449804E+02  0.00000000000E+00 0.  1.
          6    2    1    2  501    0 -0.13714011690E+03  0.55128086451E+02  0.53061659518E+03  0.57701498960E+03  0.17188894542E+03 0.  0.
         24    2    3    3    0    0 -0.62581083640E+02  0.97468038469E+02  0.34526437352E+03  0.37273758739E+03  0.79431800174E+02 0.  0.
         -6    2    1    2    0  502  0.13714011690E+03 -0.55128086451E+02  0.76769637506E+03  0.80055288025E+03  0.17228079469E+03 0.  0.
        -24    2    5    5    0    0  0.81340672291E+02 -0.88692176331E+02  0.36884062786E+03  0.39638939449E+03  0.81231374432E+02 0.  0.
          5    1    3    3  501    0 -0.74559033263E+02 -0.42339952018E+02  0.18535222166E+03  0.20427740221E+03  0.47000000000E+01 0. -1.
        -11    1    4    4    0    0 -0.28412353639E+02  0.20517295274E+01  0.29083128113E+02  0.40709946870E+02  0.00000000000E+00 0.  1.
         12    1    4    4    0    0 -0.34168730001E+02  0.95416308941E+02  0.31618124540E+03  0.33202764052E+03  0.00000000000E+00 0. -1.
         -5    1    5    5    0  502  0.55799444612E+02  0.33564089880E+02  0.39885574720E+03  0.40416348576E+03  0.47000000000E+01 0.  1.
         13    1    6    6    0    0 -0.61353406660E+00 -0.56612528690E+01 -0.31679719297E+01  0.65163067949E+01  0.00000000000E+00 0. -1.
        -14    1    6    6    0    0  0.81954206357E+02 -0.83030923462E+02  0.37200859979E+03  0.38987308770E+03  0.00000000000E+00 0.  1.
</event>
<event>
12    1  0.1032880E+000  0.2107903E+03  0.7818608E-02  0.1141021E+00
         21   -1    0    0  501  502  0.00000000000E+00  0.00000000000E+00  0.88610869428E+03  0.88610869428E+03  0.00000000000E+00 0.  1.
         21   -1    0    0  502  503 -0.00000000000E+00 -0.00000000000E+00 -0.89974335731E+02  0.89974335731E+02  0.00000000000E+00 0.  1.
         -6    2    1    2    0  503 -0.36071916666E+02 -0.11567651558E+03  0.72338727474E+03  0.75347308083E+03  0.17248273786E+03 0.  0.
        -24    2    3    3    0    0 -0.45951835026E+02 -0.13097968399E+03  0.41343479560E+03  0.44295024902E+03  0.77519959616E+02 0.  0.
          6    2    1    2  501    0  0.36071916666E+02  0.11567651558E+03  0.72747083815E+02  0.22260994918E+03  0.17199073185E+03 0.  0.
         24    2    5    5    0    0  0.15401296834E+02  0.81300356818E+02 -0.24385022823E+02  0.11741617106E+03  0.79655382273E+02 0.  0.
          5    1    5    5  501    0  0.20670619832E+02  0.34376158763E+02  0.97132106639E+02  0.10519377812E+03  0.47000000000E+01 0. -1.
        -11    1    6    6    0    0  0.16477775404E+01  0.42425379594E+02  0.27917133170E+02  0.50813328261E+02  0.00000000000E+00 0.  1.
         12    1    6    6    0    0  0.13753519294E+02  0.38874977224E+02 -0.52302155994E+02  0.66602842798E+02  0.00000000000E+00 0. -1.
         -5    1    3    3    0  503  0.98799183603E+01  0.15303168408E+02  0.30995247914E+03  0.31052283181E+03  0.47000000000E+01 0.  1.
         11    1    4    4    0    0 -0.57483003720E+02 -0.47157667535E+02  0.18960236241E+03  0.20365951281E+03  0.00000000000E+00 0. -1.
        -12    1    4    4    0    0  0.11531168693E+02 -0.83822016455E+02  0.22383243318E+03  0.23929073621E+03  0.00000000000E+00 0.  1.
</event>
<event>
12    1  0.1032880E+000  0.1999969E+03  0.7818608E-02  0.1152997E+00
         21   -1    0    0  501  502  0.00000000000E+00  0.00000000000E+00  0.11557971408E+03  0.11557971408E+03  0.00000000000E+00 0.  1.
         21   -1    0    0  502  503 -0.00000000000E+00 -0.00000000000E+00 -0.32237344644E+03  0.32237344644E+03  0.00000000000E+00 0.  1.
         -6    2    1    2    0  503  0.11479439875E+02 -0.61100967065E+02 -0.11415657128E+03  0.21754353858E+03  0.17443727439E+03 0.  0.
        -24    2    3    3    0    0  0.69156014048E+02 -0.90419476374E+01 -0.81404939002E+02  0.13309539989E+03  0.78887960302E+02 0.  0.
          6    2    1    2  501    0 -0.11479439875E+02  0.61100967065E+02 -0.92637161085E+02  0.22040962194E+03  0.19008853757E+03 0.  0.
         24    2    5    5    0    0 -0.37771401653E+02  0.12139118211E+02  0.16887533344E+02  0.97502020113E+02  0.87449517837E+02 0.  0.
          5    1    5    5  501    0  0.26291961778E+02  0.48961848854E+02 -0.10952469443E+03  0.12290760183E+03  0.47000000000E+01 0. -1.
        -13    1    6    6    0    0 -0.41041393523E+02  0.15059216760E+02 -0.28316127344E+02  0.52086265556E+02  0.00000000000E+00 0.  1.
         14    1    6    6    0    0  0.32699918699E+01 -0.29200985492E+01  0.45203660689E+02  0.45415754558E+02  0.00000000000E+00 0. -1.
         -5    1    3    3    0  503 -0.57676574172E+02 -0.52059019427E+02 -0.32751632277E+02  0.84448138694E+02  0.47000000000E+01 0.  1.
         11    1    4    4    0    0  0.42380630215E+02 -0.28983587731E+02 -0.85220894103E+02  0.99492547293E+02  0.00000000000E+00 0. -1.
        -12    1    4    4    0    0  0.26775383833E+02  0.19941640094E+02  0.38159551003E+01  0.33602852593E+02  0.00000000000E+00 0.  1.
</event>
<event>
12    1  0.1032880E+000  0.1818863E+03  0.7818608E-02  0.1166801E+00
         21   -1    0    0  501  502  0.00000000000E+00  0.00000000000E+00  0.94580630110E+02  0.94580630110E+02  0.00000000000E+00 0. -1.
         21   -1    0    0  502  503 -0.00000000000E+00 -0.00000000000E+00 -0.34442069845E+03  0.34442069845E+03  0.00000000000E+00 0. -1.
         -6    2    1    2    0  503  0.53996454759E+02 -0.11691436248E+02 -0.11146018701E+03  0.21045894280E+03  0.16975655071E+03 0.  0.
        -24    2    3    3    0    0 -0.36446293984E+02 -0.64650749347E+01 -0.55236291794E+02  0.10373302258E+03  0.79620113690E+02 0.  0.
          6    2    1    2  501    0 -0.53996454759E+02  0.11691436248E+02 -0.13837988133E+03  0.22854238576E+03  0.17329259570E+03 0.  0.
         24    2    5    5    0    0 -0.17269213041E+02  0.16301867461E+02  0.30639731725E+01  0.82259781407E+02  0.78697567330E+02 0.  0.
          5    1    5    5  501    0 -0.36727241718E+02 -0.46104312127E+01 -0.14144385450E+03  0.14628260435E+03  0.47000000000E+01 0. -1.
        -13    1    6    6    0    0 -0.28815433926E+02  0.43364389127E+02  0.71526489169E+01  0.52554351516E+02  0.00000000000E+00 0.  1.
         14    1    6    6    0    0  0.11546220884E+02 -0.27062521666E+02 -0.40886757444E+01  0.29705429891E+02  0.00000000000E+00 0. -1.
         -5    1    3    3    0  503  0.90442748743E+02 -0.52263613138E+01 -0.56223895219E+02  0.10672592022E+03  0.47000000000E+01 0.  1.
         13    1    4    4    0    0 -0.54046038481E+02 -0.12192711818E+02 -0.62793226350E+02  0.83741422083E+02  0.00000000000E+00 0. -1.
        -14    1    4    4    0    0  0.17599744498E+02  0.57276368836E+01  0.75569345563E+01  0.19991600500E+02  0.00000000000E+00 0.  1.
</event>
<event>
12    1  0.1032880E+000  0.1909532E+03  0.7818608E-02  0.1157810E+00
         21   -1    0    0  503  502  0.00000000000E+00  0.00000000000E+00  0.14781769551E+03  0.14781769551E+03  0.00000000000E+00 0.  1.
         21   -1    0    0  501  503 -0.00000000000E+00 -0.00000000000E+00 -0.28550414862E+03  0.28550414862E+03  0.00000000000E+00 0.  1.
          6    2    1    2  501    0 -0.31603832308E+01 -0.82219158919E+02  0.12403159236E+02  0.19044324528E+03  0.17130327842E+03 0.  0.
         24    2    3    3    0    0  0.40463069441E+02 -0.16417559131E+02 -0.34517587402E+02  0.98484000918E+02  0.81245543634E+02 0.  0.
         -6    2    1    2    0  502  0.31603832308E+01  0.82219158919E+02 -0.15008961235E+03  0.24287859886E+03  0.17231698679E+03 0.  0.
        -24    2    5    5    0    0  0.47612562483E+02  0.39323348355E+02 -0.14909686262E+03  0.18091794718E+03  0.81781094010E+02 0.  0.
          5    1    3    3  501    0 -0.43623452672E+02 -0.65801599789E+02  0.46920746638E+02  0.91959244358E+02  0.47000000000E+01 0. -1.
        -13    1    4    4    0    0  0.15469041792E+02  0.15723425448E+02  0.20450611817E+02  0.30078977468E+02  0.00000000000E+00 0.  1.
         14    1    4    4    0    0  0.24994027649E+02 -0.32140984579E+02 -0.54968199219E+02  0.68405023450E+02  0.00000000000E+00 0. -1.
         -5    1    5    5    0  502 -0.44452179252E+02  0.42895810564E+02 -0.99274972338E+00  0.61960651677E+02  0.47000000000E+01 0.  1.
         11    1    6    6    0    0  0.53618457987E+02  0.60249747613E+02 -0.11971731385E+03  0.14435098323E+03  0.00000000000E+00 0. -1.
        -12    1    6    6    0    0 -0.60058955044E+01 -0.20926399257E+02 -0.29379548773E+02  0.36566963954E+02  0.00000000000E+00 0.  1.
</event>
<event>
12    1  0.1032880E+000  0.1776229E+03  0.7818608E-02  0.1170750E+00
         21   -1    0    0  501  502  0.00000000000E+00  0.00000000000E+00  0.26659053312E+02  0.26659053312E+02  0.00000000000E+00 0.  1.
         21   -1    0    0  502  503 -0.00000000000E+00 -0.00000000000E+00 -0.13284169774E+04  0.13284169774E+04  0.00000000000E+00 0.  1.
         -6    2    1    2    0  503 -0.30882581234E+02 -0.22094778285E+02 -0.89137657028E+03  0.90890157392E+03  0.17351647756E+03 0.  0.
        -24    2    3    3    0    0  0.45840779546E+02 -0.34278685771E+02 -0.43672704903E+03  0.44763896015E+03  0.79835568028E+02 0.  0.
          6    2    1    2  501    0  0.30882581234E+02  0.22094778285E+02 -0.41038135378E+03  0.44617445677E+03  0.17092945119E+03 0.  0.
         24    2    5    5    0    0 -0.22025660317E+02  0.17076528027E+02 -0.37296819184E+03  0.38101082008E+03  0.72713378207E+02 0.  0.
          5    1    5    5  501    0  0.52908241551E+02  0.50182502578E+01 -0.37413161943E+02  0.65163636687E+02  0.47000000000E+01 0. -1.
        -13    1    6    6    0    0 -0.19310396639E+02  0.38423312683E+02 -0.12659015247E+03  0.13369483564E+03  0.00000000000E+00 0.  1.
         14    1    6    6    0    0 -0.27152636777E+01 -0.21346784656E+02 -0.24637803937E+03  0.24731598443E+03  0.00000000000E+00 0. -1.
         -5    1    3    3    0  503 -0.76723360781E+02  0.12183907485E+02 -0.45464952125E+03  0.46126261377E+03  0.47000000000E+01 0.  1.
         13    1    4    4    0    0  0.36344497846E+01 -0.21506979415E+02 -0.34677011854E+03  0.34745542808E+03  0.00000000000E+00 0. -1.
        -14    1    4    4    0    0  0.42206329762E+02 -0.12771706356E+02 -0.89956930486E+02  0.10018353207E+03  0.00000000000E+00 0.  1.
</event>
<event>
12    1  0.1032880E+000  0.2394604E+03  0.7818608E-02  0.1120236E+00
         21   -1    0    0  501  502  0.00000000000E+00  0.00000000000E+00  0.11386029404E+03  0.11386029404E+03  0.00000000000E+00 0.  1.
         21   -1    0    0  502  503 -0.00000000000E+00 -0.00000000000E+00 -0.56145024189E+03  0.56145024189E+03  0.00000000000E+00 0. -1.
         -6    2    1    2    0  503 -0.12656945054E+03 -0.10728208605E+03 -0.11465189645E+03  0.26549260589E+03  0.17266150303E+03 0.  0.
        -24    2    3    3    0    0 -0.88195541358E+02 -0.13099404352E+02 -0.11251027778E+03  0.16366131911E+03  0.78590182957E+02 0.  0.
          6    2    1    2  501    0  0.12656945054E+03  0.10728208605E+03 -0.33293805141E+03  0.40981793003E+03  0.17197010760E+03 0.  0.
         24    2    5    5    0    0  0.15068769465E+03  0.68842000110E+02 -0.21606218273E+03  0.28435323945E+03  0.82023750690E+02 0.  0.
          5    1    5    5  501    0 -0.24118244115E+02  0.38440085941E+02 -0.11687586867E+03  0.12546469059E+03  0.47000000000E+01 0. -1.
        -11    1    6    6    0    0  0.12059626441E+03  0.20521736299E+02 -0.17759987248E+03  0.21565322941E+03  0.00000000000E+00 0.  1.
         12    1    6    6    0    0  0.30091430239E+02  0.48320263811E+02 -0.38462310253E+02  0.68700010033E+02  0.00000000000E+00 0. -1.
         -5    1    3    3    0  503 -0.38373909177E+02 -0.94182681699E+02 -0.21416186710E+01  0.10183128678E+03  0.47000000000E+01 0.  1.
         11    1    4    4    0    0 -0.10134437768E+03 -0.13510558428E+02 -0.11016580555E+03  0.15029877840E+03  0.00000000000E+00 0. -1.
        -12    1    4    4    0    0  0.13148836318E+02  0.41115407587E+00 -0.23444722246E+01  0.13362540709E+02  0.00000000000E+00 0.  1.
</event>
<event>
12    1  0.1032880E+000  0.2651831E+03  0.7818608E-02  0.1104215E+00
         21   -1    0    0  501  502  0.00000000000E+00  0.00000000000E+00  0.47832523184E+03  0.47832523184E+03  0.00000000000E+00 0.  1.
         21   -1    0    0  502  503 -0.00000000000E+00 -0.00000000000E+00 -0.15907964045E+03  0.15907964045E+03  0.00000000000E+00 0.  1.
         -6    2    1    2    0  503  0.65455563388E+01 -0.20015611221E+03  0.69598280234E+02  0.27319906817E+03  0.17230350164E+03 0.  0.
        -24    2    3    3    0    0 -0.19415479228E+02 -0.21417614507E+03  0.46707998944E+02  0.23556143187E+03  0.84018861402E+02 0.  0.
          6    2    1    2  501    0 -0.65455563388E+01  0.20015611221E+03  0.24964731115E+03  0.36420580412E+03  0.17382972768E+03 0.  0.
         24    2    5    5    0    0  0.17371308791E+02  0.29012704227E+02  0.49174322287E+02  0.99491634120E+02  0.79605099785E+02 0.  0.
          5    1    5    5  501    0 -0.23916865130E+02  0.17114340798E+03  0.20047298886E+03  0.26471417000E+03  0.47000000000E+01 0. -1.
        -13    1    6    6    0    0 -0.10931974189E+02 -0.21462502674E+02  0.30120064232E+02  0.38566375900E+02  0.00000000000E+00 0.  1.
         14    1    6    6    0    0  0.28303282980E+02  0.50475206901E+02  0.19054258056E+02  0.60925258220E+02  0.00000000000E+00 0. -1.
         -5    1    3    3    0  503  0.25961035566E+02  0.14020032857E+02  0.22890281290E+02  0.37637636304E+02  0.47000000000E+01 0.  1.
         11    1    4    4    0    0 -0.35699862442E+02 -0.38682915009E+02  0.24019118334E+02  0.57859883663E+02  0.00000000000E+00 0. -1.
        -12    1    4    4    0    0  0.16284383214E+02 -0.17549323006E+03  0.22688880609E+02  0.17770154821E+03  0.00000000000E+00 0.  1.
</event>
<event>
12    1  0.1032880E+000  0.1801742E+03  0.7818608E-02  0.1168001E+00
         21   -1    0    0  501  502  0.00000000000E+00  0.00000000000E+00  0.86960078331E+03  0.86960078331E+03  0.00000000000E+00 0. -1.
         21   -1    0    0  502  503 -0.00000000000E+00 -0.00000000000E+00 -0.48280742496E+02  0.48280742496E+02  0.00000000000E+00 0. -1.
         -6    2    1    2    0  503  0.14001473621E+02  0.46501391856E+02  0.63363759635E+03  0.65875590639E+03  0.17350596528E+03 0.  0.
        -24    2    3    3    0    0  0.18133356301E+02  0.66756416945E+02  0.62776959276E+03  0.63675904384E+03  0.81130638533E+02 0.  0.
          6    2    1    2  501    0 -0.14001473621E+02 -0.46501391856E+02  0.18768244446E+03  0.25912561941E+03  0.17193884369E+03 0.  0.
         24    2    5    5    0    0 -0.32715498420E+02 -0.84805093225E+02  0.87393939601E+02  0.15005104644E+03  0.81335159583E+02 0.  0.
          5    1    5    5  501    0  0.18714024799E+02  0.38303701369E+02  0.10028850486E+03  0.10907457298E+03  0.47000000000E+01 0. -1.
        -11    1    6    6    0    0 -0.34695215730E+02 -0.46191906314E+02  0.94480556807E+02  0.11074306217E+03  0.00000000000E+00 0.  1.
         12    1    6    6    0    0  0.19797173094E+01 -0.38613186911E+02 -0.70866172062E+01  0.39307984271E+02  0.00000000000E+00 0. -1.
         -5    1    3    3    0  503 -0.41318826793E+01 -0.20255025089E+02  0.58680035931E+01  0.21996862549E+02  0.47000000000E+01 0.  1.
         11    1    4    4    0    0 -0.30522004681E+02  0.10837604737E+02  0.20419225945E+03  0.20674507314E+03  0.00000000000E+00 0. -1.
        -12    1    4    4    0    0  0.48655360981E+02  0.55918812208E+02  0.42357733331E+03  0.43001397071E+03  0.00000000000E+00 0.  1.
</event>
<event>
12    1  0.1032880E+000  0.2217120E+03  0.7818608E-02  0.1132916E+00
         21   -1    0    0  503  502  0.00000000000E+00  0.00000000000E+00  0.11168085810E+03  0.11168085810E+03  0.00000000000E+00 0.  1.
         21   -1    0    0  501  503 -0.00000000000E+00 -0.00000000000E+00 -0.50639926343E+03  0.50639926343E+03  0.00000000000E+00 0.  1.
          6    2    1    2  501    0  0.33307148088E+02 -0.13448488727E+03 -0.31246934720E+03  0.38313616931E+03  0.17309153728E+03 0.  0.
         24    2    3    3    0    0  0.89675009072E+02 -0.93437402343E+02 -0.21235105469E+03  0.26103787175E+03  0.79218966510E+02 0.  0.
         -6    2    1    2    0  502 -0.33307148088E+02  0.13448488727E+03 -0.82249058134E+02  0.23494395222E+03  0.17099181882E+03 0.  0.
        -24    2    5    5    0    0 -0.43302339869E+02  0.34619311933E+02  0.12945833592E+02  0.96534435180E+02  0.77959689399E+02 0.  0.
          5    1    3    3  501    0 -0.56367860984E+02 -0.41047484929E+02 -0.10011829251E+03  0.12209829756E+03  0.47000000000E+01 0. -1.
        -11    1    4    4    0    0  0.67877362522E+02 -0.18942151314E+02 -0.13000374924E+03  0.14787534025E+03  0.00000000000E+00 0.  1.
         12    1    4    4    0    0  0.21797646550E+02 -0.74495251028E+02 -0.82347305449E+02  0.11316253150E+03  0.00000000000E+00 0. -1.
         -5    1    5    5    0  502  0.99951917813E+01  0.99865575339E+02 -0.95194891725E+02  0.13840951704E+03  0.47000000000E+01 0.  1.
         11    1    6    6    0    0 -0.25286390216E+02  0.52283366342E+02 -0.13874653974E+02  0.59711455761E+02  0.00000000000E+00 0. -1.
        -12    1    6    6    0    0 -0.18015949654E+02 -0.17664054408E+02  0.26820487566E+02  0.36822979420E+02  0.00000000000E+00 0.  1.
</event>
<event>
12    1  0.1032880E+000  0.1806653E+03  0.7818608E-02  0.1168212E+00
         21   -1    0    0  503  502  0.00000000000E+00  0.00000000000E+00  0.90029243302E+02  0.90029243302E+02  0.00000000000E+00 0.  1.
         21   -1    0    0  501  503 -0.00000000000E+00 -0.00000000000E+00 -0.39634654364E+03  0.39634654364E+03  0.00000000000E+00 0.  1.
          6    2    1    2  501    0 -0.14993090892E+02  0.41853746342E+02 -0.23434012142E+03  0.29589735607E+03  0.17510974834E+03 0.  0.
         24    2    3    3    0    0 -0.33943425831E+02  0.86066216467E+02 -0.12630695642E+03  0.17754570864E+03  0.83722647134E+02 0.  0.
         -6    2    1    2    0  502  0.14993090892E+02 -0.41853746342E+02 -0.71977178919E+02  0.19047843087E+03  0.17065986489E+03 0.  0.
        -24    2    5    5    0    0 -0.16608959399E+02  0.34925125257E+02 -0.59513573649E+02  0.10638850185E+03  0.79252924056E+02 0.  0.
          5    1    3    3  501    0  0.18950334939E+02 -0.44212470125E+02 -0.10803316500E+03  0.11835164742E+03  0.47000000000E+01 0. -1.
        -13    1    4    4    0    0  0.78917185363E+01  0.26626898906E+02 -0.93976275076E+02  0.97993934731E+02  0.00000000000E+00 0.  1.
         14    1    4    4    0    0 -0.41835144367E+02  0.59439317561E+02 -0.32330681345E+02  0.79551773913E+02  0.00000000000E+00 0. -1.
         -5    1    5    5    0  502  0.31602050292E+02 -0.76778871599E+02 -0.12463605271E+02  0.84089929022E+02  0.47000000000E+01 0.  1.
         13    1    6    6    0    0  0.27026155258E+01  0.68760237440E+01 -0.70284340489E+02  0.70671580931E+02  0.00000000000E+00 0. -1.
        -14    1    6    6    0    0 -0.19311574925E+02  0.28049101513E+02  0.10770766841E+02  0.35716920921E+02  0.00000000000E+00 0.  1.
</event>
<event>
12    1  0.1032880E+000  0.2715566E+03  0.7818608E-02  0.1100581E+00
         21   -1    0    0  501  502  0.00000000000E+00  0.00000000000E+00  0.33706269376E+03  0.33706269376E+03  0.00000000000E+00 0.  1.
         21   -1    0    0  502  503 -0.00000000000E+00 -0.00000000000E+00 -0.24980036726E+03  0.24980036726E+03  0.00000000000E+00 0.  1.
         -6    2    1    2    0  503  0.18668878709E+03 -0.92790146973E+02  0.14870148597E+03  0.30844291660E+03  0.17193657630E+03 0.  0.
        -24    2    3    3    0    0  0.20486526635E+03 -0.61959992180E+02  0.14708286548E+03  0.27230992924E+03  0.81917704158E+02 0.  0.
          6    2    1    2  501    0 -0.18668878709E+03  0.92790146973E+02 -0.61439159473E+02  0.27842014442E+03  0.17401233262E+03 0.  0.
         24    2    5    5    0    0 -0.78756164376E+02  0.47814176509E+02  0.34050007002E+02  0.12738187153E+03  0.81104927804E+02 0.  0.
          5    1    5    5  501    0 -0.10793262271E+03  0.44975970464E+02 -0.95489166475E+02  0.15103827290E+03  0.47000000000E+01 0. -1.
        -11    1    6    6    0    0 -0.25992082040E+00 -0.14716795207E+02 -0.99865564771E+01  0.17787156329E+02  0.00000000000E+00 0.  1.
         12    1    6    6    0    0 -0.78496243556E+02  0.62530971716E+02  0.44036563479E+02  0.10959471520E+03  0.00000000000E+00 0. -1.
         -5    1    3    3    0  503 -0.18176479263E+02 -0.30830154794E+02  0.16186204847E+01  0.36132987356E+02  0.47000000000E+01 0.  1.
         11    1    4    4    0    0  0.70359609910E+02 -0.34395747180E+02  0.10030716535E+03  0.12725985050E+03  0.00000000000E+00 0. -1.
        -12    1    4    4    0    0  0.13450565644E+03 -0.27564244999E+02  0.46775700140E+02  0.14505007874E+03  0.00000000000E+00 0.  1.
</event>
<event>
12    1  0.1032880E+000  0.2576046E+03  0.7818608E-02  0.1108745E+00
         21   -1    0    0  503  502  0.00000000000E+00  0.00000000000E+00  0.37411159606E+02  0.37411159606E+02  0.00000000000E+00 0. -1.
         21   -1    0    0  501  503 -0.00000000000E+00 -0.00000000000E+00 -0.17672458922E+04  0.17672458922E+04  0.00000000000E+00 0. -1.
          6    2    1    2  501    0 -0.14778968764E+03  0.12050521122E+03 -0.84995656533E+03  0.88784423291E+03  0.17169135464E+03 0.  0.
         24    2    3    3    0    0 -0.11052898739E+03  0.71185970968E+02 -0.77683761746E+03  0.79198382513E+03  0.80483512939E+02 0.  0.
         -6    2    1    2    0  502  0.14778968764E+03 -0.12050521122E+03 -0.87987816722E+03  0.91681281886E+03  0.17319601025E+03 0.  0.
        -24    2    5    5    0    0  0.13442390660E+03 -0.38289440904E+02 -0.42666232476E+03  0.45598230028E+03  0.79644528069E+02 0.  0.
          5    1    3    3  501    0 -0.37260700244E+02  0.49319240247E+02 -0.73118947874E+02  0.95860407779E+02  0.47000000000E+01 0. -1.
        -13    1    4    4    0    0 -0.47360912454E+02  0.61153106015E+02 -0.26171598886E+03  0.27290660899E+03  0.00000000000E+00 0.  1.
         14    1    4    4    0    0 -0.63168074938E+02  0.10032864953E+02 -0.51512162860E+03  0.51907721615E+03  0.00000000000E+00 0. -1.
         -5    1    5    5    0  502  0.13365781035E+02 -0.82215770311E+02 -0.45321584246E+03  0.46083051857E+03  0.47000000000E+01 0.  1.
         13    1    6    6    0    0  0.78881916003E+02 -0.17889362148E+02 -0.12726267293E+03  0.15079182296E+03  0.00000000000E+00 0. -1.
        -14    1    6    6    0    0  0.55541990598E+02 -0.20400078756E+02 -0.29939965183E+03  0.30519047732E+03  0.00000000000E+00 0.  1.
</event>
<event>
12    1  0.1032880E+000  0.2038190E+03  0.7818608E-02  0.1146773E+00
         21   -1    0    0  503  502  0.00000000000E+00  0.00000000000E+00  0.44530543993E+03  0.44530543993E+03  0.00000000000E+00 0. -1.
         21   -1    0    0  501  503 -0.00000000000E+00 -0.00000000000E+00 -0.11466433582E+03  0.11466433582E+03  0.00000000000E+00 0.  1.
          6    2    1    2  501    0 -0.10694935597E+03 -0.19037009887E+02  0.28721220451E+03  0.35157531294E+03  0.17121266822E+03 0.  0.
         24    2    3    3    0    0  0.46007117616E+01  0.29309600792E+01  0.72366693295E+02  0.10845663203E+03  0.80598670323E+02 0.  0.
         -6    2    1    2    0  502  0.10694935597E+03  0.19037009887E+02  0.43428899597E+02  0.20839446281E+03  0.17245756092E+03 0.  0.
        -24    2    5    5    0    0  0.28401526859E+02 -0.79555982383E+01 -0.37872750413E+02  0.92074169453E+02  0.78570790917E+02 0.  0.
          5    1    3    3  501    0 -0.11155006773E+03 -0.21967969966E+02  0.21484551122E+03  0.24311868090E+03  0.47000000000E+01 0. -1.
        -13    1    4    4    0    0 -0.27944375782E+02  0.57443385137E+01 -0.57475154603E+00  0.28534468668E+02  0.00000000000E+00 0.  1.
         14    1    4    4    0    0  0.32545087544E+02 -0.28133784345E+01  0.72941444841E+02  0.79922163365E+02  0.00000000000E+00 0. -1.
         -5    1    5    5    0  502  0.78547829110E+02  0.26992608125E+02  0.81301650010E+02  0.11632029335E+03  0.47000000000E+01 0.  1.
         11    1    6    6    0    0  0.35063530290E+02 -0.37148915886E+02 -0.11935894327E+02  0.52459114378E+02  0.00000000000E+00 0. -1.
        -12    1    6    6    0    0 -0.66620034310E+01  0.29193317648E+02 -0.25936856085E+02  0.39615055075E+02  0.00000000000E+00 0.  1.
</event>
<event>
12    1  0.1032880E+000  0.1829539E+03  0.7818608E-02  0.1165675E+00
         21   -1    0    0  501  502  0.00000000000E+00  0.00000000000E+00  0.19675180921E+03  0.19675180921E+03  0.00000000000E+00 0.  1.
         21   -1    0    0  502  503 -0.00000000000E+00 -0.00000000000E+00 -0.20815046913E+03  0.20815046913E+03  0.00000000000E+00 0.  1.
         -6    2    1    2    0  503 -0.17537850424E+02  0.51259637003E+02 -0.95230029946E+02  0.20365663120E+03  0.17167451250E+03 0.  0.
        -24    2    3    3    0    0  0.22724825154E+02  0.37713872897E+02 -0.12246610914E+03  0.15297660772E+03  0.80406098858E+02 0.  0.
          6    2    1    2  501    0  0.17537850424E+02 -0.51259637003E+02  0.83831370021E+02  0.20124564715E+03  0.17474834853E+03 0.  0.
         24    2    5    5    0    0  0.60080167918E+02  0.55093787884E+01  0.35730346594E+02  0.11540644639E+03  0.91662480708E+02 0.  0.
          5    1    5    5  501    0 -0.42542317494E+02 -0.56769015792E+02  0.48101023427E+02  0.85839200756E+02  0.47000000000E+01 0. -1.
        -13    1    6    6    0    0  0.27874978367E+02  0.25511917241E+02  0.59626963142E+02  0.70592117646E+02  0.00000000000E+00 0.  1.
         14    1    6    6    0    0  0.32205189551E+02 -0.20002538452E+02 -0.23896616548E+02  0.44814328746E+02  0.00000000000E+00 0. -1.
         -5    1    3    3    0  503 -0.40262675578E+02  0.13545764107E+02  0.27236079194E+02  0.50680023479E+02  0.47000000000E+01 0.  1.
         13    1    4    4    0    0 -0.22767560862E+00  0.11078569098E+02  0.10605492266E+02  0.15338285290E+02  0.00000000000E+00 0. -1.
        -14    1    4    4    0    0  0.22952500763E+02  0.26635303799E+02 -0.13307160141E+03  0.13763832243E+03  0.00000000000E+00 0.  1.
</event>
<event>
12    1  0.1032880E+000  0.1976772E+03  0.7818608E-02  0.1151763E+00
         21   -1    0    0  503  502  0.00000000000E+00  0.00000000000E+00  0.13862119655E+03  0.13862119655E+03  0.00000000000E+00 0. -1.
         21   -1    0    0  501  503 -0.00000000000E+00 -0.00000000000E+00 -0.31224903019E+03  0.31224903019E+03  0.00000000000E+00 0. -1.
          6    2    1    2  501    0  0.88301856752E+02 -0.28235628401E+02 -0.16098390518E+02  0.19810198680E+03  0.17432948798E+03 0.  0.
         24    2    3    3    0    0  0.12767520451E+03  0.26060194359E+01 -0.30110101018E+02  0.14594946254E+03  0.63928696607E+02 0.  0.
         -6    2    1    2    0  502 -0.88301856752E+02  0.28235628401E+02 -0.15752944312E+03  0.25276823995E+03  0.17459034641E+03 0.  0.
        -24    2    5    5    0    0 -0.10847776087E+03 -0.86134470304E+01 -0.16123254977E+03  0.21033329602E+03  0.80015899896E+02 0.  0.
          5    1    3    3  501    0 -0.39373347757E+02 -0.30841647837E+02  0.14011710500E+02  0.52152524253E+02  0.47000000000E+01 0. -1.
        -11    1    4    4    0    0  0.74345148409E+02 -0.19828728426E+01 -0.49140674722E+02  0.89139995450E+02  0.00000000000E+00 0.  1.
         12    1    4    4    0    0  0.53330056099E+02  0.45888922785E+01  0.19030573705E+02  0.56809467094E+02  0.00000000000E+00 0. -1.
         -5    1    5    5    0  502  0.20175904118E+02  0.36849075432E+02  0.37031066514E+01  0.42434943926E+02  0.47000000000E+01 0.  1.
         11    1    6    6    0    0 -0.25085127727E+02  0.33088880777E+02 -0.56396283732E+02  0.70033409763E+02  0.00000000000E+00 0. -1.
        -12    1    6    6    0    0 -0.83392633142E+02 -0.41702327808E+02 -0.10483626604E+03  0.14029988626E+03  0.00000000000E+00 0.  1.
</event>
<event>
12    1  0.1032880E+000  0.1982733E+03  0.7818608E-02  0.1151396E+00
         21   -1    0    0  501  502  0.00000000000E+00  0.00000000000E+00  0.29437943934E+03  0.29437943934E+03  0.00000000000E+00 0. -1.
         21   -1    0    0  502  503 -0.00000000000E+00 -0.00000000000E+00 -0.14926368642E+03  0.14926368642E+03  0.00000000000E+00 0. -1.
         -6    2    1    2    0  503  0.41187003822E+02  0.87123017786E+02  0.14606124256E+03  0.24626445416E+03  0.17327869256E+03 0.  0.
        -24    2    3    3    0    0 -0.42231280145E+02  0.23143802620E+02  0.56351681810E+02  0.10798269339E+03  0.78521547399E+02 0.  0.
          6    2    1    2  501    0 -0.41187003822E+02 -0.87123017786E+02 -0.94548964695E+00  0.19737867159E+03  0.17225172434E+03 0.  0.
         24    2    5    5    0    0 -0.19460358433E+02 -0.12432401215E+03 -0.18291532746E+02  0.15069959370E+03  0.80874110950E+02 0.  0.
          5    1    5    5  501    0 -0.21726645389E+02  0.37200994368E+02  0.17346043099E+02  0.46679077894E+02  0.47000000000E+01 0. -1.
        -13    1    6    6    0    0 -0.58906011236E+01 -0.47018590889E+02 -0.47366280883E+02  0.67000086832E+02  0.00000000000E+00 0.  1.
         14    1    6    6    0    0 -0.13569757309E+02 -0.77305421265E+02  0.29074748136E+02  0.83699506866E+02  0.00000000000E+00 0. -1.
         -5    1    3    3    0  503  0.83418283967E+02  0.63979215166E+02  0.89709560753E+02  0.13828176078E+03  0.47000000000E+01 0.  1.
         13    1    4    4    0    0 -0.38363631138E+02  0.18661300130E+01  0.71784720675E+02  0.81414352283E+02  0.00000000000E+00 0. -1.
        -14    1    4    4    0    0 -0.38676490073E+01  0.21277672607E+02 -0.15433038865E+02  0.26568341104E+02  0.00000000000E+00 0.  1.
</event>
<event>
12    1  0.1032880E+000  0.1930566E+03  0.7818608E-02  0.1155950E+00
         21   -1    0    0  503  502  0.00000000000E+00  0.00000000000E+00  0.78181311579E+03  0.78181311579E+03  0.00000000000E+00 0. -1.
         21   -1    0    0  501  503 -0.00000000000E+00 -0.00000000000E+00 -0.11655396636E+03  0.11655396636E+03  0.00000000000E+00 0. -1.
          6    2    1    2  501    0  0.75645503788E+02  0.44280644168E+02  0.67820163925E+03  0.70487710012E+03  0.17091297523E+03 0.  0.
         24    2    3    3    0    0  0.35572137679E+02  0.40806800628E+02  0.64614918193E+03  0.65323029692E+03  0.79186384912E+02 0.  0.
         -6    2    1    2    0  502 -0.75645503788E+02 -0.44280644168E+02 -0.12942489814E+02  0.19348998203E+03  0.17201118398E+03 0.  0.
        -24    2    5    5    0    0 -0.84811276379E+02 -0.15573797987E+02 -0.64170447634E+02  0.13387045447E+03  0.79799476467E+02 0.  0.
          5    1    3    3  501    0  0.40073366108E+02  0.34738435399E+01  0.32052457321E+02  0.51646803197E+02  0.47000000000E+01 0. -1.
        -13    1    4    4    0    0  0.60279159570E+02  0.28650479201E+02  0.50782674897E+03  0.51219374655E+03  0.00000000000E+00 0.  1.
         14    1    4    4    0    0 -0.24707021890E+02  0.12156321428E+02  0.13832243295E+03  0.14103655037E+03  0.00000000000E+00 0. -1.
         -5    1    5    5    0  502  0.91657725915E+01 -0.28706846181E+02  0.51227957820E+02  0.59619527566E+02  0.47000000000E+01 0.  1.
         11    1    6    6    0    0  0.94123188673E+01 -0.20373805285E+02 -0.18333466596E+02  0.28979297536E+02  0.00000000000E+00 0. -1.
        -12    1    6    6    0    0 -0.94223595247E+02  0.48000072982E+01 -0.45836981038E+02  0.10489115693E+03  0.00000000000E+00 0.  1.
</event>
<event>
12    1  0.1032880E+000  0.5092174E+03  0.7818608E-02  0.1011403E+00
         21   -1    0    0  503  502  0.00000000000E+00  0.00000000000E+00  0.51147362334E+03  0.51147362334E+03  0.00000000000E+00 0.  1.
         21   -1    0    0  501  503 -0.00000000000E+00 -0.00000000000E+00 -0.52047358582E+03  0.52047358582E+03  0.00000000000E+00 0.  1.
          6    2    1    2  501    0  0.63842354203E+02  0.47473467995E+03 -0.87731404864E+02  0.51667932787E+03  0.17266113026E+03 0.  0.
         24    2    3    3    0    0 -0.95913613551E+01  0.30219460715E+03 -0.90802446577E+01  0.31328148543E+03  0.81543016071E+02 0.  0.
         -6    2    1    2    0  502 -0.63842354203E+02 -0.47473467995E+03  0.78731442383E+02  0.51526788130E+03  0.17278161633E+03 0.  0.
        -24    2    5    5    0    0 -0.22845737626E+02 -0.22852397430E+03  0.10948521172E+03  0.26373593805E+03  0.69458612673E+02 0.  0.
          5    1    3    3  501    0  0.73433715558E+02  0.17254007281E+03 -0.78651160207E+02  0.20339784244E+03  0.47000000000E+01 0. -1.
        -11    1    4    4    0    0 -0.20750479977E+02  0.28158994411E+02 -0.17028769474E+02  0.38903603629E+02  0.00000000000E+00 0.  1.
         12    1    4    4    0    0  0.11159118622E+02  0.27403561274E+03  0.79485248163E+01  0.27437788180E+03  0.00000000000E+00 0. -1.
         -5    1    5    5    0  502 -0.40996616577E+02 -0.24621070565E+03 -0.30753769337E+02  0.25153194325E+03  0.47000000000E+01 0.  1.
         13    1    6    6    0    0 -0.11150362569E+02 -0.22186368588E+03  0.89181745638E+02  0.23937671034E+03  0.00000000000E+00 0. -1.
        -14    1    6    6    0    0 -0.11695375057E+02 -0.66602884201E+01  0.20303466082E+02  0.24359227708E+02  0.00000000000E+00 0.  1.
</event>
<event>
12    1  0.1032880E+000  0.2347408E+03  0.7818608E-02  0.1123429E+00
         21   -1    0    0  501  502  0.00000000000E+00  0.00000000000E+00  0.72496763360E+03  0.72496763360E+03  0.00000000000E+00 0. -1.
         21   -1    0    0  502  503 -0.00000000000E+00 -0.00000000000E+00 -0.77458417595E+02  0.77458417595E+02  0.00000000000E+00 0. -1.
         -6    2    1    2    0  503 -0.56253588359E+02  0.15044042233E+03  0.26630930104E+03  0.35499844031E+03  0.17119130215E+03 0.  0.
        -24    2    3    3    0    0  0.27671389336E+02  0.33315353210E+02  0.11606371194E+03  0.14677377621E+03  0.78715548690E+02 0.  0.
          6    2    1    2  501    0  0.56253588359E+02 -0.15044042233E+03  0.38119991497E+03  0.44742761088E+03  0.17053241608E+03 0.  0.
         24    2    5    5    0    0  0.95362249288E+02 -0.14839802806E+03  0.33672121968E+03  0.38797928821E+03  0.77658322007E+02 0.  0.
          5    1    5    5  501    0 -0.39108660929E+02 -0.20423942778E+01  0.44478695287E+02  0.59448322672E+02  0.47000000000E+01 0. -1.
        -13    1    6    6    0    0  0.29759478549E+02 -0.11561967151E+03  0.21059146840E+03  0.24207912253E+03  0.00000000000E+00 0.  1.
         14    1    6    6    0    0  0.65602770740E+02 -0.32778356547E+02  0.12612975128E+03  0.14590016568E+03  0.00000000000E+00 0. -1.
         -5    1    3    3    0  503 -0.83924977696E+02  0.11712506912E+03  0.15024558910E+03  0.20822466411E+03  0.47000000000E+01 0.  1.
         11    1    4    4    0    0  0.13587297012E+02  0.57225799940E+02  0.58941274069E+02  0.83267524328E+02  0.00000000000E+00 0. -1.
        -12    1    4    4    0    0  0.14084092324E+02 -0.23910446730E+02  0.57122437873E+02  0.63506251881E+02  0.00000000000E+00 0.  1.
</event>
<event>
12    1  0.1032880E+000  0.1922668E+03  0.7818608E-02  0.1156439E+00
         21   -1    0    0  503  502  0.00000000000E+00  0.00000000000E+00  0.37725755444E+02  0.37725755444E+02  0.00000000000E+00 0.  1.
         21   -1    0    0  501  503 -0.00000000000E+00 -0.00000000000E+00 -0.12918167116E+04  0.12918167116E+04  0.00000000000E+00 0.  1.
          6    2    1    2  501    0  0.72857421839E+02 -0.44321080554E+02 -0.30033692430E+03  0.35660730939E+03  0.17231930511E+03 0.  0.
         24    2    3    3    0    0  0.64925632790E+02 -0.88932305603E+00 -0.29439441341E+03  0.31181183783E+03  0.79639329960E+02 0.  0.
         -6    2    1    2    0  502 -0.72857421839E+02  0.44321080554E+02 -0.95375403183E+03  0.97293515762E+03  0.17228901769E+03 0.  0.
        -24    2    5    5    0    0 -0.69860367321E+02  0.93855447062E+02 -0.72610600773E+03  0.73989364056E+03  0.80767252106E+02 0.  0.
          5    1    3    3  501    0  0.79317890484E+01 -0.43431757498E+02 -0.59425108962E+01  0.44795471564E+02  0.47000000000E+01 0. -1.
        -11    1    4    4    0    0 -0.24884864438E+01 -0.28161973893E+02 -0.11052752167E+03  0.11408603063E+03  0.00000000000E+00 0.  1.
         12    1    4    4    0    0  0.67414119234E+02  0.27272650837E+02 -0.18386689174E+03  0.19772580720E+03  0.00000000000E+00 0. -1.
         -5    1    5    5    0  502 -0.29970545176E+01 -0.49534366508E+02 -0.22764802410E+03  0.23304151707E+03  0.47000000000E+01 0.  1.
         13    1    6    6    0    0 -0.34578048225E+02 -0.36770949970E+01 -0.26468684946E+03  0.26696121577E+03  0.00000000000E+00 0. -1.
        -14    1    6    6    0    0 -0.35282319096E+02  0.97532542059E+02 -0.46141915827E+03  0.47293242479E+03  0.00000000000E+00 0.  1.
</event>
<event>
12    1  0.1032880E+000  0.2084252E+03  0.7818608E-02  0.1143488E+00
         21   -1    0    0  501  502  0.00000000000E+00  0.00000000000E+00  0.71257209633E+02  0.71257209633E+02  0.00000000000E+00 0. -1.
         21   -1    0    0  502  503 -0.00000000000E+00 -0.00000000000E+00 -0.60613820490E+03  0.60613820490E+03  0.00000000000E+00 0. -1.
         -6    2    1    2    0  503 -0.10211796960E+03 -0.47712415994E+02 -0.23542172887E+03  0.31442721041E+03  0.17531835577E+03 0.  0.
        -24    2    3    3    0    0 -0.14241888448E+03 -0.42941273084E+02 -0.20720767531E+03  0.26477793687E+03  0.71029877917E+02 0.  0.
          6    2    1    2  501    0  0.10211796960E+03  0.47712415994E+02 -0.29945926640E+03  0.36296820412E+03  0.17136367940E+03 0.  0.
         24    2    5    5    0    0  0.12061776599E+03 -0.83060397939E+01 -0.23156468101E+03  0.27290114810E+03  0.78963278629E+02 0.  0.
          5    1    5    5  501    0 -0.18499796395E+02  0.56018455788E+02 -0.67894585385E+02  0.90067056020E+02  0.47000000000E+01 0. -1.
        -13    1    6    6    0    0  0.98065016310E+02 -0.35215582450E+02 -0.20077626492E+03  0.22620343328E+03  0.00000000000E+00 0.  1.
         14    1    6    6    0    0  0.22552749685E+02  0.26909542656E+02 -0.30788416094E+02  0.46697714826E+02  0.00000000000E+00 0. -1.
         -5    1    3    3    0  503  0.40300914879E+02 -0.47711429100E+01 -0.28214053559E+02  0.49649273539E+02  0.47000000000E+01 0.  1.
         11    1    4    4    0    0 -0.13493619385E+02  0.17352001039E+02 -0.35472713465E+02  0.41731080800E+02  0.00000000000E+00 0. -1.
        -12    1    4    4    0    0 -0.12892526509E+03 -0.60293274123E+02 -0.17173496184E+03  0.22304685607E+03  0.00000000000E+00 0.  1.
</event>
<event>
12    1  0.1032880E+000  0.2936048E+03  0.7818608E-02  0.1088642E+00
         21   -1    0    0  503  502  0.00000000000E+00  0.00000000000E+00  0.13644498933E+04  0.13644498933E+04  0.00000000000E+00 0. -1.
         21   -1    0    0  501  503 -0.00000000000E+00 -0.00000000000E+00 -0.13746065568E+03  0.13746065568E+03  0.00000000000E+00 0.  1.
          6    2    1    2  501    0 -0.56561057673E+02 -0.23025979452E+03  0.59875317675E+02  0.29843281592E+03  0.17105076946E+03 0.  0.
         24    2    3    3    0    0 -0.42055164724E+02 -0.24973564588E+03  0.45180626077E+02  0.26966210724E+03  0.80869236469E+02 0.  0.
         -6    2    1    2    0  502  0.56561057673E+02  0.23025979452E+03  0.11671139200E+04  0.12034777331E+04  0.17316184815E+03 0.  0.
        -24    2    5    5    0    0  0.91777528974E+01  0.76270769203E+02  0.27234125962E+03  0.29430338172E+03  0.80890403743E+02 0.  0.
          5    1    3    3  501    0 -0.14505892949E+02  0.19475851362E+02  0.14694691598E+02  0.28770708675E+02  0.47000000000E+01 0. -1.
        -13    1    4    4    0    0 -0.57923786056E+02 -0.11258677199E+03  0.34261997500E+02  0.13116718603E+03  0.00000000000E+00 0.  1.
         14    1    4    4    0    0  0.15868621332E+02 -0.13714887388E+03  0.10918628578E+02  0.13849492121E+03  0.00000000000E+00 0. -1.
         -5    1    5    5    0  502  0.47383304775E+02  0.15398902531E+03  0.89477266034E+03  0.90917435137E+03  0.47000000000E+01 0.  1.
         11    1    6    6    0    0 -0.25390699400E+02  0.28473033843E+02  0.18510512645E+03  0.18899552670E+03  0.00000000000E+00 0. -1.
        -12    1    6    6    0    0  0.34568452297E+02  0.47797735359E+02  0.87236133165E+02  0.10530785502E+03  0.00000000000E+00 0.  1.
</event>
<event>
12    1  0.1032880E+000  0.2328405E+03  0.7818608E-02  0.1124746E+00
         21   -1    0    0  501  502  0.00000000000E+00  0.00000000000E+00  0.67761535791E+02  0.67761535791E+02  0.00000000000E+00 0. -1.
         21   -1    0    0  502  503 -0.00000000000E+00 -0.00000000000E+00 -0.81982595034E+03  0.81982595034E+03  0.00000000000E+00 0. -1.
         -6    2    1    2    0  503 -0.78398671413E+02 -0.13481941291E+03 -0.30372881976E+03  0.38239493913E+03  0.17219775765E+03 0.  0.
        -24    2    3    3    0    0 -0.44313884516E+02 -0.22610188440E+02 -0.21799367232E+03  0.23704952894E+03  0.78716561276E+02 0.  0.
          6    2    1    2  501    0  0.78398671413E+02  0.13481941291E+03 -0.44833559478E+03  0.50519254700E+03  0.17289325672E+03 0.  0.
         24    2    5    5    0    0  0.75756928745E+02  0.16738736873E+03 -0.38213182870E+03  0.43121498828E+03  0.78511070222E+02 0.  0.
          5    1    5    5  501    0  0.26417426674E+01 -0.32567955823E+02 -0.66203766081E+02  0.73977558720E+02  0.47000000000E+01 0. -1.
        -13    1    6    6    0    0  0.67884309674E+02  0.11766175195E+03 -0.19653610723E+03  0.23891213619E+03  0.00000000000E+00 0.  1.
         14    1    6    6    0    0  0.78726190714E+01  0.49725616782E+02 -0.18559572147E+03  0.19230285209E+03  0.00000000000E+00 0. -1.
         -5    1    3    3    0  503 -0.34084786897E+02 -0.11220922447E+03 -0.85735147444E+02  0.14534541018E+03  0.47000000000E+01 0.  1.
         13    1    4    4    0    0 -0.30131665659E+02 -0.30537791185E+02 -0.21652684071E+03  0.22073592076E+03  0.00000000000E+00 0. -1.
        -14    1    4    4    0    0 -0.14182218856E+02  0.79276027449E+01 -0.14668316077E+01  0.16313608183E+02  0.00000000000E+00 0.  1.
</event>
<event>
12    1  0.1032880E+000  0.2413230E+03  0.7818608E-02  0.1118919E+00
         21   -1    0    0  501  502  0.00000000000E+00  0.00000000000E+00  0.71702351025E+02  0.71702351025E+02  0.00000000000E+00 0.  1.
         21   -1    0    0  502  503 -0.00000000000E+00 -0.00000000000E+00 -0.82403843371E+03  0.82403843371E+03  0.00000000000E+00 0. -1.
         -6    2    1    2    0  503  0.16507333959E+03 -0.34988953548E+02 -0.32226431481E+03  0.40258918688E+03  0.17248284110E+03 0.  0.
        -24    2    3    3    0    0  0.32769713222E+02  0.49701335256E+02 -0.14187618034E+03  0.16334315529E+03  0.54845774716E+02 0.  0.
          6    2    1    2  501    0 -0.16507333959E+03  0.34988953548E+02 -0.43007176787E+03  0.49315159786E+03  0.17252054554E+03 0.  0.
         24    2    5    5    0    0 -0.17035685939E+03 -0.16062295745E+02 -0.35108164302E+03  0.39883470934E+03  0.80816758293E+02 0.  0.
          5    1    5    5  501    0  0.52835197983E+01  0.51051249293E+02 -0.78990124854E+02  0.94316888521E+02  0.47000000000E+01 0. -1.
        -13    1    6    6    0    0 -0.77264193580E+02  0.31006808837E+02 -0.12991984107E+03  0.15430600412E+03  0.00000000000E+00 0.  1.
         14    1    6    6    0    0 -0.93092665809E+02 -0.47069104582E+02 -0.22116180194E+03  0.24452870521E+03  0.00000000000E+00 0. -1.
         -5    1    3    3    0  503  0.13230362637E+03 -0.84690288804E+02 -0.18038813447E+03  0.23924603158E+03  0.47000000000E+01 0.  1.
         13    1    4    4    0    0  0.35433517252E+02  0.21887019780E+02 -0.12237844995E+03  0.12927126824E+03  0.00000000000E+00 0. -1.
        -14    1    4    4    0    0 -0.26638040302E+01  0.27814315477E+02 -0.19497730382E+02  0.34071887054E+02  0.00000000000E+00 0.  1.
</event>
<event>
12    1  0.1032880E+000  0.2615627E+03  0.7818608E-02  0.1106460E+00
         21   -1    0    0  503  502  0.00000000000E+00  0.00000000000E+00  0.14258986647E+03  0.14258986647E+03  0.00000000000E+00 0.  1.
         21   -1    0    0  501  503 -0.00000000000E+00 -0.00000000000E+00 -0.81667376856E+03  0.81667376856E+03  0.00000000000E+00 0.  1.
          6    2    1    2  501    0  0.13012796181E+03 -0.14838246654E+03 -0.64585744817E+03  0.69618227495E+03  0.16907771521E+03 0.  0.
         24    2    3    3    0    0  0.12124861201E+03 -0.16563692929E+03 -0.46750675097E+03  0.51671745798E+03  0.79357110108E+02 0.  0.
         -6    2    1    2    0  502 -0.13012796181E+03  0.14838246654E+03 -0.28226453925E+02  0.26308136007E+03  0.17165205066E+03 0.  0.
        -24    2    5    5    0    0 -0.15626596303E+03  0.11718364120E+03 -0.50000101712E+02  0.21668369258E+03  0.79377298369E+02 0.  0.
          5    1    3    3  501    0  0.88793498007E+01  0.17254462749E+02 -0.17835069720E+03  0.17946481696E+03  0.47000000000E+01 0. -1.
        -11    1    4    4    0    0  0.60926085869E+02 -0.32635483319E+02 -0.20477212002E+03  0.21612191895E+03  0.00000000000E+00 0.  1.
         12    1    4    4    0    0  0.60322526141E+02 -0.13300144597E+03 -0.26273463095E+03  0.30059553904E+03  0.00000000000E+00 0. -1.
         -5    1    5    5    0  502  0.26138001217E+02  0.31198825346E+02  0.21773647787E+02  0.46397667490E+02  0.47000000000E+01 0.  1.
         13    1    6    6    0    0 -0.81585407845E+02  0.28948961627E+02  0.87575431277E+01  0.87011009155E+02  0.00000000000E+00 0. -1.
        -14    1    6    6    0    0 -0.74680555182E+02  0.88234679568E+02 -0.58757644840E+02  0.12967268343E+03  0.00000000000E+00 0.  1.
</event>
<event>
12    1  0.1032880E+000  0.1975273E+03  0.7818608E-02  0.1151990E+00
         21   -1    0    0  501  502  0.00000000000E+00  0.00000000000E+00  0.14802625771E+04  0.14802625771E+04  0.00000000000E+00 0. -1.
         21   -1    0    0  502  503 -0.00000000000E+00 -0.00000000000E+00 -0.51039618154E+02  0.51039618154E+02  0.00000000000E+00 0. -1.
         -6    2    1    2    0  503  0.85771937726E+02  0.37796946169E+02  0.12473891353E+04  0.12628239632E+04  0.17308747128E+03 0.  0.
        -24    2    3    3    0    0  0.69295459825E+02 -0.17532248399E+01  0.11650593887E+04  0.11698940567E+04  0.80521985152E+02 0.  0.
          6    2    1    2  501    0 -0.85771937726E+02 -0.37796946169E+02  0.18183382364E+03  0.26847823205E+03  0.17387233025E+03 0.  0.
         24    2    5    5    0    0 -0.10679076787E+03 -0.47505993593E+02  0.72164536446E+02  0.15629311996E+03  0.74556901056E+02 0.  0.
          5    1    5    5  501    0  0.21018830147E+02  0.97090474243E+01  0.10966928719E+03  0.11218511210E+03  0.47000000000E+01 0. -1.
        -13    1    6    6    0    0 -0.79708775107E+02 -0.68197667277E+01  0.71680234241E+02  0.10741533423E+03  0.00000000000E+00 0.  1.
         14    1    6    6    0    0 -0.27081992766E+02 -0.40686226865E+02  0.48430220498E+00  0.48877785725E+02  0.00000000000E+00 0. -1.
         -5    1    3    3    0  503  0.16476477901E+02  0.39550171008E+02  0.82329746604E+02  0.92929906525E+02  0.47000000000E+01 0.  1.
         11    1    4    4    0    0 -0.15338152391E+02 -0.88335016500E+01  0.10927170936E+03  0.11069596260E+03  0.00000000000E+00 0. -1.
        -12    1    4    4    0    0  0.84633612216E+02  0.70802768101E+01  0.10557876794E+04  0.10591980941E+04  0.00000000000E+00 0.  1.
</event>
<event>
12    1  0.1032880E+000  0.1846490E+03  0.7818608E-02  0.1163733E+00
         21   -1    0    0  501  502  0.00000000000E+00  0.00000000000E+00  0.21038414148E+02  0.21038414148E+02  0.00000000000E+00 0.  1.
         21   -1    0    0  502  503 -0.00000000000E+00 -0.00000000000E+00 -0.16121359709E+04  0.16121359709E+04  0.00000000000E+00 0.  1.
         -6    2    1    2    0  503 -0.29090333611E+02 -0.58727536903E+02 -0.74798458066E+03  0.77007836781E+03  0.17101049258E+03 0.  0.
        -24    2    3    3    0    0  0.42551151660E+02 -0.24031289979E+02 -0.50440167491E+03  0.51377570701E+03  0.84595059283E+02 0.  0.
          6    2    1    2  501    0  0.29090333611E+02  0.58727536903E+02 -0.84311297611E+03  0.86309601725E+03  0.17262697764E+03 0.  0.
         24    2    5    5    0    0  0.75755174177E+02  0.66201344780E+02 -0.71323378490E+03  0.72480588941E+03  0.80744541210E+02 0.  0.
          5    1    5    5  501    0 -0.46664840566E+02 -0.74738078770E+01 -0.12987919121E+03  0.13829012785E+03  0.47000000000E+01 0. -1.
        -13    1    6    6    0    0  0.23221758797E+02 -0.18255143090E+02 -0.16238398623E+03  0.16504865742E+03  0.00000000000E+00 0.  1.
         14    1    6    6    0    0  0.52533415380E+02  0.84456487870E+02 -0.55084979866E+03  0.55975723199E+03  0.00000000000E+00 0. -1.
         -5    1    3    3    0  503 -0.71641485271E+02 -0.34696246924E+02 -0.24358290575E+03  0.25630266081E+03  0.47000000000E+01 0.  1.
         11    1    4    4    0    0  0.24035145496E+01 -0.46838046826E+01 -0.40274185542E+03  0.40277626173E+03  0.00000000000E+00 0. -1.
        -12    1    4    4    0    0  0.40147637110E+02 -0.19347485296E+02 -0.10165981949E+03  0.11099944527E+03  0.00000000000E+00 0.  1.
</event>
<event>
12    1  0.1032880E+000  0.1889228E+03  0.7818608E-02  0.1159981E+00
         21   -1    0    0  501  502  0.00000000000E+00  0.00000000000E+00  0.17018559119E+03  0.17018559119E+03  0.00000000000E+00 0. -1.
         21   -1    0    0  502  503 -0.00000000000E+00 -0.00000000000E+00 -0.21498764023E+03  0.21498764023E+03  0.00000000000E+00 0. -1.
         -6    2    1    2    0  503 -0.35301791325E+02  0.62868247308E+02 -0.59451696768E+02  0.19805636137E+03  0.17462297970E+03 0.  0.
        -24    2    3    3    0    0 -0.42713653241E+02 -0.25677714315E+02 -0.53785656818E+02  0.10889629730E+03  0.80509039867E+02 0.  0.
          6    2    1    2  501    0  0.35301791325E+02 -0.62868247308E+02  0.14649647725E+02  0.18711687005E+03  0.17204498798E+03 0.  0.
         24    2    5    5    0    0  0.11552715607E+02 -0.20495557360E+02 -0.53740165808E+02  0.10310068086E+03  0.84783323031E+02 0.  0.
          5    1    5    5  501    0  0.23749075717E+02 -0.42372689948E+02  0.68389813534E+02  0.84016189190E+02  0.47000000000E+01 0. -1.
        -11    1    6    6    0    0 -0.31512816917E+02 -0.26152347110E+02 -0.11552452450E+02  0.42549524639E+02  0.00000000000E+00 0.  1.
         12    1    6    6    0    0  0.43065532524E+02  0.56567897496E+01 -0.42187713358E+02  0.60551156226E+02  0.00000000000E+00 0. -1.
         -5    1    3    3    0  503  0.74118619161E+01  0.88545961624E+02 -0.56660399504E+01  0.89160064074E+02  0.47000000000E+01 0.  1.
         11    1    4    4    0    0 -0.10924304059E+01 -0.21040719546E+02  0.16715732579E+02  0.26894627695E+02  0.00000000000E+00 0. -1.
        -12    1    4    4    0    0 -0.41621222835E+02 -0.46369947693E+01 -0.70501389397E+02  0.82001669603E+02  0.00000000000E+00 0.  1.
</event>
<event>
12    1  0.1032880E+000  0.1973098E+03  0.7818608E-02  0.1152987E+00
         21   -1    0    0  501  502  0.00000000000E+00  0.00000000000E+00  0.87903575746E+02  0.87903575746E+02  0.00000000000E+00 0.  1.
         21   -1    0    0  502  503 -0.00000000000E+00 -0.00000000000E+00 -0.69371083394E+03  0.69371083394E+03  0.00000000000E+00 0.  1.
         -6    2    1    2    0  503 -0.89000932309E+01  0.88316186289E+02 -0.61212745934E+02  0.20237839730E+03  0.17126311631E+03 0.  0.
        -24    2    3    3    0    0  0.43805059202E+02  0.22081066304E+02  0.27022232207E+02  0.80016534042E+02  0.57148823136E+02 0.  0.
          6    2    1    2  501    0  0.89000932309E+01 -0.88316186289E+02 -0.54459451226E+03  0.57923601238E+03  0.17621638641E+03 0.  0.
         24    2    5    5    0    0 -0.55257119283E+02 -0.86483597442E+02 -0.34860905455E+03  0.37295490338E+03  0.83870883990E+02 0.  0.
          5    1    5    5  501    0  0.64157212514E+02 -0.18325888471E+01 -0.19598545771E+03  0.20628110900E+03  0.47000000000E+01 0. -1.
        -11    1    6    6    0    0 -0.24029820643E+01 -0.42434235633E+02 -0.46028219444E+02  0.62650105042E+02  0.00000000000E+00 0.  1.
         12    1    6    6    0    0 -0.52854137219E+02 -0.44049361809E+02 -0.30258083511E+03  0.31030479834E+03  0.00000000000E+00 0. -1.
         -5    1    3    3    0  503 -0.52705152433E+02  0.66235119985E+02 -0.88234978142E+02  0.12236186326E+03  0.47000000000E+01 0.  1.
         11    1    4    4    0    0  0.49951915539E+02 -0.23338017800E+01  0.15718357559E+02  0.52418577443E+02  0.00000000000E+00 0. -1.
        -12    1    4    4    0    0 -0.61468563368E+01  0.24414868084E+02  0.11303874648E+02  0.27597956599E+02  0.00000000000E+00 0.  1.
</event>
<event>
12    1  0.1032880E+000  0.3244105E+03  0.7818608E-02  0.1073647E+00
         21   -1    0    0  501  502  0.00000000000E+00  0.00000000000E+00  0.33969995762E+03  0.33969995762E+03  0.00000000000E+00 0. -1.
         21   -1    0    0  502  503 -0.00000000000E+00 -0.00000000000E+00 -0.31174743347E+03  0.31174743347E+03  0.00000000000E+00 0. -1.
         -6    2    1    2    0  503 -0.19979535625E+03 -0.18921123792E+03  0.40192301570E+02  0.32680604624E+03  0.17166156768E+03 0.  0.
        -24    2    3    3    0    0 -0.45180061245E+02 -0.54404990044E+02  0.58712468029E+02  0.12078735660E+03  0.78366387796E+02 0.  0.
          6    2    1    2  501    0  0.19979535625E+03  0.18921123792E+03 -0.12239777425E+02  0.32464134485E+03  0.17182291378E+03 0.  0.
         24    2    5    5    0    0  0.22073071823E+03  0.15386044833E+03  0.24374683969E+01  0.28076106168E+03  0.80160744592E+02 0.  0.
          5    1    5    5  501    0 -0.20935361980E+02  0.35350789591E+02 -0.14677245822E+02  0.43880283168E+02  0.47000000000E+01 0. -1.
        -11    1    6    6    0    0  0.10270496956E+03  0.76534547534E+02 -0.38668212234E+02  0.13379491162E+03  0.00000000000E+00 0.  1.
         12    1    6    6    0    0  0.11802574867E+03  0.77325900797E+02  0.41105680631E+02  0.14696615006E+03  0.00000000000E+00 0. -1.
         -5    1    3    3    0  503 -0.15461529500E+03 -0.13480624788E+03 -0.18520166459E+02  0.20601868964E+03  0.47000000000E+01 0.  1.
         11    1    4    4    0    0  0.64027247902E+00 -0.51939458328E+02  0.82723282284E+01  0.52597991355E+02  0.00000000000E+00 0. -1.
        -12    1    4    4    0    0 -0.45820333725E+02 -0.24655317162E+01  0.50440139800E+02  0.68189365244E+02  0.00000000000E+00 0.  1.
</event>
<event>
12    1  0.1032880E+000  0.1765693E+03  0.7818608E-02  0.1171352E+00
         21   -1    0    0  503  502  0.00000000000E+00  0.00000000000E+00  0.17022390298E+03  0.17022390298E+03  0.00000000000E+00 0. -1.
         21   -1    0    0  501  503 -0.00000000000E+00 -0.00000000000E+00 -0.30575737033E+03  0.30575737033E+03  0.00000000000E+00 0. -1.
          6    2    1    2  501    0  0.27252241483E+02 -0.29521250932E+02  0.83501223876E+02  0.19463998575E+03  0.17116682138E+03 0.  0.
         24    2    3    3    0    0  0.34074369698E+02 -0.84176756962E+02  0.60269370548E+02  0.13467687391E+03  0.79111783292E+02 0.  0.
         -6    2    1    2    0  502 -0.27252241483E+02  0.29521250932E+02 -0.21903469123E+03  0.28134128756E+03  0.17193759101E+03 0.  0.
        -24    2    5    5    0    0  0.17346280034E+02  0.56400533638E+02 -0.20583931984E+03  0.22741789944E+03  0.76597400521E+02 0.  0.
          5    1    3    3  501    0 -0.68221282142E+01  0.54655506030E+02  0.23231853328E+02  0.59963111842E+02  0.47000000000E+01 0. -1.
        -13    1    4    4    0    0  0.16120403247E+02 -0.88665667979E+02  0.22911143093E+02  0.92985958923E+02  0.00000000000E+00 0.  1.
         14    1    4    4    0    0  0.17953966451E+02  0.44889110170E+01  0.37358227455E+02  0.41690914982E+02  0.00000000000E+00 0. -1.
         -5    1    5    5    0  502 -0.44598521518E+02 -0.26879282706E+02 -0.13195371385E+02  0.53923388120E+02  0.47000000000E+01 0.  1.
         11    1    6    6    0    0  0.42567151470E+02  0.11747978667E+02 -0.11360304380E+03  0.12188366973E+03  0.00000000000E+00 0. -1.
        -12    1    6    6    0    0 -0.25220871436E+02  0.44652554971E+02 -0.92236276043E+02  0.10553422971E+03  0.00000000000E+00 0.  1.
</event>
<event>
12    1  0.1032880E+000  0.2014633E+03  0.7818608E-02  0.1149103E+00
         21   -1    0    0  503  502  0.00000000000E+00  0.00000000000E+00  0.53685680584E+03  0.53685680584E+03  0.00000000000E+00 0. -1.
         21   -1    0    0  501  503 -0.00000000000E+00 -0.00000000000E+00 -0.83117514575E+02  0.83117514575E+02  0.00000000000E+00 0. -1.
          6    2    1    2  501    0  0.85920371643E+02  0.57033155264E+02  0.12591705650E+03  0.23519530359E+03  0.16978408245E+03 0.  0.
         24    2    3    3    0    0  0.12445834650E+03  0.28514641307E+02  0.10335691440E+03  0.18200196608E+03  0.78352403411E+02 0.  0.
         -6    2    1    2    0  502 -0.85920371643E+02 -0.57033155264E+02  0.32782223476E+03  0.38477901682E+03  0.17306756806E+03 0.  0.
        -24    2    5    5    0    0 -0.61079128854E+02 -0.15537570043E+02  0.73372080354E+02  0.12573087068E+03  0.80328784401E+02 0.  0.
          5    1    3    3  501    0 -0.38537974857E+02  0.28518513956E+02  0.22560142101E+02  0.53193337515E+02  0.47000000000E+01 0. -1.
        -11    1    4    4    0    0  0.99904402207E+02  0.11703038811E+02  0.33414572315E+02  0.10599237869E+03  0.00000000000E+00 0.  1.
         12    1    4    4    0    0  0.24553944293E+02  0.16811602497E+02  0.69942342081E+02  0.76009587386E+02  0.00000000000E+00 0. -1.
         -5    1    5    5    0  502 -0.24841242789E+02 -0.41495585221E+02  0.25445015441E+03  0.25904814613E+03  0.47000000000E+01 0.  1.
         13    1    6    6    0    0  0.84414007650E+01 -0.88877334760E+01  0.50917204177E+02  0.52371850592E+02  0.00000000000E+00 0. -1.
        -14    1    6    6    0    0 -0.69520529619E+02 -0.66498365666E+01  0.22454876177E+02  0.73359020093E+02  0.00000000000E+00 0.  1.
</event>
<event>
12    1  0.1032880E+000  0.4590869E+03  0.7818608E-02  0.1025069E+00
         21   -1    0    0  503  502  0.00000000000E+00  0.00000000000E+00  0.14131942012E+04  0.14131942012E+04  0.00000000000E+00 0.  1.
         21   -1    0    0  501  503 -0.00000000000E+00 -0.00000000000E+00 -0.14905647398E+03  0.14905647398E+03  0.00000000000E+00 0. -1.
          6    2    1    2  501    0  0.37429384933E+01  0.42564781604E+03  0.62340286903E+03  0.77420406400E+03  0.17196139893E+03 0.  0.
         24    2    3    3    0    0 -0.38688964998E+02  0.17010973849E+03  0.33568009516E+03  0.38702624941E+03  0.81694750780E+02 0.  0.
         -6    2    1    2    0  502 -0.37429384933E+01 -0.42564781604E+03  0.64073485818E+03  0.78804661116E+03  0.17113220033E+03 0.  0.
        -24    2    5    5    0    0 -0.38291796183E+01 -0.35770352576E+03  0.41486518459E+03  0.55213214898E+03  0.69067456847E+02 0.  0.
          5    1    3    3  501    0  0.42431903491E+02  0.25553807755E+03  0.28772277387E+03  0.38717781459E+03  0.47000000000E+01 0. -1.
        -11    1    4    4    0    0 -0.39843984100E+02  0.13618481691E+03  0.18823901999E+03  0.23572818260E+03  0.00000000000E+00 0.  1.
         12    1    4    4    0    0  0.11550191026E+01  0.33924921582E+02  0.14744107517E+03  0.15129806681E+03  0.00000000000E+00 0. -1.
         -5    1    5    5    0  502  0.86241125068E-01 -0.67944290281E+02  0.22586967359E+03  0.23591446218E+03  0.47000000000E+01 0.  1.
         11    1    6    6    0    0  0.16228391689E+02 -0.19003384299E+03  0.17541042512E+03  0.25912359873E+03  0.00000000000E+00 0. -1.
        -12    1    6    6    0    0 -0.20057571308E+02 -0.16766968277E+03  0.23945475947E+03  0.29300855025E+03  0.00000000000E+00 0.  1.
</event>
<event>
12    1  0.1032880E+000  0.1969393E+03  0.7818608E-02  0.1152479E+00
         21   -1    0    0  503  502  0.00000000000E+00  0.00000000000E+00  0.58438475801E+03  0.58438475801E+03  0.00000000000E+00 0.  1.
         21   -1    0    0  501  503 -0.00000000000E+00 -0.00000000000E+00 -0.11374248796E+03  0.11374248796E+03  0.00000000000E+00 0. -1.
          6    2    1    2  501    0  0.45684736032E+02  0.85331471457E+02  0.46087090507E+03  0.50094567786E+03  0.17080991160E+03 0.  0.
         24    2    3    3    0    0 -0.29468837824E+02  0.28434778112E+02  0.31405316530E+03  0.32640962976E+03  0.78974089124E+02 0.  0.
         -6    2    1    2    0  502 -0.45684736032E+02 -0.85331471457E+02  0.97713649740E+01  0.19718156810E+03  0.17151249546E+03 0.  0.
        -24    2    5    5    0    0 -0.60852927443E+02 -0.12099202458E+03  0.92833151606E+00  0.15715609720E+03  0.79718431351E+02 0.  0.
          5    1    3    3  501    0  0.75153573856E+02  0.56896693346E+02  0.14681773977E+03  0.17453604811E+03  0.47000000000E+01 0. -1.
        -11    1    4    4    0    0  0.43750335621E+01  0.32125402683E+02  0.26334343978E+03  0.26533177286E+03  0.00000000000E+00 0.  1.
         12    1    4    4    0    0 -0.33843871387E+02 -0.36906245710E+01  0.50709725525E+02  0.61077856896E+02  0.00000000000E+00 0. -1.
         -5    1    5    5    0  502  0.15168191411E+02  0.35660553126E+02  0.88430334579E+01  0.40025470899E+02  0.47000000000E+01 0.  1.
         13    1    6    6    0    0 -0.74253551388E+02 -0.63218439987E+02  0.54831596322E+01  0.97674080942E+02  0.00000000000E+00 0. -1.
        -14    1    6    6    0    0  0.13400623945E+02 -0.57773584596E+02 -0.45548281161E+01  0.59482016260E+02  0.00000000000E+00 0.  1.
</event>
<event>
12    1  0.1032880E+000  0.3866760E+03  0.7818608E-02  0.1048662E+00
         21   -1    0    0  503  502  0.00000000000E+00  0.00000000000E+00  0.73833169613E+03  0.73833169613E+03  0.00000000000E+00 0. -1.
         21   -1    0    0  501  503 -0.00000000000E+00 -0.00000000000E+00 -0.20165819068E+03  0.20165819068E+03  0.00000000000E+00 0. -1.
          6    2    1    2  501    0  0.16586076395E+03  0.30212604953E+03  0.25602957895E+03  0.46220402979E+03  0.17114753003E+03 0.  0.
         24    2    3    3    0    0  0.14853226782E+03  0.31845738069E+03  0.23248058357E+03  0.42838636667E+03  0.77399738475E+02 0.  0.
         -6    2    1    2    0  502 -0.16586076395E+03 -0.30212604953E+03  0.28064392650E+03  0.47778585702E+03  0.17529509081E+03 0.  0.
        -24    2    5    5    0    0 -0.89880126497E+02 -0.20403294863E+03  0.94975904742E+02  0.25442512185E+03  0.77484442825E+02 0.  0.
          5    1    3    3  501    0  0.17328496138E+02 -0.16331331156E+02  0.23548995374E+02  0.33817663119E+02  0.47000000000E+01 0. -1.
        -13    1    4    4    0    0  0.60873026569E+02  0.19166238996E+03  0.97466498412E+02  0.22347195664E+03  0.00000000000E+00 0.  1.
         14    1    4    4    0    0  0.87659241247E+02  0.12679499072E+03  0.13501408516E+03  0.20491441004E+03  0.00000000000E+00 0. -1.
         -5    1    5    5    0  502 -0.75980637457E+02 -0.98093100900E+02  0.18566802176E+03  0.22336073517E+03  0.47000000000E+01 0.  1.
         11    1    6    6    0    0 -0.58485928567E+01 -0.65413632728E+02 -0.16784378823E+01  0.65696016156E+02  0.00000000000E+00 0. -1.
        -12    1    6    6    0    0 -0.84031533640E+02 -0.13861931590E+03  0.96654342624E+02  0.18872910569E+03  0.00000000000E+00 0.  1.
</event>
<event>
12    1  0.1032880E+000  0.6566367E+03  0.7818608E-02  0.9794491E-01
         21   -1    0    0  503  502  0.00000000000E+00  0.00000000000E+00  0.57230385911E+03  0.57230385911E+03  0.00000000000E+00 0. -1.
         21   -1    0    0  501  503 -0.00000000000E+00 -0.00000000000E+00 -0.76077063711E+03  0.76077063711E+03  0.00000000000E+00 0. -1.
          6    2    1    2  501    0 -0.18157279116E+03 -0.60693742964E+03 -0.27682604562E+02  0.65721995097E+03  0.17271368032E+03 0.  0.
         24    2    3    3    0    0 -0.18560044378E+03 -0.61444422071E+03 -0.27969283042E+02  0.64748619103E+03  0.80416799772E+02 0.  0.
         -6    2    1    2    0  502  0.18157279116E+03  0.60693742964E+03 -0.16078417343E+03  0.67585454526E+03  0.17200608691E+03 0.  0.
        -24    2    5    5    0    0  0.59163186617E+02  0.18049540210E+03 -0.93914674533E+02  0.22715583340E+03  0.81859231164E+02 0.  0.
          5    1    3    3  501    0  0.40276526262E+01  0.75067910736E+01  0.28667848055E+00  0.97337599339E+01  0.47000000000E+01 0. -1.
        -11    1    4    4    0    0 -0.66002003172E+02 -0.34785123013E+03 -0.29576250630E+02  0.35529072227E+03  0.00000000000E+00 0.  1.
         12    1    4    4    0    0 -0.11959844061E+03 -0.26659299058E+03  0.16069675880E+01  0.29219546876E+03  0.00000000000E+00 0. -1.
         -5    1    5    5    0  502  0.12240960454E+03  0.42644202754E+03 -0.66869498900E+02  0.44869871185E+03  0.47000000000E+01 0.  1.
         11    1    6    6    0    0  0.63588618643E+02  0.71472355496E+02 -0.59871051510E+02  0.11285545104E+03  0.00000000000E+00 0. -1.
        -12    1    6    6    0    0 -0.44254320263E+01  0.10902304660E+03 -0.34043623022E+02  0.11430038236E+03  0.00000000000E+00 0.  1.
</event>
<event>
12    1  0.1032880E+000  0.2589384E+03  0.7818608E-02  0.1108341E+00
         21   -1    0    0  501  502  0.00000000000E+00  0.00000000000E+00  0.30096548322E+03  0.30096548322E+03  0.00000000000E+00 0.  1.
         21   -1    0    0  502  503 -0.00000000000E+00 -0.00000000000E+00 -0.25724134429E+03  0.25724134429E+03  0.00000000000E+00 0.  1.
         -6    2    1    2    0  503  0.18265412748E+03 -0.61518323526E+02 -0.84987884586E+02  0.26904273957E+03  0.16737389515E+03 0.  0.
        -24    2    3    3    0    0  0.36212757480E+02  0.13632360274E+02 -0.44822737030E+02  0.99549290730E+02  0.80023612009E+02 0.  0.
          6    2    1    2  501    0 -0.18265412748E+03  0.61518323526E+02  0.12871202352E+03  0.28916408794E+03  0.17292209326E+03 0.  0.
         24    2    5    5    0    0 -0.16742806979E+03  0.26489571685E+02  0.38590861207E+02  0.19117041373E+03  0.79517397797E+02 0.  0.
          5    1    5    5  501    0 -0.15226057685E+02  0.35028751841E+02  0.90121162315E+02  0.97993674210E+02  0.47000000000E+01 0. -1.
        -13    1    6    6    0    0 -0.10891091533E+03  0.54029935646E+02  0.15803000900E+02  0.12259916909E+03  0.00000000000E+00 0.  1.
         14    1    6    6    0    0 -0.58517154465E+02 -0.27540363961E+02  0.22787860307E+02  0.68571244638E+02  0.00000000000E+00 0. -1.
         -5    1    3    3    0  503  0.14644137000E+03 -0.75150683800E+02 -0.40165147555E+02  0.16949344884E+03  0.47000000000E+01 0.  1.
         13    1    4    4    0    0 -0.25037245467E+02 -0.41518706676E+00 -0.19749191156E+02  0.31891481499E+02  0.00000000000E+00 0. -1.
        -14    1    4    4    0    0  0.61250002947E+02  0.14047547340E+02 -0.25073545874E+02  0.67657809231E+02  0.00000000000E+00 0.  1.
</event>
<event>
12    1  0.1032880E+000  0.1804952E+03  0.7818608E-02  0.1167343E+00
         21   -1    0    0  503  502  0.00000000000E+00  0.00000000000E+00  0.47069604723E+03  0.47069604723E+03  0.00000000000E+00 0.  1.
         21   -1    0    0  501  503 -0.00000000000E+00 -0.00000000000E+00 -0.13192037911E+03  0.13192037911E+03  0.00000000000E+00 0.  1.
          6    2    1    2  501    0 -0.30345769308E+02 -0.43957325506E+02  0.37718952862E+03  0.41815124289E+03  0.17241058335E+03 0.  0.
         24    2    3    3    0    0  0.14858398469E+01 -0.83203586164E+02  0.17424895098E+03  0.20896116576E+03  0.79856292228E+02 0.  0.
         -6    2    1    2    0  502  0.30345769308E+02  0.43957325506E+02 -0.38413860496E+02  0.18446518344E+03  0.17233301205E+03 0.  0.
        -24    2    5    5    0    0  0.76050648475E+02 -0.19228966984E-01  0.80282041215E+00  0.10974630106E+03  0.79119558724E+02 0.  0.
          5    1    3    3  501    0 -0.31831609155E+02  0.39246260659E+02  0.20294057764E+03  0.20919007713E+03  0.47000000000E+01 0. -1.
        -11    1    4    4    0    0  0.17993037775E+01  0.54454034358E+01 -0.58713183104E+01  0.82074534032E+01  0.00000000000E+00 0.  1.
         12    1    4    4    0    0 -0.31346393059E+00 -0.88648989600E+02  0.18012026929E+03  0.20075371236E+03  0.00000000000E+00 0. -1.
         -5    1    5    5    0  502 -0.45704879167E+02  0.43976554473E+02 -0.39216680908E+02  0.74718882382E+02  0.47000000000E+01 0.  1.
         13    1    6    6    0    0  0.43000246728E+02  0.33724136519E+02  0.20776707615E+02  0.58463751008E+02  0.00000000000E+00 0. -1.
        -14    1    6    6    0    0  0.33050401747E+02 -0.33743365486E+02 -0.19973887202E+02  0.51282550053E+02  0.00000000000E+00 0.  1.
</event>
<event>
12    1  0.1032880E+000  0.2110279E+03  0.7818608E-02  0.1140917E+00
         21   -1    0    0  501  502  0.00000000000E+00  0.00000000000E+00  0.24314834690E+03  0.24314834690E+03  0.00000000000E+00 0. -1.
         21   -1    0    0  502  503 -0.00000000000E+00 -0.00000000000E+00 -0.19103307566E+03  0.19103307566E+03  0.00000000000E+00 0. -1.
         -6    2    1    2    0  503 -0.34631425793E+02 -0.11798786839E+03  0.72155542818E+02  0.22302286144E+03  0.17150015051E+03 0.  0.
        -24    2    3    3    0    0 -0.65281836588E+02 -0.69256595305E+02 -0.70044979994E+01  0.12503007231E+03  0.80779092643E+02 0.  0.
          6    2    1    2  501    0  0.34631425793E+02  0.11798786839E+03 -0.20040271570E+02  0.21115856113E+03  0.17048710424E+03 0.  0.
         24    2    5    5    0    0  0.27569526709E+02  0.76842655302E+02 -0.77597741754E+02  0.13990021879E+03  0.82980655666E+02 0.  0.
          5    1    5    5  501    0  0.70618990833E+01  0.41145213088E+02  0.57557470184E+02  0.71258342338E+02  0.47000000000E+01 0. -1.
        -11    1    6    6    0    0  0.25914936696E+02  0.66166151427E+02 -0.10373486074E+02  0.71813318764E+02  0.00000000000E+00 0.  1.
         12    1    6    6    0    0  0.16545900132E+01  0.10676503875E+02 -0.67224255680E+02  0.68086900024E+02  0.00000000000E+00 0. -1.
         -5    1    3    3    0  503  0.30650410795E+02 -0.48731273085E+02  0.79160040817E+02  0.97992789125E+02  0.47000000000E+01 0.  1.
         11    1    4    4    0    0  0.83784500388E+01 -0.12715147521E+02 -0.26110179509E+02  0.30226062852E+02  0.00000000000E+00 0. -1.
        -12    1    4    4    0    0 -0.73660286627E+02 -0.56541447785E+02  0.19105681510E+02  0.94804009459E+02  0.00000000000E+00 0.  1.
</event>
<event>
12    1  0.1032880E+000  0.2781490E+03  0.7818608E-02  0.1096728E+00
         21   -1    0    0  501  502  0.00000000000E+00  0.00000000000E+00  0.20960292053E+03  0.20960292053E+03  0.00000000000E+00 0. -1.
         21   -1    0    0  502  503 -0.00000000000E+00 -0.00000000000E+00 -0.37557966702E+03  0.37557966702E+03  0.00000000000E+00 0. -1.
         -6    2    1    2    0  503  0.20880797024E+03  0.63474811648E+02 -0.12207977095E+03  0.30376033663E+03  0.17244434315E+03 0.  0.
        -24    2    3    3    0    0  0.19985539673E+03  0.80613505238E+02 -0.58120145397E+02  0.23677670361E+03  0.79022397111E+02 0.  0.
          6    2    1    2  501    0 -0.20880797024E+03 -0.63474811648E+02 -0.43896975533E+02  0.28142225093E+03  0.17216770518E+03 0.  0.
         24    2    5    5    0    0 -0.59864320429E+02 -0.77661288517E+02 -0.67506859269E+01  0.12719059472E+03  0.80727089820E+02 0.  0.
          5    1    5    5  501    0 -0.14894364981E+03  0.14186476869E+02 -0.37146289606E+02  0.15423165621E+03  0.47000000000E+01 0. -1.
        -13    1    6    6    0    0 -0.71693226320E+02 -0.45789783031E+02 -0.24920971963E+02  0.88643543328E+02  0.00000000000E+00 0.  1.
         14    1    6    6    0    0  0.11828905891E+02 -0.31871505487E+02  0.18170286037E+02  0.38547051395E+02  0.00000000000E+00 0. -1.
         -5    1    3    3    0  503  0.89525735101E+01 -0.17138693590E+02 -0.63959625556E+02  0.66983633014E+02  0.47000000000E+01 0.  1.
         13    1    4    4    0    0  0.10528990997E+03  0.83326417161E+02 -0.25263527203E+02  0.13662906991E+03  0.00000000000E+00 0. -1.
        -14    1    4    4    0    0  0.94565486757E+02 -0.27129119229E+01 -0.32856618194E+02  0.10014763370E+03  0.00000000000E+00 0.  1.
</event>
<event>
12    1  0.1032880E+000  0.2261225E+03  0.7818608E-02  0.1129978E+00
         21   -1    0    0  503  502  0.00000000000E+00  0.00000000000E+00  0.94465912122E+02  0.94465912122E+02  0.00000000000E+00 0.  1.
         21   -1    0    0  501  503 -0.00000000000E+00 -0.00000000000E+00 -0.53569062541E+03  0.53569062541E+03  0.00000000000E+00 0.  1.
          6    2    1    2  501    0  0.84144828671E+02  0.12195385483E+03 -0.20270361509E+03  0.30367767062E+03  0.17081650143E+03 0.  0.
         24    2    3    3    0    0  0.41536864146E+02 -0.45293931055E+01 -0.80179203879E+02  0.12243812749E+03  0.82562484485E+02 0.  0.
         -6    2    1    2    0  502 -0.84144828671E+02 -0.12195385483E+03 -0.23852109819E+03  0.32647886692E+03  0.16656242481E+03 0.  0.
        -24    2    5    5    0    0 -0.20156471663E+02 -0.49228989643E+02 -0.36331919639E+02  0.10223353302E+03  0.79384571034E+02 0.  0.
          5    1    3    3  501    0  0.42607964525E+02  0.12648324793E+03 -0.12252441121E+03  0.18123954312E+03  0.47000000000E+01 0. -1.
        -13    1    4    4    0    0  0.21829990615E+02 -0.28890159845E+01  0.14073373301E+02  0.26133402757E+02  0.00000000000E+00 0.  1.
         14    1    4    4    0    0  0.19706873531E+02 -0.16403771210E+01 -0.94252577180E+02  0.96304724736E+02  0.00000000000E+00 0. -1.
         -5    1    5    5    0  502 -0.63988357008E+02 -0.72724865182E+02 -0.20218917856E+03  0.22424533389E+03  0.47000000000E+01 0.  1.
         11    1    6    6    0    0 -0.42423589166E+02 -0.55832507604E+02 -0.17345649401E+02  0.72235042578E+02  0.00000000000E+00 0. -1.
        -12    1    6    6    0    0  0.22267117503E+02  0.66035179609E+01 -0.18986270238E+02  0.29998490444E+02  0.00000000000E+00 0.  1.
</event>
<event>
12    1  0.1032880E+000  0.1955027E+03  0.7818608E-02  0.1154986E+00
         21   -1    0    0  503  502  0.00000000000E+00  0.00000000000E+00  0.19221351535E+03  0.19221351535E+03  0.00000000000E+00 0. -1.
         21   -1    0    0  501  503 -0.00000000000E+00 -0.00000000000E+00 -0.24977925309E+03  0.24977925309E+03  0.00000000000E+00 0. -1.
          6    2    1    2  501    0 -0.14581161540E+00 -0.78616510245E+02 -0.13498381071E+03  0.23757510564E+03  0.17899923106E+03 0.  0.
         24    2    3    3    0    0 -0.50164018860E+02 -0.10307621654E+03 -0.10508959033E+03  0.17420434976E+03  0.78499670544E+02 0.  0.
         -6    2    1    2    0  502  0.14581161540E+00  0.78616510245E+02  0.77418072971E+02  0.20441766280E+03  0.17208267170E+03 0.  0.
        -24    2    5    5    0    0  0.51907500141E+02  0.47734799754E+02  0.10596086455E+01  0.10702332254E+03  0.80497634239E+02 0.  0.
          5    1    3    3  501    0  0.50018207244E+02  0.24459706300E+02 -0.29894220388E+02  0.63370755880E+02  0.47000000000E+01 0. -1.
        -11    1    4    4    0    0 -0.46775386121E+02 -0.91001013186E+02 -0.43213339765E+02  0.11106986036E+03  0.00000000000E+00 0.  1.
         12    1    4    4    0    0 -0.33886327383E+01 -0.12075203359E+02 -0.61876250561E+02  0.63134489397E+02  0.00000000000E+00 0. -1.
         -5    1    5    5    0  502 -0.51761688526E+02  0.30881710491E+02  0.76358464325E+02  0.97394340267E+02  0.47000000000E+01 0.  1.
         11    1    6    6    0    0  0.19381333827E+02 -0.22394872765E+02  0.23193715111E+01  0.29707674282E+02  0.00000000000E+00 0. -1.
        -12    1    6    6    0    0  0.32526166315E+02  0.70129672519E+02 -0.12597628655E+01  0.77315648256E+02  0.00000000000E+00 0.  1.
</event>
<event>
12    1  0.1032880E+000  0.2538583E+03  0.7818608E-02  0.1111155E+00
         21   -1    0    0  501  502  0.00000000000E+00  0.00000000000E+00  0.20302628797E+03  0.20302628797E+03  0.00000000000E+00 0. -1.
         21   -1    0    0  502  503 -0.00000000000E+00 -0.00000000000E+00 -0.33153062864E+03  0.33153062864E+03  0.00000000000E+00 0. -1.
         -6    2    1    2    0  503  0.10141812538E+03 -0.15496265470E+03 -0.48977216172E+01  0.25220495848E+03  0.17112654060E+03 0.  0.
        -24    2    3    3    0    0  0.26138026647E+01 -0.11297957983E+03 -0.32762212412E+02  0.14119418148E+03  0.78046248463E+02 0.  0.
          6    2    1    2  501    0 -0.10141812538E+03  0.15496265470E+03 -0.12360661905E+03  0.28235195814E+03  0.17362307302E+03 0.  0.
         24    2    5    5    0    0 -0.76312228124E+02  0.18290814361E+03 -0.11960609672E+03  0.24428162053E+03  0.78031702510E+02 0.  0.
          5    1    5    5  501    0 -0.25105897251E+02 -0.27945488905E+02 -0.40005223351E+01  0.38070337612E+02  0.47000000000E+01 0. -1.
        -11    1    6    6    0    0 -0.47820314473E+02  0.76159904616E+02 -0.95539581962E+02  0.13120566020E+03  0.00000000000E+00 0.  1.
         12    1    6    6    0    0 -0.28491913652E+02  0.10674823899E+03 -0.24066514755E+02  0.11307596033E+03  0.00000000000E+00 0. -1.
         -5    1    3    3    0  503  0.98804322711E+02 -0.41983074873E+02  0.27864490795E+02  0.11101077700E+03  0.47000000000E+01 0.  1.
         13    1    4    4    0    0 -0.14162233929E+02  0.70403179667E+01 -0.70199565149E+01  0.17303604723E+02  0.00000000000E+00 0. -1.
        -14    1    4    4    0    0  0.16776036594E+02 -0.12001989780E+03 -0.25742255898E+02  0.12389057676E+03  0.00000000000E+00 0.  1.
</event>
<event>
12    1  0.1032880E+000  0.2565170E+03  0.7818608E-02  0.1109553E+00
         21   -1    0    0  503  502  0.00000000000E+00  0.00000000000E+00  0.59062142976E+02  0.59062142976E+02  0.00000000000E+00 0.  1.
         21   -1    0    0  501  503 -0.00000000000E+00 -0.00000000000E+00 -0.12670120478E+04  0.12670120478E+04  0.00000000000E+00 0. -1.
          6    2    1    2  501    0 -0.13847305460E+03  0.12620521370E+03 -0.83858174546E+03  0.87637002912E+03  0.17234425231E+03 0.  0.
         24    2    3    3    0    0 -0.16217968744E+03  0.92065331210E+02 -0.76719425841E+03  0.79363068343E+03  0.80525494864E+02 0.  0.
         -6    2    1    2    0  502  0.13847305460E+03 -0.12620521370E+03 -0.36936815940E+03  0.44970416169E+03  0.17520974016E+03 0.  0.
        -24    2    5    5    0    0  0.16217661380E+03 -0.12973933420E+03 -0.28686121057E+03  0.36365861949E+03  0.82611672909E+02 0.  0.
          5    1    3    3  501    0  0.23706632838E+02  0.34139882493E+02 -0.71387487054E+02  0.82739345689E+02  0.47000000000E+01 0. -1.
        -13    1    4    4    0    0 -0.91755932363E+02  0.40813385277E+02 -0.25460862617E+03  0.27369770928E+03  0.00000000000E+00 0.  1.
         14    1    4    4    0    0 -0.70423755073E+02  0.51251945933E+02 -0.51258563223E+03  0.51993297415E+03  0.00000000000E+00 0. -1.
         -5    1    5    5    0  502 -0.23703559206E+02  0.35341204936E+01 -0.82506948827E+02  0.86045542194E+02  0.47000000000E+01 0.  1.
         11    1    6    6    0    0  0.31437567640E+01  0.48442094563E+01 -0.40970445889E+02  0.41375439674E+02  0.00000000000E+00 0. -1.
        -12    1    6    6    0    0  0.15903285704E+03 -0.13458354365E+03 -0.24589076468E+03  0.32228317982E+03  0.00000000000E+00 0.  1.
</event>
<event>
12    1  0.1032880E+000  0.1776474E+03  0.7818608E-02  0.1170243E+00
         21   -1    0    0  501  502  0.00000000000E+00  0.00000000000E+00  0.67083180112E+03  0.67083180112E+03  0.00000000000E+00 0. -1.
         21   -1    0    0  502  503 -0.00000000000E+00 -0.00000000000E+00 -0.48570761488E+02  0.48570761488E+02  0.00000000000E+00 0. -1.
         -6    2    1    2    0  503  0.13481793328E+02 -0.31540823990E+02  0.37852990686E+03  0.41814290955E+03  0.17430438919E+03 0.  0.
        -24    2    3    3    0    0  0.73933552173E+02 -0.33112566440E+02  0.27909571188E+03  0.30166915863E+03  0.80915095547E+02 0.  0.
          6    2    1    2  501    0 -0.13481793328E+02  0.31540823990E+02  0.24373113277E+03  0.30125965305E+03  0.17371220783E+03 0.  0.
         24    2    5    5    0    0  0.50847594782E+02 -0.10392770700E+02  0.16852813345E+03  0.19367583622E+03  0.80094383028E+02 0.  0.
          5    1    5    5  501    0 -0.64329388111E+02  0.41933594690E+02  0.75202999320E+02  0.10758381684E+03  0.47000000000E+01 0. -1.
        -11    1    6    6    0    0 -0.11097361433E+02 -0.16355215867E+02  0.76721596002E+01  0.21201569511E+02  0.00000000000E+00 0.  1.
         12    1    6    6    0    0  0.61944956215E+02  0.59624451667E+01  0.16085597385E+03  0.17247426671E+03  0.00000000000E+00 0. -1.
         -5    1    3    3    0  503 -0.60451758845E+02  0.15717424505E+01  0.99434194988E+02  0.11647375093E+03  0.47000000000E+01 0.  1.
         11    1    4    4    0    0 -0.90005611887E+01 -0.11089626143E+02  0.61451450722E+01  0.15548399199E+02  0.00000000000E+00 0. -1.
        -12    1    4    4    0    0  0.82934113362E+02 -0.22022940297E+02  0.27295056680E+03  0.28612075943E+03  0.00000000000E+00 0.  1.
</event>
<event>
12    1  0.1032880E+000  0.2133925E+03  0.7818608E-02  0.1139163E+00
         21   -1    0    0  503  502  0.00000000000E+00  0.00000000000E+00  0.23578629545E+02  0.23578629545E+02  0.00000000000E+00 0.  1.
         21   -1    0    0  501  503 -0.00000000000E+00 -0.00000000000E+00 -0.21825064099E+04  0.21825064099E+04  0.00000000000E+00 0.  1.
          6    2    1    2  501    0  0.12260513282E+03 -0.20179367380E+02 -0.69940836779E+03  0.73123758955E+03  0.17348522117E+03 0.  0.
         24    2    3    3    0    0  0.24168352238E+02  0.10617919218E+02 -0.50840247628E+03  0.51411178908E+03  0.71700797275E+02 0.  0.
         -6    2    1    2    0  502 -0.12260513282E+03  0.20179367380E+02 -0.14595194126E+04  0.14748474499E+04  0.17186872713E+03 0.  0.
        -24    2    5    5    0    0 -0.50078447169E+02  0.53863926018E+02 -0.48692421199E+03  0.49895899121E+03  0.80347453551E+02 0.  0.
          5    1    3    3  501    0  0.98436780583E+02 -0.30797286597E+02 -0.19100589152E+03  0.21712580046E+03  0.47000000000E+01 0. -1.
        -13    1    4    4    0    0 -0.36211047601E+01 -0.17132395460E+01  0.73040264214E+00  0.40719869161E+01  0.00000000000E+00 0.  1.
         14    1    4    4    0    0  0.27789456998E+02  0.12331158764E+02 -0.50913287892E+03  0.51003980216E+03  0.00000000000E+00 0. -1.
         -5    1    5    5    0  502 -0.72526685652E+02 -0.33684558639E+02 -0.97259520057E+03  0.97588845869E+03  0.47000000000E+01 0.  1.
         13    1    6    6    0    0 -0.32692959303E+02  0.22012984565E+01 -0.58255365206E+02  0.66838333897E+02  0.00000000000E+00 0. -1.
        -14    1    6    6    0    0 -0.17385487866E+02  0.51662627562E+02 -0.42866884678E+03  0.43212065731E+03  0.00000000000E+00 0.  1.
</event>
<event>
12    1  0.1032880E+000  0.4475929E+03  0.7818608E-02  0.1028635E+00
         21   -1    0    0  503  502  0.00000000000E+00  0.00000000000E+00  0.42928865586E+03  0.42928865586E+03  0.00000000000E+00 0. -1.
         21   -1    0    0  501  503 -0.00000000000E+00 -0.00000000000E+00 -0.48561063252E+03  0.48561063252E+03  0.00000000000E+00 0. -1.
          6    2    1    2  501    0  0.33738801638E+03 -0.23761490155E+03  0.68223450655E+02  0.45276244998E+03  0.17334324865E+03 0.  0.
         24    2    3    3    0    0  0.22823885675E+03 -0.22762858661E+03  0.82127929674E+02  0.34217904222E+03  0.80210665941E+02 0.  0.
         -6    2    1    2    0  502 -0.33738801638E+03  0.23761490155E+03 -0.12454542732E+03  0.46213683841E+03  0.16663546714E+03 0.  0.
        -24    2    5    5    0    0 -0.18785604734E+03  0.97419485424E+02 -0.36281822558E+01  0.22410819597E+03  0.73694430791E+02 0.  0.
          5    1    3    3  501    0  0.10914915963E+03 -0.99863149419E+01 -0.13904479018E+02  0.11058340775E+03  0.47000000000E+01 0. -1.
        -13    1    4    4    0    0  0.15881344572E+03 -0.10850045511E+03  0.29464432195E+02  0.19458214734E+03  0.00000000000E+00 0.  1.
         14    1    4    4    0    0  0.69425411039E+02 -0.11912813150E+03  0.52663497479E+02  0.14759689488E+03  0.00000000000E+00 0. -1.
         -5    1    5    5    0  502 -0.14953196904E+03  0.14019541613E+03 -0.12091724507E+03  0.23802864244E+03  0.47000000000E+01 0.  1.
         11    1    6    6    0    0 -0.16756465456E+03  0.10638774767E+03  0.87988086721E+01  0.19867985642E+03  0.00000000000E+00 0. -1.
        -12    1    6    6    0    0 -0.20291392782E+02 -0.89682622445E+01 -0.12426990928E+02  0.25428339550E+02  0.00000000000E+00 0.  1.
</event>
<event>
12    1  0.1032880E+000  0.4051593E+03  0.7818608E-02  0.1042029E+00
         21   -1    0    0  503  502  0.00000000000E+00  0.00000000000E+00  0.49873726023E+03  0.49873726023E+03  0.00000000000E+00 0. -1.
         21   -1    0    0  501  503 -0.00000000000E+00 -0.00000000000E+00 -0.41194700446E+03  0.41194700446E+03  0.00000000000E+00 0.  1.
          6    2    1    2  501    0  0.33982201227E+03 -0.13694408379E+03 -0.16099051936E+03  0.43597249639E+03  0.17297799911E+03 0.  0.
         24    2    3    3    0    0  0.13429491340E+03 -0.10822474348E+03 -0.36165448791E+02  0.19375446007E+03  0.80530318778E+02 0.  0.
         -6    2    1    2    0  502 -0.33982201227E+03  0.13694408379E+03  0.24778077513E+03  0.47471176829E+03  0.17240437442E+03 0.  0.
        -24    2    5    5    0    0 -0.25925510511E+03  0.14688218370E+03  0.13651075314E+03  0.33689703703E+03  0.77954104585E+02 0.  0.
          5    1    3    3  501    0  0.20552709887E+03 -0.28719340310E+02 -0.12482507057E+03  0.24221803633E+03  0.47000000000E+01 0. -1.
        -11    1    4    4    0    0  0.40600337633E+02 -0.37570898020E+02 -0.51289024409E+02  0.75435560705E+02  0.00000000000E+00 0.  1.
         12    1    4    4    0    0  0.93694575766E+02 -0.70653845464E+02  0.15123575619E+02  0.11831889936E+03  0.00000000000E+00 0. -1.
         -5    1    5    5    0  502 -0.80566907160E+02 -0.99380999062E+01  0.11127002199E+03  0.13781473126E+03  0.47000000000E+01 0.  1.
         11    1    6    6    0    0 -0.13445879981E+03  0.41410284061E+02  0.89980533049E+02  0.16700442150E+03  0.00000000000E+00 0. -1.
        -12    1    6    6    0    0 -0.12479630530E+03  0.10547189964E+03  0.46530220095E+02  0.16989261553E+03  0.00000000000E+00 0.  1.
</event>
<event>
12    1  0.1032880E+000  0.1813041E+03  0.7818608E-02  0.1166647E+00
         21   -1    0    0  501  502  0.00000000000E+00  0.00000000000E+00  0.74940268471E+02  0.74940268471E+02  0.00000000000E+00 0. -1.
         21   -1    0    0  502  503 -0.00000000000E+00 -0.00000000000E+00 -0.55714041767E+03  0.55714041767E+03  0.00000000000E+00 0. -1.
         -6    2    1    2    0  503 -0.50058481411E+02  0.34081683071E+02 -0.38769329534E+03  0.42799212829E+03  0.17089107040E+03 0.  0.
        -24    2    3    3    0    0  0.46947058731E+01  0.42730515325E+02 -0.10174859918E+03  0.13668614984E+03  0.80513284118E+02 0.  0.
          6    2    1    2  501    0  0.50058481411E+02 -0.34081683071E+02 -0.94506853855E+02  0.20408855785E+03  0.17044993792E+03 0.  0.
         24    2    5    5    0    0  0.38843379453E+02  0.45435501747E+02 -0.61331373792E+02  0.11707439997E+03  0.79822833650E+02 0.  0.
          5    1    5    5  501    0  0.11215101958E+02 -0.79517184818E+02 -0.33175480062E+02  0.87014157875E+02  0.47000000000E+01 0. -1.
        -13    1    6    6    0    0  0.53815514441E+02  0.57902893282E+02 -0.55997869938E+02  0.96874228165E+02  0.00000000000E+00 0.  1.
         14    1    6    6    0    0 -0.14972134988E+02 -0.12467391535E+02 -0.53335038541E+01  0.20200171810E+02  0.00000000000E+00 0. -1.
         -5    1    3    3    0  503 -0.54753187284E+02 -0.86488322532E+01 -0.28594469617E+03  0.29130597845E+03  0.47000000000E+01 0.  1.
         11    1    4    4    0    0  0.35959751065E+02  0.17018721663E+02 -0.17996958329E+02  0.43664987035E+02  0.00000000000E+00 0. -1.
        -12    1    4    4    0    0 -0.31265045192E+02  0.25711793662E+02 -0.83751640847E+02  0.93021162800E+02  0.00000000000E+00 0.  1.
</event>
<event>
12    1  0.1032880E+000  0.1721262E+03  0.7818608E-02  0.1176396E+00
         21   -1    0    0  501  502  0.00000000000E+00  0.00000000000E+00  0.30038986112E+03  0.30038986112E+03  0.00000000000E+00 0. -1.
         21   -1    0    0  502  503 -0.00000000000E+00 -0.00000000000E+00 -0.10062759554E+03  0.10062759554E+03  0.00000000000E+00 0. -1.
         -6    2    1    2    0  503 -0.91621090113E+01  0.91762565453E+01  0.60910105497E+02  0.17986738932E+03  0.16874267055E+03 0.  0.
        -24    2    3    3    0    0  0.25914655997E+02  0.51209789216E+02  0.74080894506E+02  0.12336290281E+03  0.80227270631E+02 0.  0.
          6    2    1    2  501    0  0.91621090113E+01 -0.91762565453E+01  0.13885216008E+03  0.22115006734E+03  0.17163706477E+03 0.  0.
         24    2    5    5    0    0  0.52829743550E+02 -0.18172957825E+02  0.14568126649E+03  0.17580109123E+03  0.81004654633E+02 0.  0.
          5    1    5    5  501    0 -0.43667634539E+02  0.89967012797E+01 -0.68291064111E+01  0.45348976113E+02  0.47000000000E+01 0. -1.
        -11    1    6    6    0    0 -0.17652486850E+02  0.11687372338E+02  0.40691771194E+02  0.45869654534E+02  0.00000000000E+00 0.  1.
         12    1    6    6    0    0  0.70482230400E+02 -0.29860330163E+02  0.10498949529E+03  0.12993143670E+03  0.00000000000E+00 0. -1.
         -5    1    3    3    0  503 -0.35076765008E+02 -0.42033532671E+02 -0.13170789008E+02  0.56504486506E+02  0.47000000000E+01 0.  1.
         11    1    4    4    0    0 -0.14822268398E+02 -0.58319949933E+01  0.44531245169E+02  0.47294223774E+02  0.00000000000E+00 0. -1.
        -12    1    4    4    0    0  0.40736924395E+02  0.57041784209E+02  0.29549649336E+02  0.76068679040E+02  0.00000000000E+00 0.  1.
</event>
<event>
12    1  0.1032880E+000  0.1975731E+03  0.7818608E-02  0.1152183E+00
         21   -1    0    0  503  502  0.00000000000E+00  0.00000000000E+00  0.18865132282E+04  0.18865132282E+04  0.00000000000E+00 0. -1.
         21   -1    0    0  501  503 -0.00000000000E+00 -0.00000000000E+00 -0.21493847788E+02  0.21493847788E+02  0.00000000000E+00 0. -1.
          6    2    1    2  501    0  0.93585828794E+02  0.14868908560E+02  0.11328919465E+04  0.11496893813E+04  0.17135378382E+03 0.  0.
         24    2    3    3    0    0  0.22889570779E+02 -0.47980923505E+02  0.70517543433E+03  0.71161225673E+03  0.79331641048E+02 0.  0.
         -6    2    1    2    0  502 -0.93585828794E+02 -0.14868908560E+02  0.73212743392E+03  0.75831769470E+03  0.17336595630E+03 0.  0.
        -24    2    5    5    0    0 -0.56251599886E+02 -0.68643179954E+02  0.30723902213E+03  0.32839006197E+03  0.74619618311E+02 0.  0.
          5    1    3    3  501    0  0.70696258015E+02  0.62849832066E+02  0.42771651217E+03  0.43807712457E+03  0.47000000000E+01 0. -1.
        -11    1    4    4    0    0 -0.17877965335E+02  0.10500263400E+02  0.92037047082E+02  0.94343495863E+02  0.00000000000E+00 0.  1.
         12    1    4    4    0    0  0.40767536114E+02 -0.58481186905E+02  0.61313838725E+03  0.61726876087E+03  0.00000000000E+00 0. -1.
         -5    1    5    5    0  502 -0.37334228908E+02  0.53774271394E+02  0.42488841179E+03  0.42992763273E+03  0.47000000000E+01 0.  1.
         11    1    6    6    0    0  0.15072399425E+02  0.22288029527E+01  0.46675163253E+02  0.49099039214E+02  0.00000000000E+00 0. -1.
        -12    1    6    6    0    0 -0.71323999311E+02 -0.70871982907E+02  0.26056385888E+03  0.27929102275E+03  0.00000000000E+00 0.  1.
</event>
<event>
12    1  0.1032880E+000  0.1831460E+03  0.7818608E-02  0.1165502E+00
         21   -1    0    0  503  502  0.00000000000E+00  0.00000000000E+00  0.80803962904E+03  0.80803962904E+03  0.00000000000E+00 0.  1.
         21   -1    0    0  501  503 -0.00000000000E+00 -0.00000000000E+00 -0.12520984186E+03  0.12520984186E+03  0.00000000000E+00 0.  1.
          6    2    1    2  501    0 -0.34607297047E+02 -0.43511216050E+02  0.72353804009E+03  0.74563386453E+03  0.17138166049E+03 0.  0.
         24    2    3    3    0    0  0.34597671787E+02 -0.60247950850E+02  0.35954056868E+03  0.37470840680E+03  0.79436484848E+02 0.  0.
         -6    2    1    2    0  502  0.34607297047E+02  0.43511216050E+02 -0.40708252909E+02  0.18761560637E+03  0.17450376204E+03 0.  0.
        -24    2    5    5    0    0 -0.89912750056E+01  0.71090573481E+02  0.18301662055E+02  0.10909352982E+03  0.80198096928E+02 0.  0.
          5    1    3    3  501    0 -0.69204968834E+02  0.16736734800E+02  0.36399747141E+03  0.37092545773E+03  0.47000000000E+01 0. -1.
        -13    1    4    4    0    0  0.11521959527E+02 -0.45627974259E+01  0.24466805696E+03  0.24498169885E+03  0.00000000000E+00 0.  1.
         14    1    4    4    0    0  0.23075712260E+02 -0.55685153424E+02  0.11487251171E+03  0.12972670795E+03  0.00000000000E+00 0. -1.
         -5    1    5    5    0  502  0.43598572052E+02 -0.27579357431E+02 -0.59009914964E+02  0.78522076548E+02  0.47000000000E+01 0.  1.
         13    1    6    6    0    0 -0.18946931331E+01 -0.16941458197E+02  0.11397977267E+02  0.20506505155E+02  0.00000000000E+00 0. -1.
        -14    1    6    6    0    0 -0.70965818726E+01  0.88032031678E+02  0.69036847883E+01  0.88587024666E+02  0.00000000000E+00 0.  1.
</event>
<event>
12    1  0.1032880E+000  0.2194683E+03  0.7818608E-02  0.1134392E+00
         21   -1    0    0  501  502  0.00000000000E+00  0.00000000000E+00  0.10881215491E+03  0.10881215491E+03  0.00000000000E+00 0.  1.
         21   -1    0    0  502  503 -0.00000000000E+00 -0.00000000000E+00 -0.44180713366E+03  0.44180713366E+03  0.00000000000E+00 0.  1.
         -6    2    1    2    0  503 -0.12503335350E+03 -0.52129937220E+02 -0.15842354699E+03  0.27018832822E+03  0.17190940236E+03 0.  0.
        -24    2    3    3    0    0 -0.25207124127E+02 -0.33778667037E+00 -0.11175033155E+02  0.84845624672E+02  0.80239550431E+02 0.  0.
          6    2    1    2  501    0  0.12503335350E+03  0.52129937220E+02 -0.17457143176E+03  0.28043096035E+03  0.17267156366E+03 0.  0.
         24    2    5    5    0    0  0.49165562899E+02 -0.25468140144E+02 -0.32828755848E+02  0.10185195981E+03  0.78931715859E+02 0.  0.
          5    1    5    5  501    0  0.75867790605E+02  0.77598077364E+02 -0.14174267591E+03  0.17857900055E+03  0.47000000000E+01 0. -1.
        -13    1    6    6    0    0  0.43418537242E+02  0.31797053228E+01  0.14794332409E+02  0.45979910543E+02  0.00000000000E+00 0.  1.
         14    1    6    6    0    0  0.57470256568E+01 -0.28647845467E+02 -0.47623088257E+02  0.55872049264E+02  0.00000000000E+00 0. -1.
         -5    1    3    3    0  503 -0.99826229376E+02 -0.51792150550E+02 -0.14724851384E+03  0.18534270355E+03  0.47000000000E+01 0.  1.
         11    1    4    4    0    0 -0.49112201669E+02  0.63059566487E+01 -0.26016691584E+02  0.55934262157E+02  0.00000000000E+00 0. -1.
        -12    1    4    4    0    0  0.23905077542E+02 -0.66437433191E+01  0.14841658429E+02  0.28911362516E+02  0.00000000000E+00 0.  1.
</event>
<event>
12    1  0.1032880E+000  0.2278156E+03  0.7818608E-02  0.1128259E+00
         21   -1    0    0  503  502  0.00000000000E+00  0.00000000000E+00  0.31862735910E+02  0.31862735910E+02  0.00000000000E+00 0. -1.
         21   -1    0    0  501  503 -0.00000000000E+00 -0.00000000000E+00 -0.16399082983E+04  0.16399082983E+04  0.00000000000E+00 0. -1.
          6    2    1    2  501    0  0.39578643619E+02 -0.14496252024E+03 -0.88175319617E+03  0.91070777228E+03  0.17122892933E+03 0.  0.
         24    2    3    3    0    0  0.46288098237E+02 -0.62892540032E+02 -0.24124592707E+03  0.26491202269E+03  0.76685870963E+02 0.  0.
         -6    2    1    2    0  502 -0.39578643619E+02  0.14496252024E+03 -0.72629236621E+03  0.76106326192E+03  0.17069295860E+03 0.  0.
        -24    2    5    5    0    0 -0.92429800575E+02  0.99215825396E+02 -0.52277800539E+03  0.54582806511E+03  0.79021425612E+02 0.  0.
          5    1    3    3  501    0 -0.67094546177E+01 -0.82069980208E+02 -0.64050726909E+03  0.64579574959E+03  0.47000000000E+01 0. -1.
        -11    1    4    4    0    0  0.34878865186E+02 -0.74363632495E+02 -0.13947730443E+03  0.16186538705E+03  0.00000000000E+00 0.  1.
         12    1    4    4    0    0  0.11409233051E+02  0.11471092463E+02 -0.10176862265E+03  0.10304663564E+03  0.00000000000E+00 0. -1.
         -5    1    5    5    0  502  0.52851156956E+02  0.45746694844E+02 -0.20351436083E+03  0.21523519681E+03  0.47000000000E+01 0.  1.
         13    1    6    6    0    0 -0.12454505821E+01  0.46261692722E+02 -0.23077689424E+03  0.23537134549E+03  0.00000000000E+00 0. -1.
        -14    1    6    6    0    0 -0.91184349993E+02  0.52954132674E+02 -0.29200111114E+03  0.31045671962E+03  0.00000000000E+00 0.  1.
</event>
<event>
12    1  0.1032880E+000  0.1948023E+03  0.7818608E-02  0.1154331E+00
         21   -1    0    0  501  502  0.00000000000E+00  0.00000000000E+00  0.16287021950E+03  0.16287021950E+03  0.00000000000E+00 0. -1.
         21   -1    0    0  502  503 -0.00000000000E+00 -0.00000000000E+00 -0.34454369329E+03  0.34454369329E+03  0.00000000000E+00 0. -1.
         -6    2    1    2    0  503 -0.75880911190E+02 -0.51878086145E+02 -0.23556443970E+03  0.30529471594E+03  0.17107018975E+03 0.  0.
        -24    2    3    3    0    0 -0.76826642174E+02  0.20359145458E+02 -0.95341414113E+02  0.14748565745E+03  0.79656802320E+02 0.  0.
          6    2    1    2  501    0  0.75880911190E+02  0.51878086145E+02  0.53890965907E+02  0.20211919685E+03  0.17175181229E+03 0.  0.
         24    2    5    5    0    0  0.24355574160E+00 -0.85338845419E+01 -0.11717122943E+02  0.85084470961E+02  0.83840263143E+02 0.  0.
          5    1    5    5  501    0  0.75637355448E+02  0.60411970687E+02  0.65608088850E+02  0.11703472589E+03  0.47000000000E+01 0. -1.
        -13    1    6    6    0    0  0.16519835968E+02  0.18187717086E+02 -0.37302236253E+02  0.44667156420E+02  0.00000000000E+00 0.  1.
         14    1    6    6    0    0 -0.16276280227E+02 -0.26721601628E+02  0.25585113310E+02  0.40417314540E+02  0.00000000000E+00 0. -1.
         -5    1    3    3    0  503  0.94573098416E+00 -0.72237231603E+02 -0.14022302559E+03  0.15780905849E+03  0.47000000000E+01 0.  1.
         11    1    4    4    0    0 -0.41800917147E+01  0.27138081627E+02 -0.35970591284E-01  0.27458148791E+02  0.00000000000E+00 0. -1.
        -12    1    4    4    0    0 -0.72646550459E+02 -0.67789361685E+01 -0.95305443522E+02  0.12002750866E+03  0.00000000000E+00 0.  1.
</event>
<event>
12    1  0.1060310E+000  0.1839373E+03  0.7818608E-02  0.1164305E+00
         21   -1    0    0  501  502  0.00000000000E+00  0.00000000000E+00  0.28660473606E+03  0.28660473606E+03  0.00000000000E+00 0.  1.
         21   -1    0    0  502  503 -0.00000000000E+00 -0.00000000000E+00 -0.37444430630E+03  0.37444430630E+03  0.00000000000E+00 0.  1.
         -6    2    1    2    0  503 -0.35657501611E+02  0.53145329456E+02  0.22991927201E+03  0.29444150616E+03  0.17244432563E+03 0.  0.
        -24    2    3    3    0    0 -0.45216544707E+02  0.19642075528E+02  0.23899221952E+03  0.25813376999E+03  0.84174908213E+02 0.  0.
          6    2    1    2  501    0  0.35657501611E+02 -0.53145329456E+02 -0.31775884225E+03  0.36660753621E+03  0.17127323292E+03 0.  0.
         24    2    5    5    0    0  0.33907412473E+02  0.27970028780E+02 -0.10498452456E+03  0.13884062812E+03  0.79516881785E+02 0.  0.
          5    1    5    5  501    0  0.17500891373E+01 -0.81115358236E+02 -0.21277431769E+03  0.22776690809E+03  0.47000000000E+01 0. -1.
        -11    1    6    6    0    0  0.47995919521E+01  0.24828998211E+02 -0.10656178810E+03  0.10952136740E+03  0.00000000000E+00 0.  1.
         12    1    6    6    0    0  0.29107820521E+02  0.31410305689E+01  0.15772635414E+01  0.29319260714E+02  0.00000000000E+00 0. -1.
         -5    1    3    3    0  503  0.95590430960E+01  0.33503253929E+02 -0.90729475116E+01  0.36307736163E+02  0.47000000000E+01 0.  1.
         11    1    4    4    0    0 -0.49047160460E+01  0.24249195486E+02  0.11914627736E+02  0.27459753737E+02  0.00000000000E+00 0. -1.
        -12    1    4    4    0    0 -0.40311828661E+02 -0.46071199585E+01  0.22707759179E+03  0.23067401626E+03  0.00000000000E+00 0.  1.
</event>
<event>
12    1  0.1032880E+000  0.2324922E+03  0.7818608E-02  0.1125030E+00
         21   -1    0    0  501  502  0.00000000000E+00  0.00000000000E+00  0.16909799352E+04  0.16909799352E+04  0.00000000000E+00 0. -1.
         21   -1    0    0  502  503 -0.00000000000E+00 -0.00000000000E+00 -0.38060142383E+02  0.38060142383E+02  0.00000000000E+00 0. -1.
         -6    2    1    2    0  503 -0.12199649417E+03 -0.97595352203E+02  0.47642701011E+03  0.52979536435E+03  0.17115032796E+03 0.  0.
        -24    2    3    3    0    0 -0.46979865569E+02 -0.53764369507E+02  0.11091940339E+03  0.15407399128E+03  0.79611340541E+02 0.  0.
          6    2    1    2  501    0  0.12199649417E+03  0.97595352203E+02  0.11764927827E+04  0.11992447132E+04  0.17217612232E+03 0.  0.
         24    2    5    5    0    0  0.13428856854E+03  0.30457604667E+02  0.69224792330E+03  0.71019078360E+03  0.78757072472E+02 0.  0.
          5    1    5    5  501    0 -0.12292074368E+02  0.67137747535E+02  0.48424485939E+03  0.48905392962E+03  0.47000000000E+01 0. -1.
        -11    1    6    6    0    0  0.11397401896E+03  0.54174742622E+02  0.58680238617E+03  0.60021831041E+03  0.00000000000E+00 0.  1.
         12    1    6    6    0    0  0.20314549580E+02 -0.23717137955E+02  0.10544553714E+03  0.10997247319E+03  0.00000000000E+00 0. -1.
         -5    1    3    3    0  503 -0.75016628605E+02 -0.43830982695E+02  0.36550760672E+03  0.37572137307E+03  0.47000000000E+01 0.  1.
         13    1    4    4    0    0 -0.66510805055E+02 -0.52840203510E+02  0.75655242384E+02  0.11375187909E+03  0.00000000000E+00 0. -1.
        -14    1    4    4    0    0  0.19530939486E+02 -0.92416599705E+00  0.35264161007E+02  0.40322112190E+02  0.00000000000E+00 0.  1.
</event>
<event>
12    1  0.1032880E+000  0.2998595E+03  0.7818608E-02  0.1085475E+00
         21   -1    0    0  503  502  0.00000000000E+00  0.00000000000E+00  0.11076409971E+03  0.11076409971E+03  0.00000000000E+00 0. -1.
         21   -1    0    0  501  503 -0.00000000000E+00 -0.00000000000E+00 -0.12645446395E+04  0.12645446395E+04  0.00000000000E+00 0. -1.
          6    2    1    2  501    0 -0.22800678621E+03 -0.86861919691E+02 -0.99077454889E+03  0.10351569606E+04  0.17430903228E+03 0.  0.
         24    2    3    3    0    0 -0.17456514437E+03 -0.11635130988E+03 -0.63888484796E+03  0.67798181473E+03  0.86457360670E+02 0.  0.
         -6    2    1    2    0  502  0.22800678621E+03  0.86861919691E+02 -0.16300599089E+03  0.34015177859E+03  0.17204706263E+03 0.  0.
        -24    2    5    5    0    0  0.12699553386E+03  0.26920932034E+02 -0.16261017044E+03  0.22259991014E+03  0.79095197454E+02 0.  0.
          5    1    3    3  501    0 -0.53441641841E+02  0.29489390193E+02 -0.35188970093E+03  0.35717514589E+03  0.47000000000E+01 0. -1.
        -11    1    4    4    0    0 -0.88417222956E+02 -0.97922459108E+02 -0.29804049487E+03  0.32593642002E+03  0.00000000000E+00 0.  1.
         12    1    4    4    0    0 -0.86147921414E+02 -0.18428850776E+02 -0.34084435309E+03  0.35204539471E+03  0.00000000000E+00 0. -1.
         -5    1    5    5    0  502  0.10101125235E+03  0.59940987657E+02 -0.39582045087E+00  0.11755186845E+03  0.47000000000E+01 0.  1.
         11    1    6    6    0    0  0.21915129442E+02  0.40481363264E+02 -0.47205288480E+02  0.65934459356E+02  0.00000000000E+00 0. -1.
        -12    1    6    6    0    0  0.10508040442E+03 -0.13560431230E+02 -0.11540488196E+03  0.15666545078E+03  0.00000000000E+00 0.  1.
</event>
<event>
12    1  0.1032880E+000  0.2286342E+03  0.7818608E-02  0.1127622E+00
         21   -1    0    0  503  502  0.00000000000E+00  0.00000000000E+00  0.10624398153E+04  0.10624398153E+04  0.00000000000E+00 0.  1.
         21   -1    0    0  501  503 -0.00000000000E+00 -0.00000000000E+00 -0.57872140559E+02  0.57872140559E+02  0.00000000000E+00 0.  1.
          6    2    1    2  501    0 -0.12032160583E+03  0.89416357624E+02  0.71927184669E+03  0.75470657316E+03  0.17250347325E+03 0.  0.
         24    2    3    3    0    0 -0.18801376231E+02  0.37251887746E+02  0.50247705786E+03  0.50965645706E+03  0.74332467048E+02 0.  0.
         -6    2    1    2    0  502  0.12032160583E+03 -0.89416357624E+02  0.28529582809E+03  0.36560538274E+03  0.17262969768E+03 0.  0.
        -24    2    5    5    0    0  0.10416977408E+03 -0.11155927430E+03  0.15356432845E+03  0.23097080908E+03  0.80428217444E+02 0.  0.
          5    1    3    3  501    0 -0.10152022960E+03  0.52164469878E+02  0.21679478883E+03  0.24505011610E+03  0.47000000000E+01 0. -1.
        -11    1    4    4    0    0  0.26221243961E+02  0.21086951577E+02  0.28505876830E+03  0.28703782772E+03  0.00000000000E+00 0.  1.
         12    1    4    4    0    0 -0.45022620192E+02  0.16164936169E+02  0.21741828956E+03  0.22261862933E+03  0.00000000000E+00 0. -1.
         -5    1    5    5    0  502  0.16151831747E+02  0.22142916671E+02  0.13173149963E+03  0.13463457365E+03  0.47000000000E+01 0.  1.
         13    1    6    6    0    0  0.82636832218E+02 -0.39871906549E+02  0.11390019266E+03  0.14625959408E+03  0.00000000000E+00 0. -1.
        -14    1    6    6    0    0  0.21532941865E+02 -0.71687367746E+02  0.39664135789E+02  0.84711215005E+02  0.00000000000E+00 0.  1.
</event>
<event>
12    1  0.1032880E+000  0.2713575E+03  0.7818608E-02  0.1100552E+00
         21   -1    0    0  501  502  0.00000000000E+00  0.00000000000E+00  0.92460540975E+03  0.92460540975E+03  0.00000000000E+00 0.  1.
         21   -1    0    0  502  503 -0.00000000000E+00 -0.00000000000E+00 -0.83161363157E+02  0.83161363157E+02  0.00000000000E+00 0.  1.
         -6    2    1    2    0  503  0.17682304347E+03 -0.11357396588E+03  0.52608174217E+03  0.59194329907E+03  0.17166664046E+03 0.  0.
        -24    2    3    3    0    0  0.12338702033E+03 -0.13549345692E+03  0.32175109499E+03  0.37955456106E+03  0.83397026586E+02 0.  0.
          6    2    1    2  501    0 -0.17682304347E+03  0.11357396588E+03  0.31536230442E+03  0.41582347383E+03  0.17114421963E+03 0.  0.
         24    2    5    5    0    0 -0.13417665285E+03  0.10965594237E+03  0.32010130612E+03  0.37248049656E+03  0.79051086473E+02 0.  0.
          5    1    5    5  501    0 -0.42646390624E+02  0.39180235067E+01 -0.47390016990E+01  0.43342977269E+02  0.47000000000E+01 0. -1.
        -11    1    6    6    0    0 -0.10601514283E+02  0.34279160905E+02  0.12175946685E+03  0.12693628616E+03  0.00000000000E+00 0.  1.
         12    1    6    6    0    0 -0.12357513856E+03  0.75376781468E+02  0.19834183927E+03  0.24554421040E+03  0.00000000000E+00 0. -1.
         -5    1    3    3    0  503  0.53436023143E+02  0.21919491040E+02  0.20433064718E+03  0.21238873801E+03  0.47000000000E+01 0.  1.
         11    1    4    4    0    0  0.12708245317E+03 -0.94533684073E+02  0.27445378255E+03  0.31687765160E+03  0.00000000000E+00 0. -1.
        -12    1    4    4    0    0 -0.36954328452E+01 -0.40959772846E+02  0.47297312438E+02  0.62676909459E+02  0.00000000000E+00 0.  1.
</event>
<event>
12    1  0.1032880E+000  0.1966968E+03  0.7818608E-02  0.1152840E+00
         21   -1    0    0  503  502  0.00000000000E+00  0.00000000000E+00  0.72827431134E+03  0.72827431134E+03  0.00000000000E+00 0.  1.
         21   -1    0    0  501  503 -0.00000000000E+00 -0.00000000000E+00 -0.54002113258E+02  0.54002113258E+02  0.00000000000E+00 0.  1.
          6    2    1    2  501    0 -0.26679174905E+02  0.91007689757E+02  0.39730261731E+03  0.44332720025E+03  0.17232370352E+03 0.  0.
         24    2    3    3    0    0 -0.42684763288E+02 -0.99971353518E+01  0.22534158591E+03  0.24320014093E+03  0.80284160793E+02 0.  0.
         -6    2    1    2    0  502  0.26679174905E+02 -0.91007689757E+02  0.27696958077E+03  0.33894922434E+03  0.17082227618E+03 0.  0.
        -24    2    5    5    0    0 -0.52251432489E+02 -0.56097214327E+02  0.15291151073E+03  0.18774976396E+03  0.77401124668E+02 0.  0.
          5    1    3    3  501    0  0.16005588383E+02  0.10100482511E+03  0.17196103140E+03  0.20012705933E+03  0.47000000000E+01 0. -1.
        -11    1    4    4    0    0  0.23956630859E+02  0.37448923007E+00  0.63357444576E+02  0.67736446523E+02  0.00000000000E+00 0.  1.
         12    1    4    4    0    0 -0.66641394147E+02 -0.10371624582E+02  0.16198414134E+03  0.17546369441E+03  0.00000000000E+00 0. -1.
         -5    1    5    5    0  502  0.78930607394E+02 -0.34910475430E+02  0.12405807003E+03  0.15119946038E+03  0.47000000000E+01 0.  1.
         13    1    6    6    0    0 -0.61560705445E+02 -0.22043564098E+02  0.13041114815E+03  0.14588593741E+03  0.00000000000E+00 0. -1.
        -14    1    6    6    0    0  0.93092729560E+01 -0.34053650229E+02  0.22500362586E+02  0.41863826550E+02  0.00000000000E+00 0.  1.
</event>
<event>
12    1  0.1032880E+000  0.2814479E+03  0.7818608E-02  0.1095524E+00
         21   -1    0    0  501  502  0.00000000000E+00  0.00000000000E+00  0.37281325202E+03  0.37281325202E+03  0.00000000000E+00 0. -1.
         21   -1    0    0  502  503 -0.00000000000E+00 -0.00000000000E+00 -0.21575524794E+03  0.21575524794E+03  0.00000000000E+00 0. -1.
         -6    2    1    2    0  503  0.22262030163E+03 -0.64374875116E+01  0.26031223474E+02  0.27811569038E+03  0.16452803012E+03 0.  0.
        -24    2    3    3    0    0  0.44702244662E+02 -0.14885500029E+02 -0.21832775866E+02  0.93618383233E+02  0.77896487649E+02 0.  0.
          6    2    1    2  501    0 -0.22262030163E+03  0.64374875116E+01  0.13102678060E+03  0.31045280959E+03  0.17208047480E+03 0.  0.
         24    2    5    5    0    0 -0.19260509366E+03 -0.37687634559E+02  0.58855507300E+02  0.22057109956E+03  0.81673492166E+02 0.  0.
          5    1    5    5  501    0 -0.30015207973E+02  0.44125122070E+02  0.72171273304E+02  0.89881710028E+02  0.47000000000E+01 0. -1.
        -13    1    6    6    0    0 -0.99918018848E+02  0.13281437674E+02  0.54768613644E+02  0.11471533515E+03  0.00000000000E+00 0.  1.
         14    1    6    6    0    0 -0.92687074808E+02 -0.50969072233E+02  0.40868936555E+01  0.10585576442E+03  0.00000000000E+00 0. -1.
         -5    1    3    3    0  503  0.17791805697E+03  0.84480125170E+01  0.47863999341E+02  0.18449730714E+03  0.47000000000E+01 0.  1.
         13    1    4    4    0    0 -0.86772255992E+01  0.23294677079E+02 -0.14626669334E+01  0.24901317613E+02  0.00000000000E+00 0. -1.
        -14    1    4    4    0    0  0.53379470262E+02 -0.38180177108E+02 -0.20370108933E+02  0.68717065619E+02  0.00000000000E+00 0.  1.
</event>
<event>
12    1  0.1032880E+000  0.2376345E+03  0.7818608E-02  0.1121574E+00
         21   -1    0    0  503  502  0.00000000000E+00  0.00000000000E+00  0.17411613823E+04  0.17411613823E+04  0.00000000000E+00 0. -1.
         21   -1    0    0  501  503 -0.00000000000E+00 -0.00000000000E+00 -0.33876620502E+02  0.33876620502E+02  0.00000000000E+00 0. -1.
          6    2    1    2  501    0 -0.16150423324E+03  0.21795521103E+02  0.10446332823E+04  0.10710656170E+04  0.17135985332E+03 0.  0.
         24    2    3    3    0    0 -0.11961453423E+03 -0.17211511331E+02  0.94826805695E+03  0.95888432570E+03  0.75119699871E+02 0.  0.
         -6    2    1    2    0  502  0.16150423324E+03 -0.21795521103E+02  0.66265147947E+03  0.70397238578E+03  0.17294934114E+03 0.  0.
        -24    2    5    5    0    0  0.10817366936E+03 -0.30494532719E+02  0.62014581554E+03  0.63506198517E+03  0.78047634187E+02 0.  0.
          5    1    3    3  501    0 -0.41889699007E+02  0.39007032434E+02  0.96365225375E+02  0.11218129133E+03  0.47000000000E+01 0. -1.
        -11    1    4    4    0    0 -0.28729697178E+02  0.26553620017E+02  0.19439897042E+03  0.19829636894E+03  0.00000000000E+00 0.  1.
         12    1    4    4    0    0 -0.90884837054E+02 -0.43765131348E+02  0.75386908654E+03  0.76058795676E+03  0.00000000000E+00 0. -1.
         -5    1    5    5    0  502  0.53330563876E+02  0.86990116157E+01  0.42505663930E+02  0.68910400612E+02  0.47000000000E+01 0.  1.
         11    1    6    6    0    0  0.11565063034E+02 -0.28335048514E+02  0.68630504950E+02  0.75145005602E+02  0.00000000000E+00 0. -1.
        -12    1    6    6    0    0  0.96608606329E+02 -0.21594842051E+01  0.55151531059E+03  0.55991697957E+03  0.00000000000E+00 0.  1.
</event>
<event>
12    1  0.1032880E+000  0.2225221E+03  0.7818608E-02  0.1134182E+00
         21   -1    0    0  501  502  0.00000000000E+00  0.00000000000E+00  0.13075578576E+04  0.13075578576E+04  0.00000000000E+00 0.  1.
         21   -1    0    0  502  503 -0.00000000000E+00 -0.00000000000E+00 -0.37756211742E+02  0.37756211742E+02  0.00000000000E+00 0.  1.
         -6    2    1    2    0  503  0.76125980194E+02 -0.11730871382E+03  0.76626491294E+03  0.79480039195E+03  0.15807987554E+03 0.  0.
        -24    2    3    3    0    0  0.24226872352E+02 -0.13036518806E+03  0.60525664147E+03  0.62506606309E+03  0.82401198901E+02 0.  0.
          6    2    1    2  501    0 -0.76125980194E+02  0.11730871382E+03  0.50353673294E+03  0.55051367740E+03  0.17308832541E+03 0.  0.
         24    2    5    5    0    0 -0.78848437339E+01 -0.38843907892E+01  0.15571714839E+03  0.17588696358E+03  0.81308882692E+02 0.  0.
          5    1    5    5  501    0 -0.68241136460E+02  0.12119310461E+03  0.34781958455E+03  0.37462671382E+03  0.47000000000E+01 0. -1.
        -13    1    6    6    0    0 -0.27772602307E+02 -0.35004267612E+02  0.79628994926E+02  0.91309326045E+02  0.00000000000E+00 0.  1.
         14    1    6    6    0    0  0.19887758573E+02  0.31119876823E+02  0.76088153460E+02  0.84577637537E+02  0.00000000000E+00 0. -1.
         -5    1    3    3    0  503  0.51899107842E+02  0.13056474236E+02  0.16100827146E+03  0.16973432886E+03  0.47000000000E+01 0.  1.
         11    1    4    4    0    0  0.50814956649E+02 -0.77794121250E+02  0.43770462994E+03  0.44745885642E+03  0.00000000000E+00 0. -1.
        -12    1    4    4    0    0 -0.26588084297E+02 -0.52571066809E+02  0.16755201153E+03  0.17760720667E+03  0.00000000000E+00 0.  1.
</event>
<event>
12    1  0.1032880E+000  0.1917291E+03  0.7818608E-02  0.1157200E+00
         21   -1    0    0  503  502  0.00000000000E+00  0.00000000000E+00  0.51514162612E+03  0.51514162612E+03  0.00000000000E+00 0. -1.
         21   -1    0    0  501  503 -0.00000000000E+00 -0.00000000000E+00 -0.88827252857E+02  0.88827252857E+02  0.00000000000E+00 0. -1.
          6    2    1    2  501    0  0.16503157089E+02 -0.81635760623E+02  0.76836232030E+02  0.20535248538E+03  0.17125736507E+03 0.  0.
         24    2    3    3    0    0 -0.20390357724E+02 -0.48483240728E+02  0.10792800013E+03  0.14662422085E+03  0.84165418122E+02 0.  0.
         -6    2    1    2    0  502 -0.16503157089E+02  0.81635760623E+02  0.34947814124E+03  0.39861639361E+03  0.17269425712E+03 0.  0.
        -24    2    5    5    0    0  0.11532675538E+01  0.28766082708E+02  0.32817834190E+03  0.33876053653E+03  0.78923123869E+02 0.  0.
          5    1    3    3  501    0  0.36893514814E+02 -0.33152519895E+02 -0.31091768101E+02  0.58728264527E+02  0.47000000000E+01 0. -1.
        -11    1    4    4    0    0 -0.48830690095E+02 -0.18632831298E+02  0.35170291217E+02  0.62996571983E+02  0.00000000000E+00 0.  1.
         12    1    4    4    0    0  0.28440332370E+02 -0.29850409430E+02  0.72757708914E+02  0.83627648866E+02  0.00000000000E+00 0. -1.
         -5    1    5    5    0  502 -0.17656424643E+02  0.52869677915E+02  0.21299799340E+02  0.59855857073E+02  0.47000000000E+01 0.  1.
         11    1    6    6    0    0  0.29169113597E+02  0.38078778645E+01  0.49602517139E+02  0.57669288433E+02  0.00000000000E+00 0. -1.
        -12    1    6    6    0    0 -0.28015846043E+02  0.24958204843E+02  0.27857582476E+03  0.28109124810E+03  0.00000000000E+00 0.  1.
</event>
<event>
12    1  0.1032880E+000  0.3830643E+03  0.7818608E-02  0.1049924E+00
         21   -1    0    0  503  502  0.00000000000E+00  0.00000000000E+00  0.71015212097E+03  0.71015212097E+03  0.00000000000E+00 0.  1.
         21   -1    0    0  501  503 -0.00000000000E+00 -0.00000000000E+00 -0.39518563141E+03  0.39518563141E+03  0.00000000000E+00 0.  1.
          6    2    1    2  501    0 -0.14964566367E+03  0.30585364140E+03  0.54006866038E+03  0.66212718733E+03  0.17549353170E+03 0.  0.
         24    2    3    3    0    0 -0.45193530215E+02  0.22509861930E+03  0.40983684681E+03  0.47661697995E+03  0.80533601599E+02 0.  0.
         -6    2    1    2    0  502  0.14964566367E+03 -0.30585364140E+03 -0.22510217082E+03  0.44321056504E+03  0.17269725834E+03 0.  0.
        -24    2    5    5    0    0  0.16503493256E+03 -0.29656134479E+03 -0.23682780802E+03  0.42123883455E+03  0.78546705158E+02 0.  0.
          5    1    3    3  501    0 -0.10445213346E+03  0.80755022106E+02  0.13023181356E+03  0.18551020738E+03  0.47000000000E+01 0. -1.
        -13    1    4    4    0    0 -0.49081206270E+02  0.23081430282E+03  0.39280349353E+03  0.45823442879E+03  0.00000000000E+00 0.  1.
         14    1    4    4    0    0  0.38876760556E+01 -0.57156835204E+01  0.17033353283E+02  0.18382551163E+02  0.00000000000E+00 0. -1.
         -5    1    5    5    0  502 -0.15389268885E+02 -0.92922966101E+01  0.11725637197E+02  0.21971730491E+02  0.47000000000E+01 0.  1.
         13    1    6    6    0    0  0.50739220896E+02 -0.94264785066E+02 -0.32643622806E+02  0.11191927605E+03  0.00000000000E+00 0. -1.
        -14    1    6    6    0    0  0.11429571166E+03 -0.20229655973E+03 -0.20418418521E+03  0.30931955850E+03  0.00000000000E+00 0.  1.
</event>
<event>
12    1  0.1032880E+000  0.2018741E+03  0.7818608E-02  0.1148311E+00
         21   -1    0    0  503  502  0.00000000000E+00  0.00000000000E+00  0.31020502212E+02  0.31020502212E+02  0.00000000000E+00 0. -1.
         21   -1    0    0  501  503 -0.00000000000E+00 -0.00000000000E+00 -0.14748069943E+04  0.14748069943E+04  0.00000000000E+00 0. -1.
          6    2    1    2  501    0  0.83003496624E+02  0.64460809077E+02 -0.97522784121E+03  0.99590285961E+03  0.17236121129E+03 0.  0.
         24    2    3    3    0    0  0.91450191085E+02  0.10374416551E+03 -0.71521268379E+03  0.73275936107E+03  0.79253446927E+02 0.  0.
         -6    2    1    2    0  502 -0.83003496624E+02 -0.64460809077E+02 -0.46855865089E+03  0.50992463691E+03  0.17155509216E+03 0.  0.
        -24    2    5    5    0    0 -0.36774968207E+02 -0.92786360500E+02 -0.41237235897E+03  0.43170441508E+03  0.79724730020E+02 0.  0.
          5    1    3    3  501    0 -0.84466944615E+01 -0.39283356433E+02 -0.26001515741E+03  0.26314349854E+03  0.47000000000E+01 0. -1.
        -13    1    4    4    0    0  0.10133682470E+03  0.69997216276E+02 -0.51837881101E+03  0.53280892826E+03  0.00000000000E+00 0.  1.
         14    1    4    4    0    0 -0.98866336166E+01  0.33746949234E+02 -0.19683387279E+03  0.19995043281E+03  0.00000000000E+00 0. -1.
         -5    1    5    5    0  502 -0.46228528417E+02  0.28325551423E+02 -0.56186291917E+02  0.78220221825E+02  0.47000000000E+01 0.  1.
         13    1    6    6    0    0  0.51482823551E+01 -0.55745315220E+02 -0.10220912185E+03  0.11653647313E+03  0.00000000000E+00 0. -1.
        -14    1    6    6    0    0 -0.41923250562E+02 -0.37041045280E+02 -0.31016323712E+03  0.31516794195E+03  0.00000000000E+00 0.  1.
</event>
<event>
12    1  0.1032880E+000  0.1944267E+03  0.7818608E-02  0.1154953E+00
         21   -1    0    0  501  502  0.00000000000E+00  0.00000000000E+00  0.46698010263E+03  0.46698010263E+03  0.00000000000E+00 0.  1.
         21   -1    0    0  502  503 -0.00000000000E+00 -0.00000000000E+00 -0.85189531854E+02  0.85189531854E+02  0.00000000000E+00 0. -1.
         -6    2    1    2    0  503 -0.27907438960E+01 -0.89509849822E+02  0.25895827188E+03  0.32382268824E+03  0.17257446327E+03 0.  0.
        -24    2    3    3    0    0 -0.42489209579E+01 -0.28091596985E+02  0.33246646663E+02  0.89852271686E+02  0.78491401199E+02 0.  0.
          6    2    1    2  501    0  0.27907438960E+01  0.89509849822E+02  0.12283229889E+03  0.22834694625E+03  0.17039587067E+03 0.  0.
         24    2    5    5    0    0 -0.11166909441E+02 -0.45342965464E+00  0.92323495379E+01  0.82692402086E+02  0.81411864122E+02 0.  0.
          5    1    5    5  501    0  0.13957653337E+02  0.89963279477E+02  0.11359994936E+03  0.14565454416E+03  0.47000000000E+01 0. -1.
        -13    1    6    6    0    0 -0.23842471941E+02 -0.14195542494E+02  0.38805286970E+02  0.47705630609E+02  0.00000000000E+00 0.  1.
         14    1    6    6    0    0  0.12675562500E+02  0.13742112840E+02 -0.29572937432E+02  0.34986771477E+02  0.00000000000E+00 0. -1.
         -5    1    3    3    0  503  0.14581770619E+01 -0.61418252837E+02  0.22571162522E+03  0.23397041655E+03  0.47000000000E+01 0.  1.
         13    1    4    4    0    0 -0.27788169614E+02 -0.32790386018E+02  0.45762036854E+02  0.62781811082E+02  0.00000000000E+00 0. -1.
        -14    1    4    4    0    0  0.23539248656E+02  0.46987890330E+01 -0.12515390191E+02  0.27070460604E+02  0.00000000000E+00 0.  1.
</event>
<event>
12    1  0.1032880E+000  0.5858690E+03  0.7818608E-02  0.9937811E-01
         21   -1    0    0  501  502  0.00000000000E+00  0.00000000000E+00  0.92313162690E+03  0.92313162690E+03  0.00000000000E+00 0.  1.
         21   -1    0    0  502  503 -0.00000000000E+00 -0.00000000000E+00 -0.37237746298E+03  0.37237746298E+03  0.00000000000E+00 0.  1.
         -6    2    1    2    0  503 -0.34776556160E+03  0.43358052302E+03  0.34088199923E+03  0.67782230527E+03  0.18522846526E+03 0.  0.
        -24    2    3    3    0    0 -0.25453794973E+03  0.19832381064E+03  0.20314855594E+03  0.38967355942E+03  0.80338318432E+02 0.  0.
          6    2    1    2  501    0  0.34776556160E+03 -0.43358052302E+03  0.20987216469E+03  0.61768678461E+03  0.16899018492E+03 0.  0.
         24    2    5    5    0    0  0.23971741198E+03 -0.38809813566E+03  0.15730540002E+03  0.48912394028E+03  0.80078958325E+02 0.  0.
          5    1    5    5  501    0  0.10804814962E+03 -0.45482387355E+02  0.52566764667E+02  0.12856284434E+03  0.47000000000E+01 0. -1.
        -13    1    6    6    0    0  0.81239561771E+02 -0.20172642065E+03  0.57805962741E+02  0.22502209783E+03  0.00000000000E+00 0.  1.
         14    1    6    6    0    0  0.15847785021E+03 -0.18637171501E+03  0.99499437280E+02  0.26410184244E+03  0.00000000000E+00 0. -1.
         -5    1    3    3    0  503 -0.93227611871E+02  0.23525671238E+03  0.13773344329E+03  0.28814874585E+03  0.47000000000E+01 0.  1.
         11    1    4    4    0    0 -0.25504600316E+03  0.19248858912E+03  0.18199941427E+03  0.36772830658E+03  0.00000000000E+00 0. -1.
        -12    1    4    4    0    0  0.50805342823E+00  0.58352215202E+01  0.21149141672E+02  0.21945252834E+02  0.00000000000E+00 0.  1.
</event>
<event>
12    1  0.1032880E+000  0.4092959E+03  0.7818608E-02  0.1040624E+00
         21   -1    0    0  503  502  0.00000000000E+00  0.00000000000E+00  0.10996208966E+03  0.10996208966E+03  0.00000000000E+00 0. -1.
         21   -1    0    0  501  503 -0.00000000000E+00 -0.00000000000E+00 -0.16386104720E+04  0.16386104720E+04  0.00000000000E+00 0. -1.
          6    2    1    2  501    0 -0.21697231885E+03 -0.30139608387E+03 -0.99700975035E+03  0.10777530405E+04  0.17206564877E+03 0.  0.
         24    2    3    3    0    0 -0.16043215170E+03 -0.15340269811E+03 -0.73061581595E+03  0.76777457187E+03  0.80046608911E+02 0.  0.
         -6    2    1    2    0  502  0.21697231885E+03  0.30139608387E+03 -0.53163863199E+03  0.67081952115E+03  0.17158848567E+03 0.  0.
        -24    2    5    5    0    0  0.59181457726E+02  0.19253936708E+03 -0.26878050509E+03  0.34545169004E+03  0.80746872523E+02 0.  0.
          5    1    3    3  501    0 -0.56540167144E+02 -0.14799338576E+03 -0.26639393440E+03  0.30997846863E+03  0.47000000000E+01 0. -1.
        -13    1    4    4    0    0 -0.75248525657E+02 -0.11874287515E+03 -0.50319866659E+03  0.52246637123E+03  0.00000000000E+00 0.  1.
         14    1    4    4    0    0 -0.85183626044E+02 -0.34659822963E+02 -0.22741714937E+03  0.24530820064E+03  0.00000000000E+00 0. -1.
         -5    1    5    5    0  502  0.15779086112E+03  0.10885671679E+03 -0.26285812690E+03  0.32536783111E+03  0.47000000000E+01 0.  1.
         13    1    6    6    0    0  0.20977830068E+02  0.91654451146E+02 -0.63213382108E+02  0.11329845298E+03  0.00000000000E+00 0. -1.
        -14    1    6    6    0    0  0.38203627658E+02  0.10088491594E+03 -0.20556712298E+03  0.23215323706E+03  0.00000000000E+00 0.  1.
</event>
<event>
12    1  0.1032880E+000  0.2196302E+03  0.7818608E-02  0.1134605E+00
         21   -1    0    0  503  502  0.00000000000E+00  0.00000000000E+00  0.31569754914E+03  0.31569754914E+03  0.00000000000E+00 0. -1.
         21   -1    0    0  501  503 -0.00000000000E+00 -0.00000000000E+00 -0.22668507527E+03  0.22668507527E+03  0.00000000000E+00 0. -1.
          6    2    1    2  501    0 -0.34799945472E+02 -0.13108220870E+03 -0.11220012879E+03  0.24451699330E+03  0.16972362674E+03 0.  0.
         24    2    3    3    0    0 -0.23572761944E+02 -0.14383737071E+03 -0.40849435350E+02  0.17102035894E+03  0.79589085217E+02 0.  0.
         -6    2    1    2    0  502  0.34799945472E+02  0.13108220870E+03  0.20121260266E+03  0.29786563111E+03  0.17275370064E+03 0.  0.
        -24    2    5    5    0    0 -0.27493397259E+02  0.12780396798E+03  0.16716360093E+03  0.22664321940E+03  0.79584786860E+02 0.  0.
          5    1    3    3  501    0 -0.11227183528E+02  0.12755162016E+02 -0.71350693438E+02  0.73496634359E+02  0.47000000000E+01 0. -1.
        -11    1    4    4    0    0  0.52766290286E+01 -0.11122884107E+03 -0.56356292625E+02  0.12480276286E+03  0.00000000000E+00 0.  1.
         12    1    4    4    0    0 -0.28849390973E+02 -0.32608529641E+02  0.15506857275E+02  0.46217596080E+02  0.00000000000E+00 0. -1.
         -5    1    5    5    0  502  0.62293342731E+02  0.32782407197E+01  0.34049001727E+02  0.71222411708E+02  0.47000000000E+01 0.  1.
         11    1    6    6    0    0 -0.20274611438E+02  0.13767014557E+02  0.77843507930E+02  0.81610062404E+02  0.00000000000E+00 0. -1.
        -12    1    6    6    0    0 -0.72187858214E+01  0.11403695342E+03  0.89320093003E+02  0.14503315700E+03  0.00000000000E+00 0.  1.
</event>
<event>
12    1  0.1032880E+000  0.1820705E+03  0.7818608E-02  0.1165937E+00
         21   -1    0    0  503  502  0.00000000000E+00  0.00000000000E+00  0.28697882038E+03  0.28697882038E+03  0.00000000000E+00 0.  1.
         21   -1    0    0  501  503 -0.00000000000E+00 -0.00000000000E+00 -0.12728805691E+03  0.12728805691E+03  0.00000000000E+00 0.  1.
          6    2    1    2  501    0 -0.46658076139E+02  0.37307023677E+02  0.14381906444E+03  0.23202064871E+03  0.17199089525E+03 0.  0.
         24    2    3    3    0    0 -0.88372081404E+02 -0.63826568554E+01  0.78863497935E+02  0.14319406463E+03  0.80216742376E+02 0.  0.
         -6    2    1    2    0  502  0.46658076139E+02 -0.37307023677E+02  0.15871699036E+02  0.18224622859E+03  0.17144383021E+03 0.  0.
        -24    2    5    5    0    0 -0.23848294852E+02 -0.18426682137E+02  0.46026905707E+02  0.10313212026E+03  0.87232301345E+02 0.  0.
          5    1    3    3  501    0  0.41714005265E+02  0.43689680533E+02  0.64955566502E+02  0.88826584083E+02  0.47000000000E+01 0. -1.
        -13    1    4    4    0    0 -0.29754294149E+02 -0.27834299512E+02 -0.22943390071E+01  0.40808457960E+02  0.00000000000E+00 0.  1.
         14    1    4    4    0    0 -0.58617787256E+02  0.21451642656E+02  0.81157836942E+02  0.10238560667E+03  0.00000000000E+00 0. -1.
         -5    1    5    5    0  502  0.70506370991E+02 -0.18880341541E+02 -0.30155206671E+02  0.79114108327E+02  0.47000000000E+01 0.  1.
         13    1    6    6    0    0 -0.68744068814E+01 -0.22710001461E+02 -0.22321852386E+02  0.32577089040E+02  0.00000000000E+00 0. -1.
        -14    1    6    6    0    0 -0.16973887971E+02  0.42833193247E+01  0.68348758094E+02  0.70555031218E+02  0.00000000000E+00 0.  1.
</event>
<event>
12    1  0.1032880E+000  0.1934292E+03  0.7818608E-02  0.1155821E+00
         21   -1    0    0  501  502  0.00000000000E+00  0.00000000000E+00  0.50591545577E+03  0.50591545577E+03  0.00000000000E+00 0. -1.
         21   -1    0    0  502  503 -0.00000000000E+00 -0.00000000000E+00 -0.99319608074E+02  0.99319608074E+02  0.00000000000E+00 0. -1.
         -6    2    1    2    0  503  0.84097920443E+02 -0.18109369556E+02  0.35764353579E+03  0.40570767937E+03  0.17114149970E+03 0.  0.
        -24    2    3    3    0    0  0.38458439487E+00  0.14225008033E+02  0.72648059799E+02  0.10688006027E+03  0.77091555511E+02 0.  0.
          6    2    1    2  501    0 -0.84097920443E+02  0.18109369556E+02  0.48952311912E+02  0.19952738448E+03  0.17324675704E+03 0.  0.
         24    2    5    5    0    0 -0.41998336020E+02  0.63094850098E+01 -0.40245035439E+02  0.10007956369E+03  0.81194743438E+02 0.  0.
          5    1    5    5  501    0 -0.42099584423E+02  0.11799884547E+02  0.89197347351E+02  0.99447820782E+02  0.47000000000E+01 0. -1.
        -13    1    6    6    0    0 -0.11355205481E+01  0.36474894703E+02 -0.20874439085E+01  0.36552219804E+02  0.00000000000E+00 0.  1.
         14    1    6    6    0    0 -0.40862815471E+02 -0.30165409693E+02 -0.38157591531E+02  0.63527343889E+02  0.00000000000E+00 0. -1.
         -5    1    3    3    0  503  0.83713336048E+02 -0.32334377590E+02  0.28499547599E+03  0.29882761910E+03  0.47000000000E+01 0.  1.
         11    1    4    4    0    0  0.74285454612E+00 -0.13129262102E+02  0.77918488523E+02  0.79020378447E+02  0.00000000000E+00 0. -1.
        -12    1    4    4    0    0 -0.35827015125E+00  0.27354270135E+02 -0.52704287237E+01  0.27859681819E+02  0.00000000000E+00 0.  1.
</event>
<event>
12    1  0.1032880E+000  0.3817145E+03  0.7818608E-02  0.1050640E+00
         21   -1    0    0  503  502  0.00000000000E+00  0.00000000000E+00  0.86700926063E+03  0.86700926063E+03  0.00000000000E+00 0.  1.
         21   -1    0    0  501  503 -0.00000000000E+00 -0.00000000000E+00 -0.32252466888E+03  0.32252466888E+03  0.00000000000E+00 0.  1.
          6    2    1    2  501    0  0.14197526620E+03 -0.30518547016E+03  0.68530761069E+03  0.78267147971E+03  0.17214231456E+03 0.  0.
         24    2    3    3    0    0  0.10628607783E+03 -0.10244878659E+03  0.24953247805E+03  0.30069851650E+03  0.79753720975E+02 0.  0.
         -6    2    1    2    0  502 -0.14197526620E+03  0.30518547016E+03 -0.14082301895E+03  0.40686244981E+03  0.18002995024E+03 0.  0.
        -24    2    5    5    0    0 -0.62981119686E+01  0.14876720854E+03 -0.30017352476E+02  0.17196896656E+03  0.80628378737E+02 0.  0.
          5    1    3    3  501    0  0.35689188370E+02 -0.20273668357E+03  0.43577513264E+03  0.48197296321E+03  0.47000000000E+01 0. -1.
        -13    1    4    4    0    0  0.27647851921E+02 -0.74132228387E+02  0.84819090065E+02  0.11599253873E+03  0.00000000000E+00 0.  1.
         14    1    4    4    0    0  0.78638225910E+02 -0.28316558203E+02  0.16471338799E+03  0.18470597777E+03  0.00000000000E+00 0. -1.
         -5    1    5    5    0  502 -0.13567715423E+03  0.15641826162E+03 -0.11080566647E+03  0.23489348325E+03  0.47000000000E+01 0.  1.
         13    1    6    6    0    0 -0.39624906453E+02  0.46598780204E+02 -0.18401794726E+02  0.63876486887E+02  0.00000000000E+00 0. -1.
        -14    1    6    6    0    0  0.33326794484E+02  0.10216842834E+03 -0.11615557750E+02  0.10809247967E+03  0.00000000000E+00 0.  1.
</event>
<event>
12    1  0.1032880E+000  0.1992862E+03  0.7818608E-02  0.1150408E+00
         21   -1    0    0  503  502  0.00000000000E+00  0.00000000000E+00  0.39375006470E+02  0.39375006470E+02  0.00000000000E+00 0. -1.
         21   -1    0    0  501  503 -0.00000000000E+00 -0.00000000000E+00 -0.12100282429E+04  0.12100282429E+04  0.00000000000E+00 0. -1.
          6    2    1    2  501    0 -0.29936971431E+02 -0.97140679271E+02 -0.84154014451E+03  0.86481488596E+03  0.17141306351E+03 0.  0.
         24    2    3    3    0    0  0.15029210525E+01  0.12417127727E+02 -0.46830906779E+03  0.47453946202E+03  0.75616626486E+02 0.  0.
         -6    2    1    2    0  502  0.29936971431E+02  0.97140679271E+02 -0.32911309190E+03  0.38458836338E+03  0.17105627191E+03 0.  0.
        -24    2    5    5    0    0 -0.15490540537E+02  0.22011598122E+02 -0.64786629531E+02  0.10602309924E+03  0.79492911056E+02 0.  0.
          5    1    3    3  501    0 -0.31439892484E+02 -0.10955780700E+03 -0.37323107671E+03  0.39027542395E+03  0.47000000000E+01 0. -1.
        -11    1    4    4    0    0 -0.18384580238E+02 -0.16758124827E+02 -0.63582550930E+02  0.68275678839E+02  0.00000000000E+00 0.  1.
         12    1    4    4    0    0  0.19887501291E+02  0.29175252554E+02 -0.40472651686E+03  0.40626378318E+03  0.00000000000E+00 0. -1.
         -5    1    5    5    0  502  0.45427511969E+02  0.75129081149E+02 -0.26432646237E+03  0.27856526414E+03  0.47000000000E+01 0.  1.
         11    1    6    6    0    0 -0.19844928024E+02 -0.25935246672E+02 -0.40723747664E+02  0.52200400497E+02  0.00000000000E+00 0. -1.
        -12    1    6    6    0    0  0.43543874870E+01  0.47946844794E+02 -0.24062881867E+02  0.53822698741E+02  0.00000000000E+00 0.  1.
</event>
<event>
12    1  0.1032880E+000  0.3643738E+03  0.7818608E-02  0.1057110E+00
         21   -1    0    0  501  502  0.00000000000E+00  0.00000000000E+00  0.51881035447E+03  0.51881035447E+03  0.00000000000E+00 0.  1.
         21   -1    0    0  502  503 -0.00000000000E+00 -0.00000000000E+00 -0.29389395134E+03  0.29389395134E+03  0.00000000000E+00 0.  1.
         -6    2    1    2    0  503  0.28485685525E+03 -0.14337417124E+03  0.26154271332E+03  0.44649433634E+03  0.17103514415E+03 0.  0.
        -24    2    3    3    0    0  0.17846223889E+03 -0.11164830518E+03  0.82556982366E+02  0.23581845530E+03  0.66937088091E+02 0.  0.
          6    2    1    2  501    0 -0.28485685525E+03  0.14337417124E+03 -0.36626310193E+02  0.36620996947E+03  0.17626308230E+03 0.  0.
         24    2    5    5    0    0 -0.13701766790E+03  0.92609591364E+02  0.45968840119E+02  0.18935546221E+03  0.79949853507E+02 0.  0.
          5    1    5    5  501    0 -0.14783918735E+03  0.50764579871E+02 -0.82595150312E+02  0.17685450726E+03  0.47000000000E+01 0. -1.
        -11    1    6    6    0    0 -0.52284953640E+02 -0.15974887864E+01 -0.54926730693E+01  0.52596937221E+02  0.00000000000E+00 0.  1.
         12    1    6    6    0    0 -0.84732714261E+02  0.94207080151E+02  0.51461513189E+02  0.13675852499E+03  0.00000000000E+00 0. -1.
         -5    1    3    3    0  503  0.10639461636E+03 -0.31725866052E+02  0.17898573096E+03  0.21067588104E+03  0.47000000000E+01 0.  1.
         11    1    4    4    0    0  0.14020725418E+03 -0.79139346248E+02  0.90958862523E+02  0.18491788697E+03  0.00000000000E+00 0. -1.
        -12    1    4    4    0    0  0.38254984707E+02 -0.32508958935E+02 -0.84018801567E+01  0.50900568328E+02  0.00000000000E+00 0.  1.
</event>
<event>
12    1  0.1032880E+000  0.2222134E+03  0.7818608E-02  0.1132823E+00
         21   -1    0    0  501  502  0.00000000000E+00  0.00000000000E+00  0.13428407202E+03  0.13428407202E+03  0.00000000000E+00 0.  1.
         21   -1    0    0  502  503 -0.00000000000E+00 -0.00000000000E+00 -0.38750115592E+03  0.38750115592E+03  0.00000000000E+00 0.  1.
         -6    2    1    2    0  503  0.75908847111E+02  0.11573585765E+03 -0.19195123280E+03  0.29128076828E+03  0.16983011623E+03 0.  0.
        -24    2    3    3    0    0 -0.75307423569E+01  0.87649222757E+02 -0.61064541231E+02  0.13346936128E+03  0.79662374264E+02 0.  0.
          6    2    1    2  501    0 -0.75908847111E+02 -0.11573585765E+03 -0.61265851092E+02  0.23050445966E+03  0.17384435452E+03 0.  0.
         24    2    5    5    0    0  0.27164265248E+02 -0.65425434019E+02 -0.41665267573E+02  0.11405070020E+03  0.79077069823E+02 0.  0.
          5    1    5    5  501    0 -0.10307311236E+03 -0.50310423630E+02 -0.19600583519E+02  0.11645375946E+03  0.47000000000E+01 0. -1.
        -13    1    6    6    0    0  0.43474060768E+02 -0.98087585766E+01 -0.36051969021E+01  0.44712449600E+02  0.00000000000E+00 0.  1.
         14    1    6    6    0    0 -0.16309795521E+02 -0.55616675442E+02 -0.38060070671E+02  0.69338250603E+02  0.00000000000E+00 0. -1.
         -5    1    3    3    0  503  0.83439589468E+02  0.28086634892E+02 -0.13088669157E+03  0.15781140700E+03  0.47000000000E+01 0.  1.
         13    1    4    4    0    0 -0.21642785820E+00  0.60142280858E+02 -0.79403945073E+02  0.99609875419E+02  0.00000000000E+00 0. -1.
        -14    1    4    4    0    0 -0.73143144987E+01  0.27506941899E+02  0.18339403842E+02  0.33859485857E+02  0.00000000000E+00 0.  1.
</event>
<event>
12    1  0.1032880E+000  0.2191796E+03  0.7818608E-02  0.1135302E+00
         21   -1    0    0  503  502  0.00000000000E+00  0.00000000000E+00  0.90014372754E+02  0.90014372754E+02  0.00000000000E+00 0. -1.
         21   -1    0    0  501  503 -0.00000000000E+00 -0.00000000000E+00 -0.57119000242E+03  0.57119000242E+03  0.00000000000E+00 0. -1.
          6    2    1    2  501    0 -0.11045138203E+03 -0.74292972358E+02 -0.33839361761E+03  0.40317483493E+03  0.17412855466E+03 0.  0.
         24    2    3    3    0    0 -0.72304300379E+02 -0.64182468271E+02 -0.98304533289E+02  0.15981855180E+03  0.80813904413E+02 0.  0.
         -6    2    1    2    0  502  0.11045138203E+03  0.74292972358E+02 -0.14278201205E+03  0.25802954024E+03  0.16874118388E+03 0.  0.
        -24    2    5    5    0    0  0.61058261527E+02  0.11398738623E+03 -0.10479416656E+03  0.18399918666E+03  0.78438815836E+02 0.  0.
          5    1    3    3  501    0 -0.38147081650E+02 -0.10110504087E+02 -0.24008908432E+03  0.24335628313E+03  0.47000000000E+01 0. -1.
        -13    1    4    4    0    0 -0.80799616949E+02 -0.46772803009E+02 -0.10387188890E+03  0.13966260238E+03  0.00000000000E+00 0.  1.
         14    1    4    4    0    0  0.84953165702E+01 -0.17409665262E+02  0.55673556140E+01  0.20155949412E+02  0.00000000000E+00 0. -1.
         -5    1    5    5    0  502  0.49393120502E+02 -0.39694413867E+02 -0.37987845496E+02  0.74030353576E+02  0.47000000000E+01 0.  1.
         11    1    6    6    0    0  0.21784182205E+02  0.14948292023E+02  0.91922871038E+01  0.27973204517E+02  0.00000000000E+00 0. -1.
        -12    1    6    6    0    0  0.39274079323E+02  0.99039094202E+02 -0.11398645366E+03  0.15602598215E+03  0.00000000000E+00 0.  1.
</event>
<event>
12    1  0.1032880E+000  0.2190017E+03  0.7818608E-02  0.1134659E+00
         21   -1    0    0  503  502  0.00000000000E+00  0.00000000000E+00  0.29644567340E+03  0.29644567340E+03  0.00000000000E+00 0.  1.
         21   -1    0    0  501  503 -0.00000000000E+00 -0.00000000000E+00 -0.25001179039E+03  0.25001179039E+03  0.00000000000E+00 0.  1.
          6    2    1    2  501    0 -0.70354499548E+02  0.11575296345E+03  0.18563447449E+03  0.28709213228E+03  0.17208495037E+03 0.  0.
         24    2    3    3    0    0  0.17755236495E+02  0.78623818552E+02  0.13966510722E+03  0.18089810367E+03  0.81980659103E+02 0.  0.
         -6    2    1    2    0  502  0.70354499548E+02 -0.11575296345E+03 -0.13920059148E+03  0.25936533151E+03  0.17188678358E+03 0.  0.
        -24    2    5    5    0    0  0.10839120266E+03 -0.11836270287E+03 -0.10591151535E+03  0.20853370639E+03  0.80688756184E+02 0.  0.
          5    1    3    3  501    0 -0.88109736043E+02  0.37129144895E+02  0.45969367263E+02  0.10619402861E+03  0.47000000000E+01 0. -1.
        -13    1    4    4    0    0  0.43031741266E+02  0.38497642627E+02  0.39159473736E+02  0.69765776907E+02  0.00000000000E+00 0.  1.
         14    1    4    4    0    0 -0.25276504770E+02  0.40126175925E+02  0.10050563349E+03  0.11113232676E+03  0.00000000000E+00 0. -1.
         -5    1    5    5    0  502 -0.38036703107E+02  0.26097394217E+01 -0.33289076127E+02  0.50831625121E+02  0.47000000000E+01 0.  1.
         11    1    6    6    0    0  0.60327989202E+02 -0.72958324920E+02 -0.14586963436E+02  0.95787070936E+02  0.00000000000E+00 0. -1.
        -12    1    6    6    0    0  0.48063213453E+02 -0.45404377949E+02 -0.91324551913E+02  0.11274663546E+03  0.00000000000E+00 0.  1.
</event>
<event>
12    1  0.1032880E+000  0.1986637E+03  0.7818608E-02  0.1150993E+00
         21   -1    0    0  501  502  0.00000000000E+00  0.00000000000E+00  0.84051875069E+02  0.84051875069E+02  0.00000000000E+00 0. -1.
         21   -1    0    0  502  503 -0.00000000000E+00 -0.00000000000E+00 -0.51231331776E+03  0.51231331776E+03  0.00000000000E+00 0. -1.
         -6    2    1    2    0  503  0.91184356749E+02  0.41119784496E+02 -0.12636712607E+03  0.23496869496E+03  0.17098600371E+03 0.  0.
        -24    2    3    3    0    0  0.71178492861E+02  0.73841703540E+02 -0.33052138622E+02  0.13397000458E+03  0.79602407198E+02 0.  0.
          6    2    1    2  501    0 -0.91184356749E+02 -0.41119784496E+02 -0.30189431662E+03  0.36139649787E+03  0.17164447755E+03 0.  0.
         24    2    5    5    0    0 -0.30148474308E+02  0.43031186835E+02 -0.15334695385E+03  0.18002623044E+03  0.78316932065E+02 0.  0.
          5    1    5    5  501    0 -0.61035882441E+02 -0.84150971331E+02 -0.14854736277E+03  0.18137026743E+03  0.47000000000E+01 0. -1.
        -13    1    6    6    0    0  0.17246168886E+01 -0.28464976632E+01 -0.10806379081E+03  0.10811503012E+03  0.00000000000E+00 0.  1.
         14    1    6    6    0    0 -0.31873091197E+02  0.45877684498E+02 -0.45283163037E+02  0.71911200324E+02  0.00000000000E+00 0. -1.
         -5    1    3    3    0  503  0.20005863889E+02 -0.32721919044E+02 -0.93314987449E+02  0.10099869038E+03  0.47000000000E+01 0.  1.
         11    1    4    4    0    0 -0.10979907084E+02 -0.79841290364E+01 -0.63149408115E+01  0.14972747026E+02  0.00000000000E+00 0. -1.
        -12    1    4    4    0    0  0.82158399945E+02  0.81825832576E+02 -0.26737197810E+02  0.11899725755E+03  0.00000000000E+00 0.  1.
</event>
<event>
12    1  0.1032880E+000  0.2257255E+03  0.7818608E-02  0.1129941E+00
         21   -1    0    0  501  502  0.00000000000E+00  0.00000000000E+00  0.72914691884E+03  0.72914691884E+03  0.00000000000E+00 0. -1.
         21   -1    0    0  502  503 -0.00000000000E+00 -0.00000000000E+00 -0.74676560569E+02  0.74676560569E+02  0.00000000000E+00 0. -1.
         -6    2    1    2    0  503 -0.89337041985E+00 -0.14310034594E+03  0.43461124020E+03  0.48973354540E+03  0.17456662986E+03 0.  0.
        -24    2    3    3    0    0  0.28285130077E+02 -0.98016719379E+02  0.40964702250E+03  0.43032630307E+03  0.83442903906E+02 0.  0.
          6    2    1    2  501    0  0.89337041985E+00  0.14310034594E+03  0.21985911807E+03  0.31408993401E+03  0.17273085344E+03 0.  0.
         24    2    5    5    0    0  0.29070457972E+02  0.10296045691E+03  0.59602097111E+02  0.14643087007E+03  0.80272302293E+02 0.  0.
          5    1    5    5  501    0 -0.28177087552E+02  0.40139889025E+02  0.16025702096E+03  0.16765906394E+03  0.47000000000E+01 0. -1.
        -11    1    6    6    0    0  0.46583417867E+01  0.16317622024E+02  0.53591650584E+02  0.56214143675E+02  0.00000000000E+00 0.  1.
         12    1    6    6    0    0  0.24412116185E+02  0.86642834890E+02  0.60104465269E+01  0.90216726398E+02  0.00000000000E+00 0. -1.
         -5    1    3    3    0  503 -0.29178500497E+02 -0.45083626560E+02  0.24964217698E+02  0.59407242322E+02  0.47000000000E+01 0.  1.
         11    1    4    4    0    0  0.40583583795E+02 -0.86539541028E+02  0.21914410742E+03  0.23908211822E+03  0.00000000000E+00 0. -1.
        -12    1    4    4    0    0 -0.12298453718E+02 -0.11477178350E+02  0.19050291508E+03  0.19124418485E+03  0.00000000000E+00 0.  1.
</event>
<event>
12    1  0.1032880E+000  0.2171476E+03  0.7818608E-02  0.1140809E+00
         21   -1    0    0  501  502  0.00000000000E+00  0.00000000000E+00  0.17289930998E+03  0.17289930998E+03  0.00000000000E+00 0. -1.
         21   -1    0    0  502  503 -0.00000000000E+00 -0.00000000000E+00 -0.29022361047E+03  0.29022361047E+03  0.00000000000E+00 0. -1.
         -6    2    1    2    0  503  0.96026884510E+02 -0.64890414205E+02 -0.15404301340E+03  0.26623737823E+03  0.18363323007E+03 0.  0.
        -24    2    3    3    0    0  0.27260894380E+02 -0.17020652115E+02  0.36832307215E+01  0.87575872571E+02  0.81382481575E+02 0.  0.
          6    2    1    2  501    0 -0.96026884510E+02  0.64890414205E+02  0.36718712910E+02  0.19688554222E+03  0.15486679584E+03 0.  0.
         24    2    5    5    0    0 -0.87664214622E+02  0.42415098630E+01  0.57851926048E+02  0.13194767544E+03  0.79751732107E+02 0.  0.
          5    1    5    5  501    0 -0.83626698880E+01  0.60648904342E+02 -0.21133213138E+02  0.64937866789E+02  0.47000000000E+01 0. -1.
        -13    1    6    6    0    0 -0.74603655441E+02  0.36904480034E+02  0.37316071495E+02  0.91214775357E+02  0.00000000000E+00 0.  1.
         14    1    6    6    0    0 -0.13060559181E+02 -0.32662970171E+02  0.20535854554E+02  0.40732900078E+02  0.00000000000E+00 0. -1.
         -5    1    3    3    0  503  0.68765990130E+02 -0.47869762090E+02 -0.15772624412E+03  0.17866150566E+03  0.47000000000E+01 0.  1.
         13    1    4    4    0    0 -0.89812312058E+01  0.24133113726E+02  0.17364230758E+02  0.31057788104E+02  0.00000000000E+00 0. -1.
        -14    1    4    4    0    0  0.36242125586E+02 -0.41153765841E+02 -0.13681000037E+02  0.56518084468E+02  0.00000000000E+00 0.  1.
</event>
<event>
12    1  0.1032880E+000  0.2088549E+03  0.7818608E-02  0.1143620E+00
         21   -1    0    0  503  502  0.00000000000E+00  0.00000000000E+00  0.12708331909E+03  0.12708331909E+03  0.00000000000E+00 0.  1.
         21   -1    0    0  501  503 -0.00000000000E+00 -0.00000000000E+00 -0.33769449181E+03  0.33769449181E+03  0.00000000000E+00 0.  1.
          6    2    1    2  501    0  0.79141876721E+02  0.74252210631E+02 -0.82477824207E+02  0.22455058014E+03  0.17844759488E+03 0.  0.
         24    2    3    3    0    0  0.81856585607E+00  0.28101048594E+02  0.19745789241E+02  0.87670238495E+02  0.80658759864E+02 0.  0.
         -6    2    1    2    0  502 -0.79141876721E+02 -0.74252210631E+02 -0.12813334851E+03  0.24022723076E+03  0.17179679846E+03 0.  0.
        -24    2    5    5    0    0 -0.12796002573E+02  0.21353203297E+02 -0.33484327640E+02  0.90151592025E+02  0.79915032217E+02 0.  0.
          5    1    3    3  501    0  0.78323310865E+02  0.46151162037E+02 -0.10222361345E+03  0.13688034164E+03  0.47000000000E+01 0. -1.
        -13    1    4    4    0    0 -0.26036753985E+02 -0.17787802021E+02  0.19164184035E+01  0.31590997425E+02  0.00000000000E+00 0.  1.
         14    1    4    4    0    0  0.26855319841E+02  0.45888850615E+02  0.17829370838E+02  0.56079241070E+02  0.00000000000E+00 0. -1.
         -5    1    5    5    0  502 -0.66345874148E+02 -0.95605413927E+02 -0.94649020875E+02  0.15007563873E+03  0.47000000000E+01 0.  1.
         11    1    6    6    0    0  0.18895596493E+02 -0.21152088743E+02 -0.22018948435E+02  0.35906663939E+02  0.00000000000E+00 0. -1.
        -12    1    6    6    0    0 -0.31691599067E+02  0.42505292040E+02 -0.11465379205E+02  0.54244928086E+02  0.00000000000E+00 0.  1.
</event>
<event>
12    1  0.1032880E+000  0.1838105E+03  0.7818608E-02  0.1164478E+00
         21   -1    0    0  501  502  0.00000000000E+00  0.00000000000E+00  0.61481957860E+02  0.61481957860E+02  0.00000000000E+00 0.  1.
         21   -1    0    0  502  503 -0.00000000000E+00 -0.00000000000E+00 -0.56518555031E+03  0.56518555031E+03  0.00000000000E+00 0.  1.
         -6    2    1    2    0  503  0.56216049041E+02 -0.26523792453E+02 -0.19261153605E+03  0.26533030080E+03  0.17157275123E+03 0.  0.
        -24    2    3    3    0    0  0.48092892120E+02  0.20400107759E+02 -0.19534890469E+03  0.21739887815E+03  0.79824726685E+02 0.  0.
          6    2    1    2  501    0 -0.56216049041E+02  0.26523792453E+02 -0.31109205640E+03  0.36133720737E+03  0.17298136934E+03 0.  0.
         24    2    5    5    0    0 -0.10301515441E+03  0.30342672418E+02 -0.24561440475E+03  0.28062690460E+03  0.83019419160E+02 0.  0.
          5    1    5    5  501    0  0.46799105370E+02 -0.38188799647E+01 -0.65477651650E+02  0.80710302769E+02  0.47000000000E+01 0. -1.
        -11    1    6    6    0    0 -0.74160523511E+02 -0.20780444727E+02 -0.13711974994E+03  0.15726867442E+03  0.00000000000E+00 0.  1.
         12    1    6    6    0    0 -0.28854630900E+02  0.51123117145E+02 -0.10849465481E+03  0.12335823018E+03  0.00000000000E+00 0. -1.
         -5    1    3    3    0  503  0.81231569204E+01 -0.46923900213E+02  0.27373686398E+01  0.47931422643E+02  0.47000000000E+01 0.  1.
         11    1    4    4    0    0  0.34917138863E+02 -0.28175055970E+02 -0.85029513628E+02  0.96140826671E+02  0.00000000000E+00 0. -1.
        -12    1    4    4    0    0  0.13175753257E+02  0.48575163729E+02 -0.11031939106E+03  0.12125805148E+03  0.00000000000E+00 0.  1.
</event>
<event>
12    1  0.1032880E+000  0.1848610E+03  0.7818608E-02  0.1163417E+00
         21   -1    0    0  503  502  0.00000000000E+00  0.00000000000E+00  0.30861398013E+02  0.30861398013E+02  0.00000000000E+00 0.  1.
         21   -1    0    0  501  503 -0.00000000000E+00 -0.00000000000E+00 -0.11053724435E+04  0.11053724435E+04  0.00000000000E+00 0.  1.
          6    2    1    2  501    0 -0.12182780580E+02  0.64762471564E+02 -0.50409539858E+03  0.53692249879E+03  0.17271653358E+03 0.  0.
         24    2    3    3    0    0  0.15674480133E+01  0.81636996327E+02 -0.18664728022E+03  0.21869425331E+03  0.79516747633E+02 0.  0.
         -6    2    1    2    0  502  0.12182780580E+02 -0.64762471564E+02 -0.57041564692E+03  0.59931134274E+03  0.17163180770E+03 0.  0.
        -24    2    5    5    0    0  0.29590659902E+02 -0.24474038610E+02 -0.12854367453E+03  0.15524026500E+03  0.78111957459E+02 0.  0.
          5    1    3    3  501    0 -0.13750228593E+02 -0.16874524763E+02 -0.31744811836E+03  0.31822824548E+03  0.47000000000E+01 0. -1.
        -13    1    4    4    0    0  0.31224078520E+02  0.14938792986E+02 -0.97579576602E+02  0.10353687452E+03  0.00000000000E+00 0.  1.
         14    1    4    4    0    0 -0.29656630507E+02  0.66698203342E+02 -0.89067703620E+02  0.11515737879E+03  0.00000000000E+00 0. -1.
         -5    1    5    5    0  502 -0.17407879322E+02 -0.40288432954E+02 -0.44187197239E+03  0.44407107773E+03  0.47000000000E+01 0.  1.
         11    1    6    6    0    0 -0.16110479581E+02 -0.26024244236E+02 -0.17751801281E+02  0.35382697596E+02  0.00000000000E+00 0. -1.
        -12    1    6    6    0    0  0.45701139483E+02  0.15502056260E+01 -0.11079187325E+03  0.11985756741E+03  0.00000000000E+00 0.  1.
</event>
<event>
12    1  0.1032880E+000  0.3523636E+03  0.7818608E-02  0.1061717E+00
         21   -1    0    0  501  502  0.00000000000E+00  0.00000000000E+00  0.11064974654E+03  0.11064974654E+03  0.00000000000E+00 0. -1.
         21   -1    0    0  502  503 -0.00000000000E+00 -0.00000000000E+00 -0.13441945307E+04  0.13441945307E+04  0.00000000000E+00 0. -1.
         -6    2    1    2    0  503  0.22969382025E+03  0.20392561734E+03 -0.91337041156E+03  0.97874371164E+03  0.17131501947E+03 0.  0.
        -24    2    3    3    0    0  0.70281896764E+02  0.80674483365E+01 -0.21573752379E+03  0.23679605863E+03  0.67268606905E+02 0.  0.
          6    2    1    2  501    0 -0.22969382025E+03 -0.20392561734E+03 -0.32017437264E+03  0.47610056563E+03  0.17267081754E+03 0.  0.
         24    2    5    5    0    0 -0.13966696454E+03 -0.77408933096E+02 -0.24624872261E+03  0.30405871644E+03  0.79462354294E+02 0.  0.
          5    1    5    5  501    0 -0.90026855708E+02 -0.12651668424E+03 -0.73925650030E+02  0.17204184919E+03  0.47000000000E+01 0. -1.
        -13    1    6    6    0    0 -0.38950493990E+02 -0.63489568702E+02 -0.81042415201E+02  0.11007242787E+03  0.00000000000E+00 0.  1.
         14    1    6    6    0    0 -0.10071647055E+03 -0.13919364394E+02 -0.16520630741E+03  0.19398628857E+03  0.00000000000E+00 0. -1.
         -5    1    3    3    0  503  0.15941192349E+03  0.19585816900E+03 -0.69763288776E+03  0.74194765301E+03  0.47000000000E+01 0.  1.
         13    1    4    4    0    0 -0.10895928194E+02 -0.96340965507E+00 -0.79230555279E+01  0.13506450987E+02  0.00000000000E+00 0. -1.
        -14    1    4    4    0    0  0.81177824958E+02  0.90308579916E+01 -0.20781446826E+03  0.22328960764E+03  0.00000000000E+00 0.  1.
</event>
<event>
12    1  0.1032880E+000  0.2303118E+03  0.7818608E-02  0.1126978E+00
         21   -1    0    0  503  502  0.00000000000E+00  0.00000000000E+00  0.37612965906E+02  0.37612965906E+02  0.00000000000E+00 0. -1.
         21   -1    0    0  501  503 -0.00000000000E+00 -0.00000000000E+00 -0.13935757908E+04  0.13935757908E+04  0.00000000000E+00 0. -1.
          6    2    1    2  501    0  0.14230951432E+03  0.44388549538E+02 -0.70387123039E+03  0.73962027282E+03  0.17140915319E+03 0.  0.
         24    2    3    3    0    0  0.18074533285E+02 -0.30282160358E+01 -0.39408747586E+03  0.40246935002E+03  0.79629016279E+02 0.  0.
         -6    2    1    2    0  502 -0.14230951432E+03 -0.44388549538E+02 -0.65209159453E+03  0.69156848392E+03  0.17555961690E+03 0.  0.
        -24    2    5    5    0    0 -0.11110640901E+03  0.29576331966E+02 -0.30788841540E+03  0.33809662364E+03  0.79338874753E+02 0.  0.
          5    1    3    3  501    0  0.12423498104E+03  0.47416765574E+02 -0.30978375453E+03  0.33715092279E+03  0.47000000000E+01 0. -1.
        -11    1    4    4    0    0  0.36913514504E+02  0.18907267873E+02 -0.32411760493E+03  0.32676033137E+03  0.00000000000E+00 0.  1.
         12    1    4    4    0    0 -0.18838981219E+02 -0.21935483909E+02 -0.69969870932E+02  0.75709018656E+02  0.00000000000E+00 0. -1.
         -5    1    5    5    0  502 -0.31203105311E+02 -0.73964881505E+02 -0.34420317914E+03  0.35347186027E+03  0.47000000000E+01 0.  1.
         11    1    6    6    0    0 -0.43556222251E+02 -0.14498592125E+02 -0.49946361663E+02  0.67837988722E+02  0.00000000000E+00 0. -1.
        -12    1    6    6    0    0 -0.67550186759E+02  0.44074924091E+02 -0.25794205374E+03  0.27025863492E+03  0.00000000000E+00 0.  1.
</event>
<event>
12    1  0.1032880E+000  0.4369531E+03  0.7818608E-02  0.1031731E+00
         21   -1    0    0  501  502  0.00000000000E+00  0.00000000000E+00  0.68284263182E+03  0.68284263182E+03  0.00000000000E+00 0. -1.
         21   -1    0    0  502  503 -0.00000000000E+00 -0.00000000000E+00 -0.41347936158E+03  0.41347936158E+03  0.00000000000E+00 0. -1.
         -6    2    1    2    0  503 -0.40061903549E+03 -0.23375058912E+02 -0.17759964072E+03  0.47166683541E+03  0.17287558031E+03 0.  0.
        -24    2    3    3    0    0 -0.87987552751E+02 -0.36607905596E+02 -0.44876283022E+02  0.13173870785E+03  0.79115473684E+02 0.  0.
          6    2    1    2  501    0  0.40061903549E+03  0.23375058912E+02  0.44696291096E+03  0.62465515799E+03  0.17139491725E+03 0.  0.
         24    2    5    5    0    0  0.24861496841E+03  0.59343425376E+02  0.35062570571E+03  0.44107436676E+03  0.79228573485E+02 0.  0.
          5    1    5    5  501    0  0.15200406708E+03 -0.35968366464E+02  0.96337205251E+02  0.18358079123E+03  0.47000000000E+01 0. -1.
        -11    1    6    6    0    0  0.10518080230E+00 -0.96549982821E+01  0.11439520855E+02  0.14969725857E+02  0.00000000000E+00 0.  1.
         12    1    6    6    0    0  0.24850978761E+03  0.68998423658E+02  0.33918618485E+03  0.42610464090E+03  0.00000000000E+00 0. -1.
         -5    1    3    3    0  503 -0.31263148274E+03  0.13232846685E+02 -0.13272335769E+03  0.33992812756E+03  0.47000000000E+01 0.  1.
         13    1    4    4    0    0 -0.51099767455E+02 -0.46287800335E+02 -0.59324529063E+02  0.90956838349E+02  0.00000000000E+00 0. -1.
        -14    1    4    4    0    0 -0.36887785296E+02  0.96798947393E+01  0.14448246041E+02  0.40781869499E+02  0.00000000000E+00 0.  1.
</event>
<event>
12    1  0.1032880E+000  0.1969582E+03  0.7818608E-02  0.1153405E+00
         21   -1    0    0  501  502  0.00000000000E+00  0.00000000000E+00  0.11723964110E+03  0.11723964110E+03  0.00000000000E+00 0.  1.
         21   -1    0    0  502  503 -0.00000000000E+00 -0.00000000000E+00 -0.57683925886E+03  0.57683925886E+03  0.00000000000E+00 0.  1.
         -6    2    1    2    0  503 -0.13623236303E+02 -0.91975655769E+02 -0.10713026933E+01  0.19696112164E+03  0.17363012966E+03 0.  0.
        -24    2    3    3    0    0  0.20230085068E+01 -0.37213508142E+02 -0.67937643933E+02  0.10900149806E+03  0.76660715916E+02 0.  0.
          6    2    1    2  501    0  0.13623236303E+02  0.91975655769E+02 -0.45852831507E+03  0.49711777833E+03  0.16802605746E+03 0.  0.
         24    2    5    5    0    0  0.47493864721E+02  0.25739923349E+01 -0.17474246824E+03  0.19762424959E+03  0.79108287786E+02 0.  0.
          5    1    5    5  501    0 -0.33870628418E+02  0.89401663434E+02 -0.28378584683E+03  0.29949352873E+03  0.47000000000E+01 0. -1.
        -11    1    6    6    0    0  0.45342668481E+01 -0.33617073960E+02 -0.45944902233E+02  0.57110430560E+02  0.00000000000E+00 0.  1.
         12    1    6    6    0    0  0.42959597873E+02  0.36191066295E+02 -0.12879756601E+03  0.14051381903E+03  0.00000000000E+00 0. -1.
         -5    1    3    3    0  503 -0.15646244810E+02 -0.54762147627E+02  0.66866341239E+02  0.87959623579E+02  0.47000000000E+01 0.  1.
         11    1    4    4    0    0  0.75272748101E+01 -0.15830712581E+02  0.15064350181E+02  0.23112896254E+02  0.00000000000E+00 0. -1.
        -12    1    4    4    0    0 -0.55042663033E+01 -0.21382795562E+02 -0.83001994113E+02  0.85888601807E+02  0.00000000000E+00 0.  1.
</event>
<event>
12    1  0.1032880E+000  0.3971154E+03  0.7818608E-02  0.1044873E+00
         21   -1    0    0  503  502  0.00000000000E+00  0.00000000000E+00  0.50109858430E+03  0.50109858430E+03  0.00000000000E+00 0.  1.
         21   -1    0    0  501  503 -0.00000000000E+00 -0.00000000000E+00 -0.31629030010E+03  0.31629030010E+03  0.00000000000E+00 0.  1.
          6    2    1    2  501    0  0.34739158716E+03 -0.80853338143E+02  0.56950717075E+02  0.40117828105E+03  0.17459224466E+03 0.  0.
         24    2    3    3    0    0  0.30038150092E+03 -0.90617488193E+02  0.96990320072E+02  0.33848420922E+03  0.81999161238E+02 0.  0.
         -6    2    1    2    0  502 -0.34739158716E+03  0.80853338143E+02  0.12785756713E+03  0.41621060335E+03  0.17223684781E+03 0.  0.
        -24    2    5    5    0    0 -0.33343538010E+03  0.72186735442E+02  0.71937819513E+02  0.35773843995E+03  0.80072867249E+02 0.  0.
          5    1    3    3  501    0  0.47010086243E+02  0.97641500501E+01 -0.40039602997E+02  0.62694071832E+02  0.47000000000E+01 0. -1.
        -11    1    4    4    0    0  0.22836179849E+01 -0.52281686804E+01 -0.91092355674E+01  0.10748340871E+02  0.00000000000E+00 0.  1.
         12    1    4    4    0    0  0.29809788294E+03 -0.85389319513E+02  0.10609955564E+03  0.32773586835E+03  0.00000000000E+00 0. -1.
         -5    1    5    5    0  502 -0.13956207067E+02  0.86666027010E+01  0.55919747619E+02  0.58472163393E+02  0.47000000000E+01 0.  1.
         13    1    6    6    0    0 -0.10265205009E+03  0.55636428326E+02  0.49682118341E+01  0.11686547254E+03  0.00000000000E+00 0. -1.
        -14    1    6    6    0    0 -0.23078333001E+03  0.16550307116E+02  0.66969607679E+02  0.24087296741E+03  0.00000000000E+00 0.  1.
</event>
<event>
12    1  0.1032880E+000  0.2041435E+03  0.7818608E-02  0.1146363E+00
         21   -1    0    0  503  502  0.00000000000E+00  0.00000000000E+00  0.69599565222E+02  0.69599565222E+02  0.00000000000E+00 0.  1.
         21   -1    0    0  501  503 -0.00000000000E+00 -0.00000000000E+00 -0.93645596433E+03  0.93645596433E+03  0.00000000000E+00 0.  1.
          6    2    1    2  501    0  0.48669126148E+02  0.10051253065E+03 -0.13113627703E+03  0.24263404578E+03  0.17088915811E+03 0.  0.
         24    2    3    3    0    0  0.15564132275E+02  0.30611866636E+02 -0.13959971128E+03  0.16468686386E+03  0.80339001390E+02 0.  0.
         -6    2    1    2    0  502 -0.48669126148E+02 -0.10051253065E+03 -0.73572012208E+03  0.76342148377E+03  0.17046058547E+03 0.  0.
        -24    2    5    5    0    0 -0.94920178042E+02 -0.62817359053E+02 -0.58468721636E+03  0.60096190612E+03  0.79625440846E+02 0.  0.
          5    1    3    3  501    0  0.33104993873E+02  0.69900664018E+02  0.84634342573E+01  0.77947181918E+02  0.47000000000E+01 0. -1.
        -11    1    4    4    0    0  0.18696259700E+02  0.41217610620E+02 -0.29481604627E+02  0.54014873538E+02  0.00000000000E+00 0.  1.
         12    1    4    4    0    0 -0.31321274244E+01 -0.10605743983E+02 -0.11011810666E+03  0.11067199032E+03  0.00000000000E+00 0. -1.
         -5    1    5    5    0  502  0.46251051893E+02 -0.37695171601E+02 -0.15103290572E+03  0.16245957766E+03  0.47000000000E+01 0.  1.
         11    1    6    6    0    0 -0.15196323344E+02 -0.39852817445E+02 -0.92869462380E+02  0.10219546147E+03  0.00000000000E+00 0. -1.
        -12    1    6    6    0    0 -0.79723854697E+02 -0.22964541609E+02 -0.49181775398E+03  0.49876644465E+03  0.00000000000E+00 0.  1.
</event>
<event>
12    1  0.1138874E+000  0.7490266E+03  0.7818608E-02  0.9638603E-01
         21   -1    0    0  503  502  0.00000000000E+00  0.00000000000E+00  0.73150029158E+03  0.73150029158E+03  0.00000000000E+00 0.  1.
         21   -1    0    0  501  503 -0.00000000000E+00 -0.00000000000E+00 -0.92841414185E+03  0.92841414185E+03  0.00000000000E+00 0.  1.
          6    2    1    2  501    0  0.58403641151E+03  0.42882797292E+03  0.25215928402E+03  0.79033233382E+03  0.18986556571E+03 0.  0.
         24    2    3    3    0    0  0.25726190196E+03  0.12359903987E+03  0.52246658880E+02  0.30050233336E+03  0.78176276030E+02 0.  0.
         -6    2    1    2    0  502 -0.58403641151E+03 -0.42882797292E+03 -0.44907313429E+03  0.86958209961E+03  0.17179751943E+03 0.  0.
        -24    2    5    5    0    0 -0.39647953127E+03 -0.37054231418E+03 -0.31778902119E+03  0.63329327275E+03  0.74651738208E+02 0.  0.
          5    1    3    3  501    0  0.32677450955E+03  0.30522893305E+03  0.19991262514E+03  0.48983000046E+03  0.47000000000E+01 0. -1.
        -11    1    4    4    0    0  0.43569238050E+02  0.54063526291E+01 -0.16351404547E+02  0.46849499289E+02  0.00000000000E+00 0.  1.
         12    1    4    4    0    0  0.21369266391E+03  0.11819268724E+03  0.68598063427E+02  0.25365283407E+03  0.00000000000E+00 0. -1.
         -5    1    5    5    0  502 -0.18755688024E+03 -0.58285658746E+02 -0.13128411310E+03  0.23628882685E+03  0.47000000000E+01 0.  1.
         13    1    6    6    0    0 -0.28071228720E+03 -0.22903479947E+03 -0.18122424610E+03  0.40509079837E+03  0.00000000000E+00 0. -1.
        -14    1    6    6    0    0 -0.11576724407E+03 -0.14150751471E+03 -0.13656477509E+03  0.22820247438E+03  0.00000000000E+00 0.  1.
</event>
<event>
12    1  0.1032880E+000  0.2130682E+03  0.7818608E-02  0.1139469E+00
         21   -1    0    0  501  502  0.00000000000E+00  0.00000000000E+00  0.31625525718E+03  0.31625525718E+03  0.00000000000E+00 0. -1.
         21   -1    0    0  502  503 -0.00000000000E+00 -0.00000000000E+00 -0.19637381615E+03  0.19637381615E+03  0.00000000000E+00 0. -1.
         -6    2    1    2    0  503 -0.11880746099E+03  0.38869908269E+02 -0.74498428422E+02  0.22421685039E+03  0.17057871382E+03 0.  0.
        -24    2    3    3    0    0 -0.90265910478E+02  0.84547559249E+02 -0.22186382391E+02  0.14898581913E+03  0.80051947943E+02 0.  0.
          6    2    1    2  501    0  0.11880746099E+03 -0.38869908269E+02  0.19437986945E+03  0.28841222294E+03  0.17254562914E+03 0.  0.
         24    2    5    5    0    0  0.72124230746E+02  0.22924421377E+02  0.17992037013E+03  0.20948801700E+03  0.76068757865E+02 0.  0.
          5    1    5    5  501    0  0.46683230242E+02 -0.61794329646E+02  0.14459499320E+02  0.78924205937E+02  0.47000000000E+01 0. -1.
        -13    1    6    6    0    0  0.82590124573E+02  0.25910829049E+02  0.11648062908E+03  0.14512145496E+03  0.00000000000E+00 0.  1.
         14    1    6    6    0    0 -0.10465893827E+02 -0.29864076717E+01  0.63439741050E+02  0.64366562040E+02  0.00000000000E+00 0. -1.
         -5    1    3    3    0  503 -0.28541550510E+02 -0.45677650980E+02 -0.52312046031E+02  0.75231031261E+02  0.47000000000E+01 0.  1.
         11    1    4    4    0    0 -0.39518127926E+02  0.69155953851E+00  0.17519090625E+02  0.43232848919E+02  0.00000000000E+00 0. -1.
        -12    1    4    4    0    0 -0.50747782552E+02  0.83855999710E+02 -0.39705473016E+02  0.10575297021E+03  0.00000000000E+00 0.  1.
</event>
<event>
12    1  0.1032880E+000  0.1781078E+03  0.7818608E-02  0.1169748E+00
         21   -1    0    0  503  502  0.00000000000E+00  0.00000000000E+00  0.18279430732E+03  0.18279430732E+03  0.00000000000E+00 0. -1.
         21   -1    0    0  501  503 -0.00000000000E+00 -0.00000000000E+00 -0.12001224882E+04  0.12001224882E+04  0.00000000000E+00 0. -1.
          6    2    1    2  501    0  0.33926568441E+02 -0.31790246112E+02  0.13088951340E+03  0.22103046055E+03  0.17193245179E+03 0.  0.
         24    2    3    3    0    0  0.55250309518E+02  0.38113735940E+02  0.85899674667E+02  0.13508021780E+03  0.79766268328E+02 0.  0.
         -6    2    1    2    0  502 -0.33926568441E+02  0.31790246112E+02 -0.11482176943E+04  0.11618863350E+04  0.17150612276E+03 0.  0.
        -24    2    5    5    0    0 -0.40380849654E+02  0.75163571477E+02 -0.92798097831E+03  0.93727733213E+03  0.10029918102E+03 0.  0.
          5    1    3    3  501    0 -0.21323741076E+02 -0.69903982052E+02  0.44989838729E+02  0.85950242752E+02  0.47000000000E+01 0. -1.
        -11    1    4    4    0    0  0.42802008697E+02 -0.15002619343E+02  0.58523656739E+02  0.74041265074E+02  0.00000000000E+00 0.  1.
         12    1    4    4    0    0  0.12448300820E+02  0.53116355283E+02  0.27376017928E+02  0.61038952722E+02  0.00000000000E+00 0. -1.
         -5    1    5    5    0  502  0.64542812125E+01 -0.43373325365E+02 -0.22023671597E+03  0.22460900285E+03  0.47000000000E+01 0.  1.
         13    1    6    6    0    0 -0.55628157824E+02  0.27005672897E+02 -0.25450112609E+03  0.26190574926E+03  0.00000000000E+00 0. -1.
        -14    1    6    6    0    0  0.15247308170E+02  0.48157898580E+02 -0.67347985222E+03  0.67537158287E+03  0.00000000000E+00 0.  1.
</event>
<event>
12    1  0.1032880E+000  0.2721285E+03  0.7818608E-02  0.1100175E+00
         21   -1    0    0  501  502  0.00000000000E+00  0.00000000000E+00  0.26388396179E+03  0.26388396179E+03  0.00000000000E+00 0.  1.
         21   -1    0    0  502  503 -0.00000000000E+00 -0.00000000000E+00 -0.52888073404E+03  0.52888073404E+03  0.00000000000E+00 0.  1.
         -6    2    1    2    0  503  0.10073465083E+03 -0.18356960122E+03  0.13939814329E+03  0.30575442773E+03  0.17380638468E+03 0.  0.
        -24    2    3    3    0    0  0.42229718567E+02 -0.90366270160E+02  0.14729408293E+03  0.19532742070E+03  0.80671199930E+02 0.  0.
          6    2    1    2  501    0 -0.10073465083E+03  0.18356960122E+03 -0.40439491554E+03  0.48701026809E+03  0.17262237727E+03 0.  0.
         24    2    5    5    0    0 -0.12243567091E+03  0.10287548467E+03 -0.32975853552E+03  0.37487127424E+03  0.78828431683E+02 0.  0.
          5    1    5    5  501    0  0.21701020085E+02  0.80694116554E+02 -0.74636380021E+02  0.11213899385E+03  0.47000000000E+01 0. -1.
        -13    1    6    6    0    0 -0.54884883963E+02  0.30694729503E+02 -0.57462936330E+02  0.85185127567E+02  0.00000000000E+00 0.  1.
         14    1    6    6    0    0 -0.67550786947E+02  0.72180755166E+02 -0.27229559919E+03  0.28968614667E+03  0.00000000000E+00 0. -1.
         -5    1    3    3    0  503  0.58504932258E+02 -0.93203331063E+02 -0.78959396375E+01  0.11042700703E+03  0.47000000000E+01 0.  1.
         13    1    4    4    0    0  0.37526071762E+02 -0.84539934824E+02  0.65851429013E+02  0.11354125834E+03  0.00000000000E+00 0. -1.
        -14    1    4    4    0    0  0.47036468046E+01 -0.58263353357E+01  0.81442653918E+02  0.81786162362E+02  0.00000000000E+00 0.  1.
</event>
<event>
12    1  0.1032880E+000  0.1906168E+03  0.7818608E-02  0.1157990E+00
         21   -1    0    0  503  502  0.00000000000E+00  0.00000000000E+00  0.23259487534E+03  0.23259487534E+03  0.00000000000E+00 0.  1.
         21   -1    0    0  501  503 -0.00000000000E+00 -0.00000000000E+00 -0.16700929964E+03  0.16700929964E+03  0.00000000000E+00 0.  1.
          6    2    1    2  501    0  0.88495375513E+01  0.81174594509E+02 -0.18683997550E+02  0.19153028524E+03  0.17224148540E+03 0.  0.
         24    2    3    3    0    0  0.29428863183E+02  0.62258900401E+02 -0.72539138798E+02  0.13067160989E+03  0.84088728767E+02 0.  0.
         -6    2    1    2    0  502 -0.88495375513E+01 -0.81174594509E+02  0.84269573248E+02  0.20807388974E+03  0.17183059537E+03 0.  0.
        -24    2    5    5    0    0  0.25669823467E+02 -0.32485512488E+02 -0.15817297430E+02  0.91447629077E+02  0.79988959284E+02 0.  0.
          5    1    3    3  501    0 -0.20579325632E+02  0.18915694109E+02  0.53855141248E+02  0.60858675355E+02  0.47000000000E+01 0. -1.
        -11    1    4    4    0    0 -0.24367332796E+01  0.74422796625E+02 -0.46903691120E+02  0.88003673601E+02  0.00000000000E+00 0.  1.
         12    1    4    4    0    0  0.31865596463E+02 -0.12163896224E+02 -0.25635447678E+02  0.42667936287E+02  0.00000000000E+00 0. -1.
         -5    1    5    5    0  502 -0.34519361018E+02 -0.48689082022E+02  0.10008687068E+03  0.11662626066E+03  0.47000000000E+01 0.  1.
         13    1    6    6    0    0 -0.24017430668E+02 -0.89672769504E+01 -0.24890101021E+02  0.35731864780E+02  0.00000000000E+00 0. -1.
        -14    1    6    6    0    0  0.49687254135E+02 -0.23518235537E+02  0.90728035914E+01  0.55715764297E+02  0.00000000000E+00 0.  1.
</event>
<event>
12    1  0.1032880E+000  0.2345382E+03  0.7818608E-02  0.1123590E+00
         21   -1    0    0  501  502  0.00000000000E+00  0.00000000000E+00  0.10988751659E+03  0.10988751659E+03  0.00000000000E+00 0. -1.
         21   -1    0    0  502  503 -0.00000000000E+00 -0.00000000000E+00 -0.10300307949E+04  0.10300307949E+04  0.00000000000E+00 0. -1.
         -6    2    1    2    0  503  0.11292384318E+03 -0.11218113973E+03 -0.86891015265E+03  0.89984959172E+03  0.17142937863E+03 0.  0.
        -24    2    3    3    0    0  0.73435864651E+01 -0.14784359697E+02 -0.20737650894E+03  0.22288417522E+03  0.79998959676E+02 0.  0.
          6    2    1    2  501    0 -0.11292384318E+03  0.11218113973E+03 -0.51233125619E+02  0.24006871974E+03  0.17225491159E+03 0.  0.
         24    2    5    5    0    0 -0.66297706308E+02  0.94112846371E+02 -0.98186506421E+02  0.17131430291E+03  0.80345420684E+02 0.  0.
          5    1    5    5  501    0 -0.46626136867E+02  0.18068293363E+02  0.46953380801E+02  0.68754416825E+02  0.47000000000E+01 0. -1.
        -11    1    6    6    0    0 -0.22690016900E+01  0.72541346775E+02 -0.55883054956E+02  0.91598641867E+02  0.00000000000E+00 0.  1.
         12    1    6    6    0    0 -0.64028704618E+02  0.21571499596E+02 -0.42303451464E+02  0.79715661044E+02  0.00000000000E+00 0. -1.
         -5    1    3    3    0  503  0.10558025671E+03 -0.97396780037E+02 -0.66153364372E+03  0.67696541650E+03  0.47000000000E+01 0.  1.
         13    1    4    4    0    0 -0.22837806085E+02 -0.35415340156E+02 -0.80732367528E+02  0.91068802956E+02  0.00000000000E+00 0. -1.
        -14    1    4    4    0    0  0.30181392550E+02  0.20630980460E+02 -0.12664414141E+03  0.13181537226E+03  0.00000000000E+00 0.  1.
</event>
<event>
12    1  0.1032880E+000  0.2073101E+03  0.7818608E-02  0.1143716E+00
         21   -1    0    0  501  502  0.00000000000E+00  0.00000000000E+00  0.13510521657E+03  0.13510521657E+03  0.00000000000E+00 0.  1.
         21   -1    0    0  502  503 -0.00000000000E+00 -0.00000000000E+00 -0.31839087354E+03  0.31839087354E+03  0.00000000000E+00 0.  1.
         -6    2    1    2    0  503  0.11496222735E+03  0.11046850501E+02 -0.84654089853E+02  0.22392813331E+03  0.17216023738E+03 0.  0.
        -24    2    3    3    0    0  0.40272897528E+02  0.17312828457E+02 -0.11148841746E+03  0.14417896650E+03  0.80226347591E+02 0.  0.
          6    2    1    2  501    0 -0.11496222735E+03 -0.11046850501E+02 -0.98631567115E+02  0.22956795681E+03  0.17214794259E+03 0.  0.
         24    2    5    5    0    0 -0.12482926918E+03 -0.36423183680E+02 -0.29855286580E+02  0.15544924416E+03  0.79775526446E+02 0.  0.
          5    1    5    5  501    0  0.98670418304E+01  0.25376333179E+02 -0.68776280536E+02  0.74118712647E+02  0.47000000000E+01 0. -1.
        -11    1    6    6    0    0 -0.80929810817E+02  0.11821553503E+02 -0.37119471003E+02  0.89817807442E+02  0.00000000000E+00 0.  1.
         12    1    6    6    0    0 -0.43899458365E+02 -0.48244737183E+02  0.72641844231E+01  0.65631436720E+02  0.00000000000E+00 0. -1.
         -5    1    3    3    0  503  0.74689329824E+02 -0.62659779562E+01  0.26834327607E+02  0.79749166813E+02  0.47000000000E+01 0.  1.
         13    1    4    4    0    0 -0.99731910859E+01  0.14504928142E+02 -0.85971277109E+02  0.87754874329E+02  0.00000000000E+00 0. -1.
        -14    1    4    4    0    0  0.50246088614E+02  0.28079003155E+01 -0.25517140351E+02  0.56424092167E+02  0.00000000000E+00 0.  1.
</event>
<event>
12    1  0.1032880E+000  0.2671616E+03  0.7818608E-02  0.1103041E+00
         21   -1    0    0  501  502  0.00000000000E+00  0.00000000000E+00  0.13941389348E+03  0.13941389348E+03  0.00000000000E+00 0. -1.
         21   -1    0    0  502  503 -0.00000000000E+00 -0.00000000000E+00 -0.63339379981E+03  0.63339379981E+03  0.00000000000E+00 0. -1.
         -6    2    1    2    0  503  0.16716889146E+03 -0.11911013501E+03 -0.41700241173E+03  0.49477734798E+03  0.16964949205E+03 0.  0.
        -24    2    3    3    0    0  0.11841760449E+02 -0.47426591460E+02 -0.17775827719E+03  0.20062620663E+03  0.79141397580E+02 0.  0.
          6    2    1    2  501    0 -0.16716889146E+03  0.11911013501E+03 -0.76977494606E+02  0.27803034531E+03  0.17100489965E+03 0.  0.
         24    2    5    5    0    0 -0.14486892956E+03  0.14100253992E+03 -0.99493772302E+02  0.23922778799E+03  0.80387815026E+02 0.  0.
          5    1    5    5  501    0 -0.22299961901E+02 -0.21892404909E+02  0.22516277696E+02  0.38802557323E+02  0.47000000000E+01 0. -1.
        -11    1    6    6    0    0 -0.10222998472E+03  0.46983484425E+02 -0.67237833021E+02  0.13106999571E+03  0.00000000000E+00 0.  1.
         12    1    6    6    0    0 -0.42638944832E+02  0.94019055491E+02 -0.32255939281E+02  0.10815779228E+03  0.00000000000E+00 0. -1.
         -5    1    3    3    0  503  0.15532713101E+03 -0.71683543547E+02 -0.23924413454E+03  0.29415114135E+03  0.47000000000E+01 0.  1.
         11    1    4    4    0    0  0.28621406521E+02 -0.52286353149E+02 -0.72172844877E+02  0.93605380051E+02  0.00000000000E+00 0. -1.
        -12    1    4    4    0    0 -0.16779646072E+02  0.48597616886E+01 -0.10558543231E+03  0.10702082658E+03  0.00000000000E+00 0.  1.
</event>
<event>
12    1  0.1032880E+000  0.2328891E+03  0.7818608E-02  0.1124630E+00
         21   -1    0    0  503  502  0.00000000000E+00  0.00000000000E+00  0.76108197693E+03  0.76108197693E+03  0.00000000000E+00 0. -1.
         21   -1    0    0  501  503 -0.00000000000E+00 -0.00000000000E+00 -0.77009529880E+02  0.77009529880E+02  0.00000000000E+00 0.  1.
          6    2    1    2  501    0  0.15609594016E+03 -0.15168776760E+02  0.45659604610E+03  0.51254144355E+03  0.17211260186E+03 0.  0.
         24    2    3    3    0    0  0.17280403620E+03 -0.47445895861E+02  0.37419384382E+03  0.42235726627E+03  0.79071358001E+02 0.  0.
         -6    2    1    2    0  502 -0.15609594016E+03  0.15168776760E+02  0.22747640095E+03  0.32555006326E+03  0.17216647867E+03 0.  0.
        -24    2    5    5    0    0 -0.13928228364E+03  0.36101897893E+02  0.92119717828E+02  0.18747611108E+03  0.77190337765E+02 0.  0.
          5    1    3    3  501    0 -0.16708096046E+02  0.32277119101E+02  0.82402202278E+02  0.90184177278E+02  0.47000000000E+01 0. -1.
        -13    1    4    4    0    0  0.38614920019E+02  0.62072154140E+01  0.30767393909E+02  0.49762175387E+02  0.00000000000E+00 0.  1.
         14    1    4    4    0    0  0.13418911618E+03 -0.53653111275E+02  0.34342644991E+03  0.37259509089E+03  0.00000000000E+00 0. -1.
         -5    1    5    5    0  502 -0.16813656516E+02 -0.20933121134E+02  0.13535668312E+03  0.13807395218E+03  0.47000000000E+01 0.  1.
         11    1    6    6    0    0 -0.54445510836E+02 -0.36264757699E+01  0.74192742551E+02  0.92097926273E+02  0.00000000000E+00 0. -1.
        -12    1    6    6    0    0 -0.84836772805E+02  0.39728373663E+02  0.17926975277E+02  0.95378184804E+02  0.00000000000E+00 0.  1.
</event>
<event>
12    1  0.1032880E+000  0.2187501E+03  0.7818608E-02  0.1134897E+00
         21   -1    0    0  503  502  0.00000000000E+00  0.00000000000E+00  0.29401302214E+03  0.29401302214E+03  0.00000000000E+00 0.  1.
         21   -1    0    0  501  503 -0.00000000000E+00 -0.00000000000E+00 -0.38152336591E+03  0.38152336591E+03  0.00000000000E+00 0. -1.
          6    2    1    2  501    0  0.12196085221E+03  0.57660231463E+02 -0.29968960058E+03  0.37078789909E+03  0.17167020024E+03 0.  0.
         24    2    3    3    0    0  0.31808665399E+02  0.77586277357E+02 -0.21737214891E+03  0.24700293659E+03  0.82026690359E+02 0.  0.
         -6    2    1    2    0  502 -0.12196085221E+03 -0.57660231463E+02  0.21217925681E+03  0.30474848897E+03  0.17219887555E+03 0.  0.
        -24    2    5    5    0    0 -0.65854342356E+02  0.30024815544E+02  0.14530464982E+03  0.18093043302E+03  0.79900540550E+02 0.  0.
          5    1    3    3  501    0  0.90152186814E+02 -0.19926045893E+02 -0.82317451665E+02  0.12378496250E+03  0.47000000000E+01 0. -1.
        -13    1    4    4    0    0  0.52358935827E+02  0.37569834894E+02 -0.16937439435E+03  0.18121985574E+03  0.00000000000E+00 0.  1.
         14    1    4    4    0    0 -0.20550270428E+02  0.40016442463E+02 -0.47997754566E+02  0.65783080844E+02  0.00000000000E+00 0. -1.
         -5    1    5    5    0  502 -0.56106509858E+02 -0.87685047007E+02  0.66874606995E+02  0.12381805594E+03  0.47000000000E+01 0.  1.
         11    1    6    6    0    0  0.14272218120E+02 -0.30751130109E+01  0.39778364475E+01  0.15131943461E+02  0.00000000000E+00 0. -1.
        -12    1    6    6    0    0 -0.80126560476E+02  0.33099928554E+02  0.14132681337E+03  0.16579848956E+03  0.00000000000E+00 0.  1.
</event>
<event>
12    1  0.1032880E+000  0.2621949E+03  0.7818608E-02  0.1105895E+00
         21   -1    0    0  501  502  0.00000000000E+00  0.00000000000E+00  0.19905677391E+03  0.19905677391E+03  0.00000000000E+00 0.  1.
         21   -1    0    0  502  503 -0.00000000000E+00 -0.00000000000E+00 -0.35557618809E+03  0.35557618809E+03  0.00000000000E+00 0.  1.
         -6    2    1    2    0  503  0.10428483087E+03 -0.16782738670E+03 -0.30036485241E+02  0.26390978460E+03  0.17235088130E+03 0.  0.
        -24    2    3    3    0    0 -0.96406993105E+01 -0.97421302835E+02 -0.31375519223E+02  0.12989513583E+03  0.79400691293E+02 0.  0.
          6    2    1    2  501    0 -0.10428483087E+03  0.16782738670E+03 -0.12648292894E+03  0.29072317740E+03  0.17169937940E+03 0.  0.
         24    2    5    5    0    0 -0.93117550885E+02  0.44736274492E+02 -0.99376255735E+02  0.16410172669E+03  0.79884441284E+02 0.  0.
          5    1    5    5  501    0 -0.11167279980E+02  0.12309111221E+03 -0.27106673209E+02  0.12662145071E+03  0.47000000000E+01 0. -1.
        -11    1    6    6    0    0 -0.43371280684E+02  0.39953109365E+02 -0.74082514674E+01  0.59432323915E+02  0.00000000000E+00 0.  1.
         12    1    6    6    0    0 -0.49746270201E+02  0.47831651270E+01 -0.91968004267E+02  0.10466940277E+03  0.00000000000E+00 0. -1.
         -5    1    3    3    0  503  0.11392553018E+03 -0.70406083869E+02  0.13390339818E+01  0.13401464876E+03  0.47000000000E+01 0.  1.
         13    1    4    4    0    0  0.18486881370E+02 -0.87590305694E+02 -0.42813873515E+01  0.89622300305E+02  0.00000000000E+00 0. -1.
        -14    1    4    4    0    0 -0.28127580680E+02 -0.98309971411E+01 -0.27094131871E+02  0.40272835530E+02  0.00000000000E+00 0.  1.
</event>
<event>
12    1  0.1032880E+000  0.2637010E+03  0.7818608E-02  0.1105091E+00
         21   -1    0    0  503  502  0.00000000000E+00  0.00000000000E+00  0.14195380382E+03  0.14195380382E+03  0.00000000000E+00 0. -1.
         21   -1    0    0  501  503 -0.00000000000E+00 -0.00000000000E+00 -0.52986481485E+03  0.52986481485E+03  0.00000000000E+00 0. -1.
          6    2    1    2  501    0  0.94409129486E+02  0.17590983184E+03 -0.28806609777E+03  0.38984839623E+03  0.17071128461E+03 0.  0.
         24    2    3    3    0    0  0.31232689618E+02  0.63595386237E+02 -0.20926080307E+03  0.23872539429E+03  0.90442667599E+02 0.  0.
         -6    2    1    2    0  502 -0.94409129486E+02 -0.17590983184E+03 -0.99844913260E+02  0.28197022244E+03  0.17228130186E+03 0.  0.
        -24    2    5    5    0    0 -0.19710707092E+02 -0.16727692102E+03 -0.56792588969E+02  0.19519479917E+03  0.80656873105E+02 0.  0.
          5    1    3    3  501    0  0.63176439868E+02  0.11231444560E+03 -0.78805294694E+02  0.15112300195E+03  0.47000000000E+01 0. -1.
        -11    1    4    4    0    0  0.49994053824E+02  0.52338548262E+02 -0.81061364242E+02  0.10867232318E+03  0.00000000000E+00 0.  1.
         12    1    4    4    0    0 -0.18761364206E+02  0.11256837975E+02 -0.12819943883E+03  0.13005307111E+03  0.00000000000E+00 0. -1.
         -5    1    5    5    0  502 -0.74698422394E+02 -0.86329108155E+01 -0.43052324291E+02  0.86775423273E+02  0.47000000000E+01 0.  1.
         13    1    6    6    0    0  0.92217172392E+00 -0.22071765573E+02  0.19861991937E+02  0.29707102853E+02  0.00000000000E+00 0. -1.
        -14    1    6    6    0    0 -0.20632878816E+02 -0.14520515545E+03 -0.76654580906E+02  0.16548769632E+03  0.00000000000E+00 0.  1.
</event>
<event>
12    1  0.1032880E+000  0.2137171E+03  0.7818608E-02  0.1138924E+00
         21   -1    0    0  503  502  0.00000000000E+00  0.00000000000E+00  0.93448863793E+02  0.93448863793E+02  0.00000000000E+00 0.  1.
         21   -1    0    0  501  503 -0.00000000000E+00 -0.00000000000E+00 -0.59460801170E+03  0.59460801170E+03  0.00000000000E+00 0.  1.
          6    2    1    2  501    0  0.12356638030E+03 -0.17073229255E+02 -0.39853374473E+03  0.45222134810E+03  0.17353632617E+03 0.  0.
         24    2    3    3    0    0  0.36843670142E+02  0.45453187662E+02 -0.25531097314E+03  0.27343311144E+03  0.78476271111E+02 0.  0.
         -6    2    1    2    0  502 -0.12356638030E+03  0.17073229255E+02 -0.10262540318E+03  0.23583552738E+03  0.17183211895E+03 0.  0.
        -24    2    5    5    0    0 -0.13494153229E+03  0.17381939023E+02 -0.27926863742E+02  0.16012917905E+03  0.79687485367E+02 0.  0.
          5    1    3    3  501    0  0.86722710154E+02 -0.62526416917E+02 -0.14322277159E+03  0.17878823667E+03  0.47000000000E+01 0. -1.
        -13    1    4    4    0    0  0.26356189155E+02 -0.95754767958E+01 -0.16345455700E+03  0.16584248752E+03  0.00000000000E+00 0.  1.
         14    1    4    4    0    0  0.10487480987E+02  0.55028664458E+02 -0.91856416145E+02  0.10759062392E+03  0.00000000000E+00 0. -1.
         -5    1    5    5    0  502  0.11375151992E+02 -0.30870976805E+00 -0.74698539435E+02  0.75706348335E+02  0.47000000000E+01 0.  1.
         11    1    6    6    0    0 -0.13534176492E+03  0.28322885745E+01 -0.40066198166E+02  0.14117618576E+03  0.00000000000E+00 0. -1.
        -12    1    6    6    0    0  0.40023263322E+00  0.14549650448E+02  0.12139334424E+02  0.18952993288E+02  0.00000000000E+00 0.  1.
</event>
<event>
12    1  0.1032880E+000  0.2176780E+03  0.7818608E-02  0.1135652E+00
         21   -1    0    0  501  502  0.00000000000E+00  0.00000000000E+00  0.66467008271E+02  0.66467008271E+02  0.00000000000E+00 0. -1.
         21   -1    0    0  502  503 -0.00000000000E+00 -0.00000000000E+00 -0.96722589426E+03  0.96722589426E+03  0.00000000000E+00 0. -1.
         -6    2    1    2    0  503  0.57478018198E+02  0.12009263992E+03 -0.18500753353E+03  0.28557278542E+03  0.17204087760E+03 0.  0.
        -24    2    3    3    0    0  0.61566782377E+02  0.61911634144E+01 -0.65326969589E+02  0.12023739378E+03  0.79753487131E+02 0.  0.
          6    2    1    2  501    0 -0.57478018198E+02 -0.12009263992E+03 -0.71575135246E+03  0.74812011711E+03  0.17221424548E+03 0.  0.
         24    2    5    5    0    0 -0.78934292024E+02 -0.14570803603E+03 -0.59294199698E+03  0.62075941675E+03  0.79376240017E+02 0.  0.
          5    1    5    5  501    0  0.21456273826E+02  0.25615396109E+02 -0.12280935548E+03  0.12736070036E+03  0.47000000000E+01 0. -1.
        -11    1    6    6    0    0 -0.49463318019E+02 -0.99602137612E+02 -0.50564720671E+03  0.51773188360E+03  0.00000000000E+00 0.  1.
         12    1    6    6    0    0 -0.29470974004E+02 -0.46105898421E+02 -0.87294790274E+02  0.10302753315E+03  0.00000000000E+00 0. -1.
         -5    1    3    3    0  503 -0.40887641786E+01  0.11390147651E+03 -0.11968056394E+03  0.16533539164E+03  0.47000000000E+01 0.  1.
         13    1    4    4    0    0  0.36388359928E+02  0.35675759147E+02 -0.63503561733E+02  0.81422201406E+02  0.00000000000E+00 0. -1.
        -14    1    4    4    0    0  0.25178422448E+02 -0.29484595732E+02 -0.18234078566E+01  0.38815192370E+02  0.00000000000E+00 0.  1.
</event>
<event>
12    1  0.1032880E+000  0.1925369E+03  0.7818608E-02  0.1156357E+00
         21   -1    0    0  503  502  0.00000000000E+00  0.00000000000E+00  0.10377156499E+03  0.10377156499E+03  0.00000000000E+00 0.  1.
         21   -1    0    0  501  503 -0.00000000000E+00 -0.00000000000E+00 -0.36450010638E+03  0.36450010638E+03  0.00000000000E+00 0. -1.
          6    2    1    2  501    0  0.15680633100E+02  0.80532422859E+02 -0.94081901112E+02  0.21363163757E+03  0.17336585324E+03 0.  0.
         24    2    3    3    0    0  0.65046646277E+02  0.21001763765E+02 -0.86462120338E+02  0.13577886827E+03  0.79297304756E+02 0.  0.
         -6    2    1    2    0  502 -0.15680633100E+02 -0.80532422859E+02 -0.16664664027E+03  0.25464003381E+03  0.17418120081E+03 0.  0.
        -24    2    5    5    0    0 -0.70343574790E+02 -0.37590968679E+02 -0.64253760314E+02  0.13079174941E+03  0.81342710544E+02 0.  0.
          5    1    3    3  501    0 -0.49366013177E+02  0.59530659094E+02 -0.76197807747E+01  0.77852769304E+02  0.47000000000E+01 0. -1.
        -11    1    4    4    0    0  0.66524728623E+02  0.52337633492E+00 -0.25152755683E+02  0.71122953816E+02  0.00000000000E+00 0.  1.
         12    1    4    4    0    0 -0.14780823454E+01  0.20478387430E+02 -0.61309364655E+02  0.64655914452E+02  0.00000000000E+00 0. -1.
         -5    1    5    5    0  502  0.54662941689E+02 -0.42941454180E+02 -0.10239287996E+03  0.12384828440E+03  0.47000000000E+01 0.  1.
         11    1    6    6    0    0 -0.60462826632E+02 -0.60116015834E+02 -0.63273307426E+02  0.10617532763E+03  0.00000000000E+00 0. -1.
        -12    1    6    6    0    0 -0.98807481575E+01  0.22525047155E+02 -0.98045288785E+00  0.24616421782E+02  0.00000000000E+00 0.  1.
</event>
<event>
12    1  0.1032880E+000  0.1855397E+03  0.7818608E-02  0.1162708E+00
         21   -1    0    0  503  502  0.00000000000E+00  0.00000000000E+00  0.35180407097E+03  0.35180407097E+03  0.00000000000E+00 0.  1.
         21   -1    0    0  501  503 -0.00000000000E+00 -0.00000000000E+00 -0.41576125253E+03  0.41576125253E+03  0.00000000000E+00 0.  1.
          6    2    1    2  501    0  0.34532504649E+02  0.59338887548E+02 -0.36777900716E+03  0.41193008449E+03  0.17236994792E+03 0.  0.
         24    2    3    3    0    0 -0.76624317678E+00 -0.32778401175E+02 -0.16376688769E+03  0.18527035853E+03  0.80190407993E+02 0.  0.
         -6    2    1    2    0  502 -0.34532504649E+02 -0.59338887548E+02  0.30382182560E+03  0.35563523902E+03  0.17162495176E+03 0.  0.
        -24    2    5    5    0    0 -0.56261813363E+02 -0.65739832134E+02  0.11247683228E+03  0.16289673373E+03  0.79982441137E+02 0.  0.
          5    1    3    3  501    0  0.35298747826E+02  0.92117288723E+02 -0.20401211947E+03  0.22665972595E+03  0.47000000000E+01 0. -1.
        -13    1    4    4    0    0  0.16384695013E+02 -0.48056779107E+02 -0.15030035612E+03  0.15864460060E+03  0.00000000000E+00 0.  1.
         14    1    4    4    0    0 -0.17150938190E+02  0.15278377931E+02 -0.13466531571E+02  0.26625757934E+02  0.00000000000E+00 0. -1.
         -5    1    5    5    0  502  0.21729308714E+02  0.64009445858E+01  0.19134499332E+03  0.19273850528E+03  0.47000000000E+01 0.  1.
         11    1    6    6    0    0  0.47456070423E+01 -0.52730719660E+01 -0.10633369043E+02  0.12782590167E+02  0.00000000000E+00 0. -1.
        -12    1    6    6    0    0 -0.61007420406E+02 -0.60466760168E+02  0.12311020132E+03  0.15011414357E+03  0.00000000000E+00 0.  1.
</event>
<event>
12    1  0.1032880E+000  0.1936542E+03  0.7818608E-02  0.1156306E+00
         21   -1    0    0  503  502  0.00000000000E+00  0.00000000000E+00  0.93285049775E+03  0.93285049775E+03  0.00000000000E+00 0.  1.
         21   -1    0    0  501  503 -0.00000000000E+00 -0.00000000000E+00 -0.50643395513E+02  0.50643395513E+02  0.00000000000E+00 0.  1.
          6    2    1    2  501    0 -0.46817668628E+02 -0.63145956855E+02  0.20279899409E+03  0.27702570020E+03  0.17157068691E+03 0.  0.
         24    2    3    3    0    0 -0.16526714977E+02  0.26749948448E+02  0.13428652322E+03  0.15991522105E+03  0.80940197391E+02 0.  0.
         -6    2    1    2    0  502  0.46817668628E+02  0.63145956855E+02  0.67940810815E+03  0.70646819306E+03  0.17698198899E+03 0.  0.
        -24    2    5    5    0    0 -0.31607105149E+02  0.73117606123E+02  0.44385568581E+03  0.45795881175E+03  0.79832386978E+02 0.  0.
          5    1    3    3  501    0 -0.30290953651E+02 -0.89895905303E+02  0.68512470862E+02  0.11711047915E+03  0.47000000000E+01 0. -1.
        -13    1    4    4    0    0  0.27393419160E+02  0.26829331593E+02  0.37514095027E+02  0.53642518329E+02  0.00000000000E+00 0.  1.
         14    1    4    4    0    0 -0.43920134137E+02 -0.79383145308E-01  0.96772428197E+02  0.10627270272E+03  0.00000000000E+00 0. -1.
         -5    1    5    5    0  502  0.78424773777E+02 -0.99716492675E+01  0.23555242234E+03  0.24850938131E+03  0.47000000000E+01 0.  1.
         11    1    6    6    0    0 -0.31712949377E+02 -0.29625854131E+01  0.19970285825E+03  0.20222690143E+03  0.00000000000E+00 0. -1.
        -12    1    6    6    0    0  0.10584422757E+00  0.76080191536E+02  0.24415282756E+03  0.25573191031E+03  0.00000000000E+00 0.  1.
</event>
<event>
12    1  0.1032880E+000  0.1990516E+03  0.7818608E-02  0.1150886E+00
         21   -1    0    0  503  502  0.00000000000E+00  0.00000000000E+00  0.22471255222E+03  0.22471255222E+03  0.00000000000E+00 0. -1.
         21   -1    0    0  501  503 -0.00000000000E+00 -0.00000000000E+00 -0.20269540861E+03  0.20269540861E+03  0.00000000000E+00 0. -1.
          6    2    1    2  501    0 -0.16837282618E+02  0.95571355598E+02  0.90192153403E+02  0.21853187327E+03  0.17379348953E+03 0.  0.
         24    2    3    3    0    0  0.40495377726E+02  0.10278741489E+03  0.40037850406E+02  0.14187256488E+03  0.79496332777E+02 0.  0.
         -6    2    1    2    0  502  0.16837282618E+02 -0.95571355598E+02 -0.68175009790E+02  0.20887608756E+03  0.17194187942E+03 0.  0.
        -24    2    5    5    0    0  0.77360600734E+02 -0.70576903529E+02 -0.46971357018E+02  0.13988710611E+03  0.79977073085E+02 0.  0.
          5    1    3    3  501    0 -0.57332660344E+02 -0.72160592899E+01  0.50154302997E+02  0.76659308390E+02  0.47000000000E+01 0. -1.
        -11    1    4    4    0    0  0.33388508918E+02  0.10105564486E+03  0.55021200456E+01  0.10657067707E+03  0.00000000000E+00 0.  1.
         12    1    4    4    0    0  0.71068688085E+01  0.17317700262E+01  0.34535730361E+02  0.35301887814E+02  0.00000000000E+00 0. -1.
         -5    1    5    5    0  502 -0.60523318116E+02 -0.24994452069E+02 -0.21203652772E+02  0.68988981446E+02  0.47000000000E+01 0.  1.
         13    1    6    6    0    0  0.31004735867E+02  0.69729647249E+01 -0.37331084163E+02  0.49025765961E+02  0.00000000000E+00 0. -1.
        -14    1    6    6    0    0  0.46355864867E+02 -0.77549868254E+02 -0.96402728545E+01  0.90861340154E+02  0.00000000000E+00 0.  1.
</event>
<event>
12    1  0.1032880E+000  0.3078058E+03  0.7818608E-02  0.1081532E+00
         21   -1    0    0  501  502  0.00000000000E+00  0.00000000000E+00  0.46853352895E+03  0.46853352895E+03  0.00000000000E+00 0. -1.
         21   -1    0    0  502  503 -0.00000000000E+00 -0.00000000000E+00 -0.20405362148E+03  0.20405362148E+03  0.00000000000E+00 0. -1.
         -6    2    1    2    0  503  0.24979692024E+03 -0.43769125157E+02  0.16997811041E+03  0.35162045142E+03  0.17444238637E+03 0.  0.
        -24    2    3    3    0    0  0.18507763498E+03  0.13064517235E+02  0.57863572942E+02  0.21016230106E+03  0.79972414833E+02 0.  0.
          6    2    1    2  501    0 -0.24979692024E+03  0.43769125157E+02  0.94501797060E+02  0.32096669900E+03  0.17255374392E+03 0.  0.
         24    2    5    5    0    0 -0.22937445807E+03  0.79930261025E+02  0.10668015734E+03  0.27743387038E+03  0.81162847533E+02 0.  0.
          5    1    5    5  501    0 -0.20422462166E+02 -0.36161135868E+02 -0.12178360283E+02  0.43532828616E+02  0.47000000000E+01 0. -1.
        -11    1    6    6    0    0 -0.17307045637E+03  0.81524805908E+02  0.11058480936E+03  0.22097211794E+03  0.00000000000E+00 0.  1.
         12    1    6    6    0    0 -0.56304001702E+02 -0.15945448830E+01 -0.39046520160E+01  0.56461752439E+02  0.00000000000E+00 0. -1.
         -5    1    3    3    0  503  0.64719285261E+02 -0.56833642392E+02  0.11211453747E+03  0.14145815036E+03  0.47000000000E+01 0.  1.
         11    1    4    4    0    0  0.15479218863E+03 -0.60754413676E+01  0.17037440675E+02  0.15584545881E+03  0.00000000000E+00 0. -1.
        -12    1    4    4    0    0  0.30285446351E+02  0.19139958602E+02  0.40826132267E+02  0.54316842249E+02  0.00000000000E+00 0.  1.
</event>
<event>
12    1  0.1032880E+000  0.4795524E+03  0.7818608E-02  0.1019278E+00
         21   -1    0    0  501  502  0.00000000000E+00  0.00000000000E+00  0.13753726030E+03  0.13753726030E+03  0.00000000000E+00 0. -1.
         21   -1    0    0  502  503 -0.00000000000E+00 -0.00000000000E+00 -0.16953616786E+04  0.16953616786E+04  0.00000000000E+00 0. -1.
         -6    2    1    2    0  503  0.42244119639E+03  0.14810192248E+03 -0.88843447305E+03  0.10094589631E+04  0.17117488543E+03 0.  0.
        -24    2    3    3    0    0  0.11939899609E+03  0.79462762388E+01 -0.30644180444E+03  0.33847778850E+03  0.79632720819E+02 0.  0.
          6    2    1    2  501    0 -0.42244119639E+03 -0.14810192248E+03 -0.66938994526E+03  0.82343997581E+03  0.17198764812E+03 0.  0.
         24    2    5    5    0    0 -0.15188283860E+03 -0.66573700417E+02 -0.36102658679E+03  0.40515929636E+03  0.79456936793E+02 0.  0.
          5    1    5    5  501    0 -0.27055835779E+03 -0.81528222062E+02 -0.30836335846E+03  0.41828067946E+03  0.47000000000E+01 0. -1.
        -11    1    6    6    0    0 -0.12354691945E+03 -0.75109511867E+02 -0.23676171682E+03  0.27741916054E+03  0.00000000000E+00 0.  1.
         12    1    6    6    0    0 -0.28335919148E+02  0.85358114503E+01 -0.12426486997E+03  0.12774013582E+03  0.00000000000E+00 0. -1.
         -5    1    3    3    0  503  0.30304220030E+03  0.14015564624E+03 -0.58199266861E+03  0.67098117459E+03  0.47000000000E+01 0.  1.
         11    1    4    4    0    0 -0.18472057223E+01  0.17444076382E+02 -0.75040748825E+02  0.77063752530E+02  0.00000000000E+00 0. -1.
        -12    1    4    4    0    0  0.12124620181E+03 -0.94978001429E+01 -0.23140105561E+03  0.26141403597E+03  0.00000000000E+00 0.  1.
</event>
<event>
12    1  0.1032880E+000  0.1727776E+03  0.7818608E-02  0.1179758E+00
         21   -1    0    0  501  502  0.00000000000E+00  0.00000000000E+00  0.54028194245E+02  0.54028194245E+02  0.00000000000E+00 0. -1.
         21   -1    0    0  502  503 -0.00000000000E+00 -0.00000000000E+00 -0.49749065790E+03  0.49749065790E+03  0.00000000000E+00 0. -1.
         -6    2    1    2    0  503  0.26089308324E+02  0.37230401171E+01 -0.21127081167E+03  0.26209689052E+03  0.15285585078E+03 0.  0.
        -24    2    3    3    0    0 -0.66608483512E+01 -0.59250816152E+01 -0.21279406999E+03  0.22759950901E+03  0.80254263349E+02 0.  0.
          6    2    1    2  501    0 -0.26089308324E+02 -0.37230401171E+01 -0.23219165198E+03  0.28942196162E+03  0.17075595329E+03 0.  0.
         24    2    5    5    0    0 -0.76340586976E+02  0.52205232752E+01 -0.10276410878E+03  0.15021435669E+03  0.78413977195E+02 0.  0.
          5    1    5    5  501    0  0.50251278652E+02 -0.89435633923E+01 -0.12942754320E+03  0.13920760494E+03  0.47000000000E+01 0. -1.
        -11    1    6    6    0    0 -0.13951691708E+02 -0.71746742889E+01  0.11490925178E+02  0.19446516761E+02  0.00000000000E+00 0.  1.
         12    1    6    6    0    0 -0.62388895268E+02  0.12395197564E+02 -0.11425503395E+03  0.13076783993E+03  0.00000000000E+00 0. -1.
         -5    1    3    3    0  503  0.32750156675E+02  0.96481217323E+01  0.15232583149E+01  0.34497381511E+02  0.47000000000E+01 0.  1.
         13    1    4    4    0    0  0.30472210692E+02 -0.22331804117E+02 -0.75427491198E+02  0.84359774348E+02  0.00000000000E+00 0. -1.
        -14    1    4    4    0    0 -0.37133059043E+02  0.16406722502E+02 -0.13736657879E+03  0.14323973466E+03  0.00000000000E+00 0.  1.
</event>
<event>
12    1  0.1032880E+000  0.2365177E+03  0.7818608E-02  0.1122324E+00
         21   -1    0    0  503  502  0.00000000000E+00  0.00000000000E+00  0.93565492061E+02  0.93565492061E+02  0.00000000000E+00 0.  1.
         21   -1    0    0  501  503 -0.00000000000E+00 -0.00000000000E+00 -0.59797091765E+03  0.59797091765E+03  0.00000000000E+00 0. -1.
          6    2    1    2  501    0 -0.41420650369E+02 -0.15595161958E+03 -0.22751636989E+03  0.32738234919E+03  0.17140281812E+03 0.  0.
         24    2    3    3    0    0 -0.47570135131E+02 -0.21909631001E+02 -0.13003024875E+03  0.16145855740E+03  0.80112736063E+02 0.  0.
         -6    2    1    2    0  502  0.41420650369E+02  0.15595161958E+03 -0.27688905569E+03  0.36415406052E+03  0.17292788297E+03 0.  0.
        -24    2    5    5    0    0  0.11164308092E+01  0.42489996089E+02 -0.34739130469E+02  0.93679206969E+02  0.75910081328E+02 0.  0.
          5    1    3    3  501    0  0.61494847627E+01 -0.13404198858E+03 -0.97486121140E+02  0.16592379179E+03  0.47000000000E+01 0. -1.
        -11    1    4    4    0    0 -0.24337792443E+02 -0.41667075008E+02 -0.29853661279E+02  0.56742527020E+02  0.00000000000E+00 0.  1.
         12    1    4    4    0    0 -0.23232342688E+02  0.19757444007E+02 -0.10017658748E+03  0.10471603038E+03  0.00000000000E+00 0. -1.
         -5    1    5    5    0  502  0.40304219559E+02  0.11346162349E+03 -0.24214992522E+03  0.27047485355E+03  0.47000000000E+01 0.  1.
         11    1    6    6    0    0  0.63724203886E+01  0.25004956688E+01 -0.50065988991E+02  0.50531806556E+02  0.00000000000E+00 0. -1.
        -12    1    6    6    0    0 -0.52559895794E+01  0.39989500420E+02  0.15326858521E+02  0.43147400414E+02  0.00000000000E+00 0.  1.
</event>
<event>
12    1  0.1032880E+000  0.1885174E+03  0.7818608E-02  0.1161401E+00
         21   -1    0    0  501  502  0.00000000000E+00  0.00000000000E+00  0.55028437731E+03  0.55028437731E+03  0.00000000000E+00 0.  1.
         21   -1    0    0  502  503 -0.00000000000E+00 -0.00000000000E+00 -0.13357633231E+03  0.13357633231E+03  0.00000000000E+00 0.  1.
         -6    2    1    2    0  503  0.16971077806E+02 -0.62129773142E+02 -0.39682493393E+02  0.19264866017E+03  0.17717415102E+03 0.  0.
        -24    2    3    3    0    0 -0.52771826746E+02 -0.53905836292E+02 -0.51707201482E+02  0.12124565269E+03  0.79600054814E+02 0.  0.
          6    2    1    2  501    0 -0.16971077806E+02  0.62129773142E+02  0.45639053840E+03  0.49121204945E+03  0.16984942684E+03 0.  0.
         24    2    5    5    0    0 -0.34549862434E+02 -0.43576820668E+01  0.37219398735E+03  0.38239686404E+03  0.80537662110E+02 0.  0.
          5    1    5    5  501    0  0.17578784628E+02  0.66487455209E+02  0.84196551048E+02  0.10881518542E+03  0.47000000000E+01 0. -1.
        -11    1    6    6    0    0  0.15583256661E+01 -0.29064438360E+02  0.55254972533E+02  0.62452237315E+02  0.00000000000E+00 0.  1.
         12    1    6    6    0    0 -0.36108188100E+02  0.24706756293E+02  0.31693901482E+03  0.31994462672E+03  0.00000000000E+00 0. -1.
         -5    1    3    3    0  503  0.69742904552E+02 -0.82239368503E+01  0.12024708089E+02  0.71403007481E+02  0.47000000000E+01 0.  1.
         13    1    4    4    0    0  0.19267623133E+01 -0.69036782312E+01 -0.48530363692E+02  0.49056797554E+02  0.00000000000E+00 0. -1.
        -14    1    4    4    0    0 -0.54698589059E+02 -0.47002158061E+02 -0.31768377901E+01  0.72188855135E+02  0.00000000000E+00 0.  1.
</event>
<event>
12    1  0.1032880E+000  0.1897747E+03  0.7818608E-02  0.1163266E+00
         21   -1    0    0  503  502  0.00000000000E+00  0.00000000000E+00  0.36215254906E+02  0.36215254906E+02  0.00000000000E+00 0.  1.
         21   -1    0    0  501  503 -0.00000000000E+00 -0.00000000000E+00 -0.89823224943E+03  0.89823224943E+03  0.00000000000E+00 0.  1.
          6    2    1    2  501    0  0.26476611070E+02  0.72396820009E+02 -0.47638816564E+03  0.51279637572E+03  0.17341317167E+03 0.  0.
         24    2    3    3    0    0 -0.38694127709E+02  0.37885663798E+02 -0.37275470609E+03  0.38551625538E+03  0.82122793466E+02 0.  0.
         -6    2    1    2    0  502 -0.26476611070E+02 -0.72396820009E+02 -0.38562882889E+03  0.42165112862E+03  0.15211104534E+03 0.  0.
        -24    2    5    5    0    0  0.47254937815E+01 -0.39607423490E+02 -0.35723659232E+03  0.36801415472E+03  0.78900930908E+02 0.  0.
          5    1    3    3  501    0  0.65170738779E+02  0.34511156211E+02 -0.10363345954E+03  0.12728012034E+03  0.47000000000E+01 0. -1.
        -13    1    4    4    0    0 -0.15903176934E+01  0.56161702134E+02 -0.23886041079E+03  0.24537922027E+03  0.00000000000E+00 0.  1.
         14    1    4    4    0    0 -0.37103810015E+02 -0.18276038336E+02 -0.13389429530E+03  0.14013703511E+03  0.00000000000E+00 0. -1.
         -5    1    5    5    0  502 -0.31202104852E+02 -0.32789396519E+02 -0.28392236568E+02  0.53636973895E+02  0.47000000000E+01 0.  1.
         13    1    6    6    0    0 -0.37704224365E+01 -0.49021552951E+02 -0.11041324074E+03  0.12086526577E+03  0.00000000000E+00 0. -1.
        -14    1    6    6    0    0  0.84959162180E+01  0.94141294617E+01 -0.24682335158E+03  0.24714888895E+03  0.00000000000E+00 0.  1.
</event>
<event>
12    1  0.1032880E+000  0.2376648E+03  0.7818608E-02  0.1122062E+00
         21   -1    0    0  501  502  0.00000000000E+00  0.00000000000E+00  0.99845997530E+02  0.99845997530E+02  0.00000000000E+00 0. -1.
         21   -1    0    0  502  503 -0.00000000000E+00 -0.00000000000E+00 -0.63509523297E+03  0.63509523297E+03  0.00000000000E+00 0. -1.
         -6    2    1    2    0  503  0.12153454119E+03  0.10225718493E+03 -0.13582771655E+03  0.27015945423E+03  0.17120100921E+03 0.  0.
        -24    2    3    3    0    0  0.15076133038E+03  0.98669863091E+02 -0.89706899446E+02  0.21523865804E+03  0.76260287733E+02 0.  0.
          6    2    1    2  501    0 -0.12153454119E+03 -0.10225718493E+03 -0.39942151889E+03  0.46478177627E+03  0.17679754870E+03 0.  0.
         24    2    5    5    0    0 -0.13632708360E+03 -0.30185287759E+02 -0.23667432650E+03  0.28611472194E+03  0.79691103433E+02 0.  0.
          5    1    5    5  501    0  0.14792542404E+02 -0.72071897171E+02 -0.16274719239E+03  0.17866705433E+03  0.47000000000E+01 0. -1.
        -13    1    6    6    0    0 -0.63793239199E+02 -0.50224927070E+02 -0.15553485180E+03  0.17545144853E+03  0.00000000000E+00 0.  1.
         14    1    6    6    0    0 -0.72533844400E+02  0.20039639311E+02 -0.81139474704E+02  0.11066327341E+03  0.00000000000E+00 0. -1.
         -5    1    3    3    0  503 -0.29226789185E+02  0.35873218385E+01 -0.46120817103E+02  0.54920796192E+02  0.47000000000E+01 0.  1.
         13    1    4    4    0    0  0.65567882038E+02  0.27448162272E+01 -0.17072329702E+02  0.67809627728E+02  0.00000000000E+00 0. -1.
        -14    1    4    4    0    0  0.85193448342E+02  0.95925046864E+02 -0.72634569743E+02  0.14742903031E+03  0.00000000000E+00 0.  1.
</event>
<event>
12    1  0.1032880E+000  0.2430721E+03  0.7818608E-02  0.1117958E+00
         21   -1    0    0  501  502  0.00000000000E+00  0.00000000000E+00  0.67307011341E+03  0.67307011341E+03  0.00000000000E+00 0. -1.
         21   -1    0    0  502  503 -0.00000000000E+00 -0.00000000000E+00 -0.87862128841E+02  0.87862128841E+02  0.00000000000E+00 0. -1.
         -6    2    1    2    0  503  0.16338037866E+03 -0.52188368752E+02  0.32078597286E+03  0.40176231460E+03  0.17056536309E+03 0.  0.
        -24    2    3    3    0    0  0.15502278483E+03  0.13745423738E+02  0.22777848762E+03  0.28735253933E+03  0.80420407533E+02 0.  0.
          6    2    1    2  501    0 -0.16338037866E+03  0.52188368752E+02  0.26442201171E+03  0.35916992765E+03  0.17224187263E+03 0.  0.
         24    2    5    5    0    0 -0.17696478285E+03  0.46384724271E+02  0.27591580367E+03  0.33987185572E+03  0.76910796259E+02 0.  0.
          5    1    5    5  501    0  0.13584404185E+02  0.58036444810E+01 -0.11493791967E+02  0.19298071927E+02  0.47000000000E+01 0. -1.
        -11    1    6    6    0    0 -0.11616908817E+03  0.65690042493E+02  0.20363422302E+03  0.24346937284E+03  0.00000000000E+00 0.  1.
         12    1    6    6    0    0 -0.60795694678E+02 -0.19305318222E+02  0.72281580656E+02  0.96402482879E+02  0.00000000000E+00 0. -1.
         -5    1    3    3    0  503  0.83575938353E+01 -0.65933792491E+02  0.93007485246E+02  0.11440977528E+03  0.47000000000E+01 0.  1.
         11    1    4    4    0    0  0.98377544703E+01 -0.86768229452E+01  0.72175454110E+02  0.73357786536E+02  0.00000000000E+00 0. -1.
        -12    1    4    4    0    0  0.14518503036E+03  0.22422246684E+02  0.15560303351E+03  0.21399475279E+03  0.00000000000E+00 0.  1.
</event>
<event>
12    1  0.1032880E+000  0.1912334E+03  0.7818608E-02  0.1157562E+00
         21   -1    0    0  503  502  0.00000000000E+00  0.00000000000E+00  0.10516639742E+04  0.10516639742E+04  0.00000000000E+00 0.  1.
         21   -1    0    0  501  503 -0.00000000000E+00 -0.00000000000E+00 -0.42321636468E+02  0.42321636468E+02  0.00000000000E+00 0.  1.
          6    2    1    2  501    0 -0.54670571474E+02  0.64552034676E+02  0.27008658956E+03  0.33039587170E+03  0.17046650584E+03 0.  0.
         24    2    3    3    0    0 -0.14852049699E+02  0.20657621472E+02  0.25548015950E+03  0.26917763924E+03  0.80865127604E+02 0.  0.
         -6    2    1    2    0  502  0.54670571474E+02 -0.64552034676E+02  0.73925574817E+03  0.76358973896E+03  0.17150624383E+03 0.  0.
        -24    2    5    5    0    0  0.39974018434E+02  0.24754548114E+02  0.52237351025E+03  0.52853304468E+03  0.65286945877E+02 0.  0.
          5    1    3    3  501    0 -0.39818521775E+02  0.43894413204E+02  0.14606430051E+02  0.61218232461E+02  0.47000000000E+01 0. -1.
        -11    1    4    4    0    0 -0.45394128347E+02  0.27007223308E+02  0.14267794519E+03  0.15214142448E+03  0.00000000000E+00 0.  1.
         12    1    4    4    0    0  0.30542078648E+02 -0.63496018363E+01  0.11280221431E+03  0.11703621476E+03  0.00000000000E+00 0. -1.
         -5    1    5    5    0  502  0.14696553040E+02 -0.89306582790E+02  0.21688223792E+03  0.23505669428E+03  0.47000000000E+01 0.  1.
         13    1    6    6    0    0 -0.16164639811E+02  0.10277532262E+02  0.74515749985E+02  0.76938418527E+02  0.00000000000E+00 0. -1.
        -14    1    6    6    0    0  0.56138658245E+02  0.14477015852E+02  0.44785776027E+03  0.45159462615E+03  0.00000000000E+00 0.  1.
</event>
<event>
12    1  0.1032880E+000  0.1740730E+03  0.7818608E-02  0.1173763E+00
         21   -1    0    0  501  502  0.00000000000E+00  0.00000000000E+00  0.57529280351E+03  0.57529280351E+03  0.00000000000E+00 0.  1.
         21   -1    0    0  502  503 -0.00000000000E+00 -0.00000000000E+00 -0.53014005568E+02  0.53014005568E+02  0.00000000000E+00 0.  1.
         -6    2    1    2    0  503 -0.93416819983E+01  0.21604560308E+02  0.29065842985E+03  0.33879748880E+03  0.17247432135E+03 0.  0.
        -24    2    3    3    0    0  0.27123843140E+02 -0.25351768070E+02  0.76461163113E+02  0.11645273313E+03  0.79602227211E+02 0.  0.
          6    2    1    2  501    0  0.93416819983E+01 -0.21604560308E+02  0.23162036809E+03  0.28950932028E+03  0.17208610509E+03 0.  0.
         24    2    5    5    0    0  0.48020683141E+02 -0.60748076805E+02  0.11252341264E+03  0.15822925777E+03  0.79866543549E+02 0.  0.
          5    1    5    5  501    0 -0.38679001143E+02  0.39143516497E+02  0.11909695545E+03  0.13128006251E+03  0.47000000000E+01 0. -1.
        -11    1    6    6    0    0  0.39708849337E+02  0.72295173176E+01  0.58150964279E+02  0.70785544307E+02  0.00000000000E+00 0.  1.
         12    1    6    6    0    0  0.83118338038E+01 -0.67977594123E+02  0.54372448359E+02  0.87443713465E+02  0.00000000000E+00 0. -1.
         -5    1    3    3    0  503 -0.36465525139E+02  0.46956328378E+02  0.21419726674E+03  0.22234475567E+03  0.47000000000E+01 0.  1.
         13    1    4    4    0    0  0.17990341176E+02  0.26095074538E+02  0.13023745183E+02  0.34266940764E+02  0.00000000000E+00 0. -1.
        -14    1    4    4    0    0  0.91335019645E+01 -0.51446842608E+02  0.63437417931E+02  0.82185792362E+02  0.00000000000E+00 0.  1.
</event>
