<event>
12    1  0.8226261E-002  0.2026977E+03  0.7818608E-02  0.1148229E+00
         21   -1    0    0  501  502  0.00000000000E+00  0.00000000000E+00  0.27464356158E+03  0.27464356158E+03  0.00000000000E+00 0. -1.
         21   -1    0    0  502  503 -0.00000000000E+00 -0.00000000000E+00 -0.23169301371E+03  0.23169301371E+03  0.00000000000E+00 0. -1.
         -6    2    1    2    0  503 -0.89707921452E+02  0.44072115175E+02 -0.13172716737E+03  0.23875734825E+03  0.17222996897E+03 0.  0.
        -24    2    3    3    0    0 -0.89680907160E+02  0.72523850283E+02 -0.44357288351E+02  0.14675143691E+03  0.79158330180E+02 0.  0.
          6    2    1    2  501    0  0.89707921452E+02 -0.44072115175E+02  0.17467771524E+03  0.26757922705E+03  0.17634192933E+03 0.  0.
         24    2    5    5    0    0  0.17086121227E+02  0.24407561726E+02  0.31226300922E+02  0.92754199417E+02  0.82101126863E+02 0.  0.
          5    1    5    5  501    0  0.72621800225E+02 -0.68479676901E+02  0.14345141432E+03  0.17482502763E+03  0.47000000000E+01 0. -1.
        -11    1    6    6    0    0  0.23585039464E+02  0.52812954500E+02  0.16746548880E+02  0.60215522491E+02  0.00000000000E+00 0.  1.
         12    1    6    6    0    0 -0.64989182370E+01 -0.28405392773E+02  0.14479752043E+02  0.32538676926E+02  0.00000000000E+00 0. -1.
         -5    1    3    3    0  503 -0.27014291881E-01 -0.28451735108E+02 -0.87369879021E+02  0.92005911335E+02  0.47000000000E+01 0.  1.
         13    1    4    4    0    0 -0.80819240956E+02  0.17107763692E+02 -0.35590778628E+02  0.89950702113E+02  0.00000000000E+00 0. -1.
        -14    1    4    4    0    0 -0.88616662037E+01  0.55416086590E+02 -0.87665097232E+01  0.56800734798E+02  0.00000000000E+00 0.  1.
</event>
<event>
12    1  0.8226261E-002  0.1994251E+03  0.7818608E-02  0.1150345E+00
         21   -1    0    0  501  502  0.00000000000E+00  0.00000000000E+00  0.84797915667E+03  0.84797915667E+03  0.00000000000E+00 0. -1.
         21   -1    0    0  502  503 -0.00000000000E+00 -0.00000000000E+00 -0.34055302976E+03  0.34055302976E+03  0.00000000000E+00 0.  1.
         -6    2    1    2    0  503  0.10027942771E+03  0.87266676955E+01 -0.29819298718E+03  0.35873308635E+03  0.17215763500E+03 0.  0.
        -24    2    3    3    0    0  0.49936189691E+02  0.67582245613E+02 -0.13728871259E+03  0.18009743412E+03  0.80783118345E+02 0.  0.
          6    2    1    2  501    0 -0.10027942771E+03 -0.87266676955E+01  0.80561911409E+03  0.82979910007E+03  0.17150006161E+03 0.  0.
         24    2    5    5    0    0  0.14589727246E+02  0.31968974106E+02  0.19763441162E+03  0.20970350545E+03  0.60673916110E+02 0.  0.
          5    1    5    5  501    0 -0.11486915496E+03 -0.40695641802E+02  0.60798470247E+03  0.62009559462E+03  0.47000000000E+01 0. -1.
        -11    1    6    6    0    0  0.18700946857E+02 -0.10726820857E+02  0.11050369479E+03  0.11258710699E+03  0.00000000000E+00 0.  1.
         12    1    6    6    0    0 -0.41112196117E+01  0.42695794963E+02  0.87130716833E+02  0.97116398461E+02  0.00000000000E+00 0. -1.
         -5    1    3    3    0  503  0.50343238022E+02 -0.58855577917E+02 -0.16090427459E+03  0.17863565223E+03  0.47000000000E+01 0.  1.
         11    1    4    4    0    0  0.72146321219E+02  0.56979540160E+02 -0.10698328506E+03  0.14105737465E+03  0.00000000000E+00 0. -1.
        -12    1    4    4    0    0 -0.22210131527E+02  0.10602705453E+02 -0.30305427532E+02  0.39040059468E+02  0.00000000000E+00 0.  1.
</event>
<event>
12    1  0.8226261E-002  0.1883303E+03  0.7818608E-02  0.1160103E+00
         21   -1    0    0  503  502  0.00000000000E+00  0.00000000000E+00  0.95846370573E+03  0.95846370573E+03  0.00000000000E+00 0. -1.
         21   -1    0    0  501  503 -0.00000000000E+00 -0.00000000000E+00 -0.57470042954E+02  0.57470042954E+02  0.00000000000E+00 0. -1.
          6    2    1    2  501    0 -0.63143729716E+02 -0.45538717897E+02  0.14699583857E+03  0.23890598861E+03  0.17148582860E+03 0.  0.
         24    2    3    3    0    0  0.97031427449E+01 -0.47145911976E+02  0.13648284259E+03  0.16513700472E+03  0.79534747199E+02 0.  0.
         -6    2    1    2    0  502  0.63143729716E+02  0.45538717897E+02  0.75399782421E+03  0.77702776007E+03  0.17087573140E+03 0.  0.
        -24    2    5    5    0    0  0.24401577201E+02 -0.19639392095E+02  0.59269566834E+03  0.59873133304E+03  0.78802989829E+02 0.  0.
          5    1    3    3  501    0 -0.72846872461E+02  0.16071940789E+01  0.10512995979E+02  0.73768983893E+02  0.47000000000E+01 0. -1.
        -11    1    4    4    0    0  0.33370966676E+02 -0.38989000695E+02  0.38907674764E+02  0.64401636218E+02  0.00000000000E+00 0.  1.
         12    1    4    4    0    0 -0.23667823931E+02 -0.81569112808E+01  0.97575167826E+02  0.10073536850E+03  0.00000000000E+00 0. -1.
         -5    1    5    5    0  502  0.38742152514E+02  0.65178109993E+02  0.16130215587E+03  0.17829642703E+03  0.47000000000E+01 0.  1.
         11    1    6    6    0    0  0.38483596168E+02  0.17369443857E+02  0.38383374919E+03  0.38614897613E+03  0.00000000000E+00 0. -1.
        -12    1    6    6    0    0 -0.14082018967E+02 -0.37008835952E+02  0.20886191915E+03  0.21258235691E+03  0.00000000000E+00 0.  1.
</event>
<event>
12    1  0.8226261E-002  0.2182476E+03  0.7818608E-02  0.1135576E+00
         21   -1    0    0  503  502  0.00000000000E+00  0.00000000000E+00  0.55224406896E+03  0.55224406896E+03  0.00000000000E+00 0. -1.
         21   -1    0    0  501  503 -0.00000000000E+00 -0.00000000000E+00 -0.21140969201E+03  0.21140969201E+03  0.00000000000E+00 0. -1.
          6    2    1    2  501    0  0.12111939425E+01  0.13137417681E+03 -0.12397847621E+03  0.25100330181E+03  0.17427378929E+03 0.  0.
         24    2    3    3    0    0 -0.62189226721E+02  0.10787403139E+03 -0.10299360251E+03  0.18005032373E+03  0.79411147498E+02 0.  0.
         -6    2    1    2    0  502 -0.12111939425E+01 -0.13137417681E+03  0.46481285316E+03  0.51265045917E+03  0.17175233185E+03 0.  0.
        -24    2    5    5    0    0  0.15858682520E+02 -0.65231187542E+02  0.12945140217E+03  0.17037035673E+03  0.88101006176E+02 0.  0.
          5    1    3    3  501    0  0.63400420663E+02  0.23500145425E+02 -0.20984873695E+02  0.70952978086E+02  0.47000000000E+01 0. -1.
        -11    1    4    4    0    0 -0.34252373068E+02 -0.54301254145E+00 -0.35440469361E+02  0.49290433067E+02  0.00000000000E+00 0.  1.
         12    1    4    4    0    0 -0.27936853653E+02  0.10841704393E+03 -0.67553133153E+02  0.13075989066E+03  0.00000000000E+00 0. -1.
         -5    1    5    5    0  502 -0.17069876462E+02 -0.66142989270E+02  0.33536145099E+03  0.34228010244E+03  0.47000000000E+01 0.  1.
         11    1    6    6    0    0 -0.32689308970E+02 -0.46494489247E+02  0.51832499733E+02  0.76921625567E+02  0.00000000000E+00 0. -1.
        -12    1    6    6    0    0  0.48547991490E+02 -0.18736698296E+02  0.77618902435E+02  0.93448731162E+02  0.00000000000E+00 0.  1.
</event>
<event>
12    1  0.8226261E-002  0.1945109E+03  0.7818608E-02  0.1154732E+00
         21   -1    0    0  503  502  0.00000000000E+00  0.00000000000E+00  0.10553978435E+04  0.10553978435E+04  0.00000000000E+00 0.  1.
         21   -1    0    0  501  503 -0.00000000000E+00 -0.00000000000E+00 -0.76975186840E+02  0.76975186840E+02  0.00000000000E+00 0.  1.
          6    2    1    2  501    0  0.41160203024E+01  0.88161651709E+02  0.74929472166E+02  0.20844400267E+03  0.17333510319E+03 0.  0.
         24    2    3    3    0    0 -0.24544342071E+02  0.10095979289E+03  0.46552965327E+01  0.13133525771E+03  0.80199586178E+02 0.  0.
         -6    2    1    2    0  502 -0.41160203024E+01 -0.88161651709E+02  0.90349318448E+03  0.92392902765E+03  0.17191711747E+03 0.  0.
        -24    2    5    5    0    0  0.20750620478E+02  0.13165914371E+02  0.30280342362E+03  0.31422753982E+03  0.80281404256E+02 0.  0.
          5    1    3    3  501    0  0.28660362373E+02 -0.12798141184E+02  0.70274175633E+02  0.77108744965E+02  0.47000000000E+01 0. -1.
        -13    1    4    4    0    0 -0.13240532282E+02 -0.33468098615E+01 -0.19371789023E+02  0.23701878434E+02  0.00000000000E+00 0.  1.
         14    1    4    4    0    0 -0.11303809789E+02  0.10430660275E+03  0.24027085556E+02  0.10763337927E+03  0.00000000000E+00 0. -1.
         -5    1    5    5    0  502 -0.24866640780E+02 -0.10132756608E+03  0.60068976086E+03  0.60970148784E+03  0.47000000000E+01 0.  1.
         11    1    6    6    0    0  0.27454097533E+01  0.19966041264E+02  0.29090030712E+03  0.29159761446E+03  0.00000000000E+00 0. -1.
        -12    1    6    6    0    0  0.18005210725E+02 -0.68001268938E+01  0.11903116506E+02  0.22629925355E+02  0.00000000000E+00 0.  1.
</event>
<event>
12    1  0.8226261E-002  0.1952427E+03  0.7818608E-02  0.1154521E+00
         21   -1    0    0  503  502  0.00000000000E+00  0.00000000000E+00  0.24177463900E+03  0.24177463900E+03  0.00000000000E+00 0. -1.
         21   -1    0    0  501  503 -0.00000000000E+00 -0.00000000000E+00 -0.38334364403E+03  0.38334364403E+03  0.00000000000E+00 0. -1.
          6    2    1    2  501    0  0.10215123493E+02 -0.95025380595E+02 -0.31220480766E+03  0.36822756993E+03  0.17025137187E+03 0.  0.
         24    2    3    3    0    0 -0.51869499315E+02 -0.76766922781E+02 -0.25023309347E+03  0.27850324195E+03  0.79773738270E+02 0.  0.
         -6    2    1    2    0  502 -0.10215123493E+02  0.95025380595E+02  0.17063580264E+03  0.25689071310E+03  0.16655956782E+03 0.  0.
        -24    2    5    5    0    0 -0.42684569671E+02  0.11728620651E+03  0.11035185956E+03  0.18473772911E+03  0.79827745315E+02 0.  0.
          5    1    3    3  501    0  0.62084622808E+02 -0.18258457814E+02 -0.61971714196E+02  0.89724327980E+02  0.47000000000E+01 0. -1.
        -11    1    4    4    0    0 -0.53500307743E+01 -0.41455889681E+02 -0.32145336266E+02  0.52730790456E+02  0.00000000000E+00 0.  1.
         12    1    4    4    0    0 -0.46519468541E+02 -0.35311033100E+02 -0.21808775720E+03  0.22577245149E+03  0.00000000000E+00 0. -1.
         -5    1    5    5    0  502  0.32469446177E+02 -0.22260825920E+02  0.60283943082E+02  0.72152983993E+02  0.47000000000E+01 0.  1.
         13    1    6    6    0    0 -0.64331021228E+02  0.10406187739E+03  0.96616940313E+02  0.15589158981E+03  0.00000000000E+00 0. -1.
        -14    1    6    6    0    0  0.21646451557E+02  0.13224329125E+02  0.13734919243E+02  0.28846139299E+02  0.00000000000E+00 0.  1.
</event>
<event>
12    1  0.8226261E-002  0.1906744E+03  0.7818608E-02  0.1157864E+00
         21   -1    0    0  503  502  0.00000000000E+00  0.00000000000E+00  0.41048088025E+03  0.41048088025E+03  0.00000000000E+00 0. -1.
         21   -1    0    0  501  503 -0.00000000000E+00 -0.00000000000E+00 -0.11351166859E+03  0.11351166859E+03  0.00000000000E+00 0. -1.
          6    2    1    2  501    0 -0.94092632776E+00  0.82569490397E+02  0.25614123239E+02  0.19234469894E+03  0.17181907291E+03 0.  0.
         24    2    3    3    0    0  0.56522425228E+02  0.11857327845E+02  0.37253177353E+02  0.10036750457E+03  0.73146811089E+02 0.  0.
         -6    2    1    2    0  502  0.94092632776E+00 -0.82569490397E+02  0.27135508843E+03  0.33164784990E+03  0.17186653612E+03 0.  0.
        -24    2    5    5    0    0  0.65260123716E+02 -0.51195134885E+02  0.13335486444E+03  0.17612466462E+03  0.79727987782E+02 0.  0.
          5    1    3    3  501    0 -0.57463351556E+02  0.70712162553E+02 -0.11639054114E+02  0.91977194377E+02  0.47000000000E+01 0. -1.
        -13    1    4    4    0    0  0.53815892551E+02  0.11030719508E+02 -0.75710649142E+01  0.55454017779E+02  0.00000000000E+00 0.  1.
         14    1    4    4    0    0  0.27065326772E+01  0.82660833686E+00  0.44824242267E+02  0.44913486786E+02  0.00000000000E+00 0. -1.
         -5    1    5    5    0  502 -0.64319197389E+02 -0.31374355512E+02  0.13800022399E+03  0.15552318527E+03  0.47000000000E+01 0.  1.
         13    1    6    6    0    0  0.50623348487E+02 -0.60500579795E+02  0.13728945513E+03  0.15833962883E+03  0.00000000000E+00 0. -1.
        -14    1    6    6    0    0  0.14636775229E+02  0.93054449103E+01 -0.39345906976E+01  0.17785035790E+02  0.00000000000E+00 0.  1.
</event>
<event>
12    1  0.8226261E-002  0.1729944E+03  0.7818608E-02  0.1175253E+00
         21   -1    0    0  501  502  0.00000000000E+00  0.00000000000E+00  0.63253729620E+03  0.63253729620E+03  0.00000000000E+00 0. -1.
         21   -1    0    0  502  503 -0.00000000000E+00 -0.00000000000E+00 -0.56501081971E+02  0.56501081971E+02  0.00000000000E+00 0. -1.
         -6    2    1    2    0  503 -0.20910433009E+02  0.16147160350E+02  0.14651480115E+03  0.22670166351E+03  0.17096514348E+03 0.  0.
        -24    2    3    3    0    0 -0.29432374636E+02 -0.87846348838E+01  0.17006674024E+03  0.19105055220E+03  0.81450493401E+02 0.  0.
          6    2    1    2  501    0  0.20910433009E+02 -0.16147160350E+02  0.42952141308E+03  0.46233671466E+03  0.16902253233E+03 0.  0.
         24    2    5    5    0    0 -0.82085033515E+00 -0.50276307402E+02  0.39978675606E+03  0.41190570057E+03  0.85489619013E+02 0.  0.
          5    1    5    5  501    0  0.21731283345E+02  0.34129147052E+02  0.29734657018E+02  0.50431014091E+02  0.47000000000E+01 0. -1.
        -13    1    6    6    0    0  0.33587668309E+02 -0.44905966057E+02  0.31961084197E+03  0.32449309323E+03  0.00000000000E+00 0.  1.
         14    1    6    6    0    0 -0.34408518644E+02 -0.53703413446E+01  0.80175914088E+02  0.87412607336E+02  0.00000000000E+00 0. -1.
         -5    1    3    3    0  503  0.85219416269E+01  0.24931795234E+02 -0.23551939087E+02  0.35651111307E+02  0.47000000000E+01 0.  1.
         13    1    4    4    0    0 -0.15246280418E+02 -0.45228330374E+02  0.86786116441E+02  0.99044843086E+02  0.00000000000E+00 0. -1.
        -14    1    4    4    0    0 -0.14186094219E+02  0.36443695490E+02  0.83280623796E+02  0.92005709116E+02  0.00000000000E+00 0.  1.
</event>
<event>
12    1  0.8226261E-002  0.2292647E+03  0.7818608E-02  0.1127369E+00
         21   -1    0    0  503  502  0.00000000000E+00  0.00000000000E+00  0.71876280425E+02  0.71876280425E+02  0.00000000000E+00 0. -1.
         21   -1    0    0  501  503 -0.00000000000E+00 -0.00000000000E+00 -0.74542169367E+03  0.74542169367E+03  0.00000000000E+00 0.  1.
          6    2    1    2  501    0 -0.40780269770E+02 -0.14649642773E+03 -0.27256721857E+03  0.35540422204E+03  0.16998540721E+03 0.  0.
         24    2    3    3    0    0  0.68080806465E+01 -0.12634234191E+03 -0.26384930652E+03  0.30278359623E+03  0.77799179126E+02 0.  0.
         -6    2    1    2    0  502  0.40780269770E+02  0.14649642773E+03 -0.40097819468E+03  0.46189375206E+03  0.17157532411E+03 0.  0.
        -24    2    5    5    0    0 -0.36341904489E+02  0.37713953701E+02 -0.15978325631E+03  0.18625169302E+03  0.80099487071E+02 0.  0.
          5    1    3    3  501    0 -0.47588350416E+02 -0.20154085817E+02 -0.87179120528E+01  0.52620625813E+02  0.47000000000E+01 0. -1.
        -11    1    4    4    0    0 -0.14786849753E+02 -0.11157589299E+03 -0.15955213265E+03  0.19525550915E+03  0.00000000000E+00 0.  1.
         12    1    4    4    0    0  0.21594930400E+02 -0.14766448922E+02 -0.10429717387E+03  0.10752808707E+03  0.00000000000E+00 0. -1.
         -5    1    5    5    0  502  0.77122174258E+02  0.10878247403E+03 -0.24119493837E+03  0.27564205904E+03  0.47000000000E+01 0.  1.
         11    1    6    6    0    0  0.17240244796E+02 -0.90052447952E+01 -0.64513112203E+02  0.67381467189E+02  0.00000000000E+00 0. -1.
        -12    1    6    6    0    0 -0.53582149285E+02  0.46719198496E+02 -0.95270144105E+02  0.11887022583E+03  0.00000000000E+00 0.  1.
</event>
<event>
12    1  0.8226261E-002  0.1847985E+03  0.7818608E-02  0.1164601E+00
         21   -1    0    0  503  502  0.00000000000E+00  0.00000000000E+00  0.22457840034E+03  0.22457840034E+03  0.00000000000E+00 0. -1.
         21   -1    0    0  501  503 -0.00000000000E+00 -0.00000000000E+00 -0.27380089124E+03  0.27380089124E+03  0.00000000000E+00 0.  1.
          6    2    1    2  501    0  0.41539665940E+02 -0.55858722838E+02 -0.19371264896E+03  0.26379902742E+03  0.16498362263E+03 0.  0.
         24    2    3    3    0    0  0.17052105076E+02 -0.91089937628E+02 -0.18140413578E+03  0.21891619519E+03  0.80179105838E+02 0.  0.
         -6    2    1    2    0  502 -0.41539665940E+02  0.55858722838E+02  0.14449015806E+03  0.23458026416E+03  0.17118631310E+03 0.  0.
        -24    2    5    5    0    0 -0.34687878516E+02  0.52771164658E+02  0.17263283741E+03  0.20507466457E+03  0.90914667481E+02 0.  0.
          5    1    3    3  501    0  0.24487560864E+02  0.35231214791E+02 -0.12308513185E+02  0.44882832236E+02  0.47000000000E+01 0. -1.
        -13    1    4    4    0    0 -0.23830862469E+02 -0.28216162652E+01 -0.24430303064E+02  0.34244871619E+02  0.00000000000E+00 0.  1.
         14    1    4    4    0    0  0.40882967545E+02 -0.88268321363E+02 -0.15697383272E+03  0.18467132357E+03  0.00000000000E+00 0. -1.
         -5    1    5    5    0  502 -0.68517874244E+01  0.30875581798E+01 -0.28142679345E+02  0.29505599590E+02  0.47000000000E+01 0.  1.
         13    1    6    6    0    0 -0.43570590964E+02  0.61857708251E+02  0.74711897133E+02  0.10633268566E+03  0.00000000000E+00 0. -1.
        -14    1    6    6    0    0  0.88827124480E+01 -0.90865435933E+01  0.97920940275E+02  0.98741978911E+02  0.00000000000E+00 0.  1.
</event>
<event>
12    1  0.8226261E-002  0.1833069E+03  0.7818608E-02  0.1165519E+00
         21   -1    0    0  503  502  0.00000000000E+00  0.00000000000E+00  0.23147247920E+02  0.23147247920E+02  0.00000000000E+00 0.  1.
         21   -1    0    0  501  503 -0.00000000000E+00 -0.00000000000E+00 -0.14226404428E+04  0.14226404428E+04  0.00000000000E+00 0.  1.
          6    2    1    2  501    0  0.61331719246E+02 -0.20266799673E+02 -0.70702834745E+03  0.73040433978E+03  0.17154909653E+03 0.  0.
         24    2    3    3    0    0 -0.26749133093E+02 -0.41432469483E+02 -0.29394913051E+03  0.30748265484E+03  0.75546846734E+02 0.  0.
         -6    2    1    2    0  502 -0.61331719246E+02  0.20266799673E+02 -0.69246484740E+03  0.71538335090E+03  0.16761101072E+03 0.  0.
        -24    2    5    5    0    0 -0.97951945674E+02 -0.66604275378E+01 -0.53598189514E+03  0.55236457623E+03  0.90504630823E+02 0.  0.
          5    1    3    3  501    0  0.88080852340E+02  0.21165669810E+02 -0.41307921694E+03  0.42292168494E+03  0.47000000000E+01 0. -1.
        -13    1    4    4    0    0  0.25607618050E+02 -0.19688106631E+02 -0.83466958380E+02  0.89499188746E+02  0.00000000000E+00 0.  1.
         14    1    4    4    0    0 -0.52356751143E+02 -0.21744362852E+02 -0.21048217213E+03  0.21798346610E+03  0.00000000000E+00 0. -1.
         -5    1    5    5    0  502  0.36620226428E+02  0.26927227211E+02 -0.15648295226E+03  0.16301877467E+03  0.47000000000E+01 0.  1.
         11    1    6    6    0    0  0.10692196468E+01  0.12241918505E+02 -0.22743757073E+03  0.22776930518E+03  0.00000000000E+00 0. -1.
        -12    1    6    6    0    0 -0.99021165321E+02 -0.18902346043E+02 -0.30854432441E+03  0.32459527105E+03  0.00000000000E+00 0.  1.
</event>
<event>
12    1  0.8226261E-002  0.2259446E+03  0.7818608E-02  0.1129657E+00
         21   -1    0    0  503  502  0.00000000000E+00  0.00000000000E+00  0.13671390417E+03  0.13671390417E+03  0.00000000000E+00 0. -1.
         21   -1    0    0  501  503 -0.00000000000E+00 -0.00000000000E+00 -0.78339031722E+03  0.78339031722E+03  0.00000000000E+00 0.  1.
          6    2    1    2  501    0 -0.13756676658E+03  0.48554375566E+02 -0.65687678986E+03  0.69464961007E+03  0.17253643401E+03 0.  0.
         24    2    3    3    0    0 -0.79639602996E+02 -0.27335667066E+02 -0.23043175717E+03  0.25762293954E+03  0.78619839760E+02 0.  0.
         -6    2    1    2    0  502  0.13756676658E+03 -0.48554375566E+02  0.10200376802E+02  0.22545461132E+03  0.17159135009E+03 0.  0.
        -24    2    5    5    0    0  0.88393053902E+02  0.34511089830E+02 -0.14763650339E+02  0.12563868969E+03  0.81010910845E+02 0.  0.
          5    1    3    3  501    0 -0.57927163582E+02  0.75890042632E+02 -0.42644503269E+03  0.43702667053E+03  0.47000000000E+01 0. -1.
        -11    1    4    4    0    0 -0.82799358632E+02 -0.23768522722E+02 -0.23544329571E+03  0.25070744296E+03  0.00000000000E+00 0.  1.
         12    1    4    4    0    0  0.31597556365E+01 -0.35671443438E+01  0.50115385344E+01  0.69154965790E+01  0.00000000000E+00 0. -1.
         -5    1    5    5    0  502  0.49173712676E+02 -0.83065465396E+02  0.24964027141E+02  0.99815921630E+02  0.47000000000E+01 0.  1.
         11    1    6    6    0    0  0.95625163964E+02  0.77893292976E+01 -0.42811390730E+01  0.96037356199E+02  0.00000000000E+00 0. -1.
        -12    1    6    6    0    0 -0.72321100620E+01  0.26721760532E+02 -0.10482511266E+02  0.29601333489E+02  0.00000000000E+00 0.  1.
</event>
<event>
12    1  0.8226261E-002  0.2712343E+03  0.7818608E-02  0.1100611E+00
         21   -1    0    0  503  502  0.00000000000E+00  0.00000000000E+00  0.20460409128E+03  0.20460409128E+03  0.00000000000E+00 0.  1.
         21   -1    0    0  501  503 -0.00000000000E+00 -0.00000000000E+00 -0.39724908843E+03  0.39724908843E+03  0.00000000000E+00 0.  1.
          6    2    1    2  501    0  0.98815928436E+02  0.18445909287E+03 -0.18945642751E+03  0.33085005794E+03  0.17256383822E+03 0.  0.
         24    2    3    3    0    0  0.19185495758E+02  0.14936989895E+03 -0.73022092477E+02  0.18541518691E+03  0.79794207720E+02 0.  0.
         -6    2    1    2    0  502 -0.98815928436E+02 -0.18445909287E+03 -0.31885696317E+01  0.27100312177E+03  0.17217078840E+03 0.  0.
        -24    2    5    5    0    0 -0.10618460687E+03 -0.19234901935E+03  0.24952317075E+02  0.24049823910E+03  0.94569915433E+02 0.  0.
          5    1    3    3  501    0  0.79630432678E+02  0.35089193916E+02 -0.11643433503E+03  0.14543487103E+03  0.47000000000E+01 0. -1.
        -11    1    4    4    0    0  0.64079591704E+01  0.12961432063E+03 -0.88657721643E+02  0.15716591762E+03  0.00000000000E+00 0.  1.
         12    1    4    4    0    0  0.12777536587E+02  0.19755578322E+02  0.15635629166E+02  0.28249269291E+02  0.00000000000E+00 0. -1.
         -5    1    5    5    0  502  0.73686784348E+01  0.78899264776E+01 -0.28140886706E+02  0.30504882664E+02  0.47000000000E+01 0.  1.
         13    1    6    6    0    0 -0.67164398648E+02 -0.38845849374E+02 -0.10207655019E+02  0.78257604617E+02  0.00000000000E+00 0. -1.
        -14    1    6    6    0    0 -0.39020208222E+02 -0.15350316997E+03  0.35159972094E+02  0.16224063449E+03  0.00000000000E+00 0.  1.
</event>
<event>
12    1  0.8226261E-002  0.2975963E+03  0.7818608E-02  0.1086459E+00
         21   -1    0    0  501  502  0.00000000000E+00  0.00000000000E+00  0.67313758187E+02  0.67313758187E+02  0.00000000000E+00 0. -1.
         21   -1    0    0  502  503 -0.00000000000E+00 -0.00000000000E+00 -0.13658102497E+04  0.13658102497E+04  0.00000000000E+00 0. -1.
         -6    2    1    2    0  503  0.55962789322E+02 -0.23665819051E+03 -0.78711611535E+03  0.84149590676E+03  0.17153614527E+03 0.  0.
        -24    2    3    3    0    0  0.65885891291E+02 -0.24275133703E+03 -0.61575159305E+03  0.66967191574E+03  0.77725723494E+02 0.  0.
          6    2    1    2  501    0 -0.55962789322E+02  0.23665819051E+03 -0.51138037613E+03  0.59162810108E+03  0.17139132994E+03 0.  0.
         24    2    5    5    0    0 -0.89951395740E+02  0.21877311494E+03 -0.38174487208E+03  0.45634116453E+03  0.81025808624E+02 0.  0.
          5    1    5    5  501    0  0.33988606418E+02  0.17885075570E+02 -0.12963550404E+03  0.13528693656E+03  0.47000000000E+01 0. -1.
        -11    1    6    6    0    0  0.12905410738E+02  0.56159376338E+02 -0.88165022487E+02  0.10532566813E+03  0.00000000000E+00 0.  1.
         12    1    6    6    0    0 -0.10285680648E+03  0.16261373860E+03 -0.29357984960E+03  0.35101549640E+03  0.00000000000E+00 0. -1.
         -5    1    3    3    0  503 -0.99231019688E+01  0.60931465183E+01 -0.17136452230E+03  0.17182399102E+03  0.47000000000E+01 0.  1.
         13    1    4    4    0    0  0.80621739300E+02 -0.18725562635E+03 -0.44383200543E+03  0.48841722277E+03  0.00000000000E+00 0. -1.
        -14    1    4    4    0    0 -0.14735848010E+02 -0.55495710676E+02 -0.17191958761E+03  0.18125469297E+03  0.00000000000E+00 0.  1.
</event>
<event>
12    1  0.8226261E-002  0.2225711E+03  0.7818608E-02  0.1132355E+00
         21   -1    0    0  501  502  0.00000000000E+00  0.00000000000E+00  0.59484189903E+03  0.59484189903E+03  0.00000000000E+00 0. -1.
         21   -1    0    0  502  503 -0.00000000000E+00 -0.00000000000E+00 -0.20135999691E+03  0.20135999691E+03  0.00000000000E+00 0. -1.
         -6    2    1    2    0  503 -0.11775553179E+03 -0.75977062869E+02 -0.10945970328E+03  0.24621267147E+03  0.17029496059E+03 0.  0.
        -24    2    3    3    0    0 -0.50722590269E+01 -0.75308124798E+02 -0.74284101315E+02  0.12807131371E+03  0.72021470522E+02 0.  0.
          6    2    1    2  501    0  0.11775553179E+03  0.75977062869E+02  0.50294160539E+03  0.54998922447E+03  0.17291329981E+03 0.  0.
         24    2    5    5    0    0  0.27627532840E+02  0.95898534013E+02  0.32650171067E+03  0.35080828247E+03  0.80642883021E+02 0.  0.
          5    1    5    5  501    0  0.90127998950E+02 -0.19921471144E+02  0.17643989472E+03  0.19918094200E+03  0.47000000000E+01 0. -1.
        -13    1    6    6    0    0 -0.35855090059E+01  0.24846603210E+02  0.13854329836E+02  0.28673193424E+02  0.00000000000E+00 0.  1.
         14    1    6    6    0    0  0.31213041846E+02  0.71051930803E+02  0.31264738084E+03  0.32213508905E+03  0.00000000000E+00 0. -1.
         -5    1    3    3    0  503 -0.11268327276E+03 -0.66893807052E+00 -0.35175601964E+02  0.11814135776E+03  0.47000000000E+01 0.  1.
         13    1    4    4    0    0  0.13016627437E+02 -0.30129521421E+01 -0.46753164880E+02  0.48624776573E+02  0.00000000000E+00 0. -1.
        -14    1    4    4    0    0 -0.18088886464E+02 -0.72295172656E+02 -0.27530936435E+02  0.79446537142E+02  0.00000000000E+00 0.  1.
</event>
<event>
12    1  0.8226261E-002  0.1846574E+03  0.7818608E-02  0.1166903E+00
         21   -1    0    0  501  502  0.00000000000E+00  0.00000000000E+00  0.16223574167E+03  0.16223574167E+03  0.00000000000E+00 0.  1.
         21   -1    0    0  502  503 -0.00000000000E+00 -0.00000000000E+00 -0.25048849616E+03  0.25048849616E+03  0.00000000000E+00 0. -1.
         -6    2    1    2    0  503  0.56484845030E+02 -0.24758999841E+01 -0.14341180973E+03  0.23380615638E+03  0.17578880451E+03 0.  0.
        -24    2    3    3    0    0  0.53836687675E+02  0.63398632823E+02 -0.10804268959E+03  0.15884262211E+03  0.81486073919E+02 0.  0.
          6    2    1    2  501    0 -0.56484845030E+02  0.24758999841E+01  0.55159055243E+02  0.17891808146E+03  0.16053812849E+03 0.  0.
         24    2    5    5    0    0 -0.64805193354E+02 -0.48284780600E+02  0.51656992446E+02  0.12714715010E+03  0.83467477424E+02 0.  0.
          5    1    5    5  501    0  0.83203483237E+01  0.50760680584E+02  0.35020627965E+01  0.51770931355E+02  0.47000000000E+01 0. -1.
        -11    1    6    6    0    0 -0.80177786211E+02 -0.19477245131E+02  0.29228566464E+02  0.87533705378E+02  0.00000000000E+00 0.  1.
         12    1    6    6    0    0  0.15372592858E+02 -0.28807535469E+02  0.22428425982E+02  0.39613444725E+02  0.00000000000E+00 0. -1.
         -5    1    3    3    0  503  0.26481573545E+01 -0.65874532807E+02 -0.35369120146E+02  0.74963534267E+02  0.47000000000E+01 0.  1.
         11    1    4    4    0    0  0.60794023859E+02  0.11226515830E+02 -0.72757225705E+02  0.95475451751E+02  0.00000000000E+00 0. -1.
        -12    1    4    4    0    0 -0.69573361837E+01  0.52172116993E+02 -0.35285463881E+02  0.63367170362E+02  0.00000000000E+00 0.  1.
</event>
<event>
12    1  0.8226261E-002  0.1937683E+03  0.7818608E-02  0.1155641E+00
         21   -1    0    0  501  502  0.00000000000E+00  0.00000000000E+00  0.20899261462E+03  0.20899261462E+03  0.00000000000E+00 0.  1.
         21   -1    0    0  502  503 -0.00000000000E+00 -0.00000000000E+00 -0.17742939983E+03  0.17742939983E+03  0.00000000000E+00 0. -1.
         -6    2    1    2    0  503 -0.82740327461E+02  0.35966418907E+02  0.14188782359E+02  0.19428713658E+03  0.17148359927E+03 0.  0.
        -24    2    3    3    0    0 -0.10078415112E+03 -0.53751702377E+00 -0.31785049327E+02  0.13269330483E+03  0.80246431339E+02 0.  0.
          6    2    1    2  501    0  0.82740327461E+02 -0.35966418907E+02  0.17374432423E+02  0.19213487786E+03  0.16874357858E+03 0.  0.
         24    2    5    5    0    0  0.21987940971E+02 -0.87555294550E+00  0.66460140642E+02  0.10638105527E+03  0.80098330102E+02 0.  0.
          5    1    5    5  501    0  0.60752386490E+02 -0.35090865961E+02 -0.49085708219E+02  0.85753822594E+02  0.47000000000E+01 0. -1.
        -13    1    6    6    0    0  0.49830928715E+02 -0.14409022612E+02  0.45450067202E+02  0.68967021089E+02  0.00000000000E+00 0.  1.
         14    1    6    6    0    0 -0.27842987744E+02  0.13533469667E+02  0.21010073441E+02  0.37414034181E+02  0.00000000000E+00 0. -1.
         -5    1    3    3    0  503  0.18043823662E+02  0.36503935930E+02  0.45973831686E+02  0.61593831758E+02  0.47000000000E+01 0.  1.
         11    1    4    4    0    0 -0.10563867724E+03 -0.95643256003E+01 -0.75018701962E+01  0.10633571606E+03  0.00000000000E+00 0. -1.
        -12    1    4    4    0    0  0.48545261171E+01  0.90268085765E+01 -0.24283179131E+02  0.26357588767E+02  0.00000000000E+00 0.  1.
</event>
<event>
12    1  0.8226261E-002  0.2057549E+03  0.7818608E-02  0.1145245E+00
         21   -1    0    0  503  502  0.00000000000E+00  0.00000000000E+00  0.57929648711E+03  0.57929648711E+03  0.00000000000E+00 0.  1.
         21   -1    0    0  501  503 -0.00000000000E+00 -0.00000000000E+00 -0.11455812243E+03  0.11455812243E+03  0.00000000000E+00 0.  1.
          6    2    1    2  501    0  0.10070382633E+03 -0.48288382350E+02  0.21949441508E+02  0.20559533084E+03  0.17121516748E+03 0.  0.
         24    2    3    3    0    0  0.76070884640E+02  0.20789755530E+02 -0.87184591306E+01  0.12596379765E+03  0.97835951286E+02 0.  0.
         -6    2    1    2    0  502 -0.10070382633E+03  0.48288382350E+02  0.44278892317E+03  0.48825927870E+03  0.17280643577E+03 0.  0.
        -24    2    5    5    0    0 -0.97633059594E+02 -0.25877676962E+02  0.26129385258E+03  0.29211498331E+03  0.82793825791E+02 0.  0.
          5    1    3    3  501    0  0.24632941687E+02 -0.69078137880E+02  0.30667900639E+02  0.79631533193E+02  0.47000000000E+01 0. -1.
        -13    1    4    4    0    0  0.81670329844E+02  0.77061546093E+01  0.27923364070E+02  0.86655304839E+02  0.00000000000E+00 0.  1.
         14    1    4    4    0    0 -0.55994452044E+01  0.13083600921E+02 -0.36641823200E+02  0.39308492811E+02  0.00000000000E+00 0. -1.
         -5    1    5    5    0  502 -0.30707667329E+01  0.74166059311E+02  0.18149507059E+03  0.19614429538E+03  0.47000000000E+01 0.  1.
         11    1    6    6    0    0 -0.16424331751E+02 -0.34281270098E+02  0.14583019965E+03  0.15070305664E+03  0.00000000000E+00 0. -1.
        -12    1    6    6    0    0 -0.81208727843E+02  0.84035931362E+01  0.11546365294E+03  0.14141192667E+03  0.00000000000E+00 0.  1.
</event>
<event>
12    1  0.8226261E-002  0.1986550E+03  0.7818608E-02  0.1151315E+00
         21   -1    0    0  501  502  0.00000000000E+00  0.00000000000E+00  0.22358570534E+03  0.22358570534E+03  0.00000000000E+00 0.  1.
         21   -1    0    0  502  503 -0.00000000000E+00 -0.00000000000E+00 -0.24796892541E+03  0.24796892541E+03  0.00000000000E+00 0.  1.
         -6    2    1    2    0  503  0.14309919783E+02 -0.99823143611E+02  0.11592793660E+03  0.23000675730E+03  0.17115603441E+03 0.  0.
        -24    2    3    3    0    0  0.26648581393E+00  0.17726050800E+02  0.48983411202E+02  0.93923361454E+02  0.78153306790E+02 0.  0.
          6    2    1    2  501    0 -0.14309919783E+02  0.99823143611E+02 -0.14031115666E+03  0.24154787345E+03  0.16878602040E+03 0.  0.
         24    2    5    5    0    0 -0.30655856550E+02  0.12038578605E+03 -0.64751284104E+02  0.16141425845E+03  0.80183009501E+02 0.  0.
          5    1    5    5  501    0  0.16345936767E+02 -0.20562642441E+02 -0.75559872560E+02  0.80133615008E+02  0.47000000000E+01 0. -1.
        -13    1    6    6    0    0  0.13958574023E+02  0.21752672164E+02 -0.44236286602E+02  0.51233481117E+02  0.00000000000E+00 0.  1.
         14    1    6    6    0    0 -0.44614430572E+02  0.98633113888E+02 -0.20514997502E+02  0.11018077733E+03  0.00000000000E+00 0. -1.
         -5    1    3    3    0  503  0.14043433969E+02 -0.11754919441E+03  0.66944525396E+02  0.13608339585E+03  0.47000000000E+01 0.  1.
         11    1    4    4    0    0  0.36743032622E+02  0.20018843267E+02  0.16341734144E+02  0.44920561070E+02  0.00000000000E+00 0. -1.
        -12    1    4    4    0    0 -0.36476546808E+02 -0.22927924661E+01  0.32641677058E+02  0.49002800384E+02  0.00000000000E+00 0.  1.
</event>
<event>
12    1  0.8226261E-002  0.2027979E+03  0.7818608E-02  0.1148219E+00
         21   -1    0    0  503  502  0.00000000000E+00  0.00000000000E+00  0.29999274055E+03  0.29999274055E+03  0.00000000000E+00 0. -1.
         21   -1    0    0  501  503 -0.00000000000E+00 -0.00000000000E+00 -0.13460020695E+03  0.13460020695E+03  0.00000000000E+00 0.  1.
          6    2    1    2  501    0  0.53087143799E+02 -0.86099637577E+02  0.90501623815E+02  0.22207547671E+03  0.17577138850E+03 0.  0.
         24    2    3    3    0    0  0.99855246941E+02 -0.86491919897E+02  0.78408338807E+02  0.17353943959E+03  0.80722654499E+02 0.  0.
         -6    2    1    2    0  502 -0.53087143799E+02  0.86099637577E+02  0.74890909789E+02  0.21251747080E+03  0.17124145117E+03 0.  0.
        -24    2    5    5    0    0  0.34030561381E+02  0.19812730786E+02  0.39043951473E+02  0.97232853487E+02  0.79869732950E+02 0.  0.
          5    1    3    3  501    0 -0.46768103142E+02  0.39228231961E+00  0.12093285008E+02  0.48536037118E+02  0.47000000000E+01 0. -1.
        -11    1    4    4    0    0  0.25612446928E+02 -0.75198641168E+02  0.35100331807E+02  0.86849676823E+02  0.00000000000E+00 0.  1.
         12    1    4    4    0    0  0.74242800013E+02 -0.11293278729E+02  0.43308007000E+02  0.86689762766E+02  0.00000000000E+00 0. -1.
         -5    1    5    5    0  502 -0.87117705180E+02  0.66286906792E+02  0.35846958316E+02  0.11528461731E+03  0.47000000000E+01 0.  1.
         11    1    6    6    0    0  0.77077051339E+01 -0.21014604804E+02  0.43018175355E+02  0.48493151520E+02  0.00000000000E+00 0. -1.
        -12    1    6    6    0    0  0.26322856247E+02  0.40827335590E+02 -0.39742238816E+01  0.48739701967E+02  0.00000000000E+00 0.  1.
</event>
<event>
12    1  0.8226261E-002  0.1829112E+03  0.7818608E-02  0.1165125E+00
         21   -1    0    0  503  502  0.00000000000E+00  0.00000000000E+00  0.96036025670E+02  0.96036025670E+02  0.00000000000E+00 0.  1.
         21   -1    0    0  501  503 -0.00000000000E+00 -0.00000000000E+00 -0.70118013888E+03  0.70118013888E+03  0.00000000000E+00 0. -1.
          6    2    1    2  501    0 -0.59320381273E+02  0.14060964929E+02 -0.58586236788E+03  0.61375176470E+03  0.17245259117E+03 0.  0.
         24    2    3    3    0    0 -0.69046997210E+02  0.49001766555E+01 -0.58950589677E+03  0.59912670394E+03  0.81511382589E+02 0.  0.
         -6    2    1    2    0  502  0.59320381273E+02 -0.14060964929E+02 -0.19281745327E+02  0.18346439985E+03  0.17196157112E+03 0.  0.
        -24    2    5    5    0    0  0.12134997328E+02 -0.34145238923E+02  0.43354553449E+02  0.10237658052E+03  0.85370905071E+02 0.  0.
          5    1    3    3  501    0  0.97266159379E+01  0.91607882736E+01  0.36435288885E+01  0.14625060757E+02  0.47000000000E+01 0. -1.
        -13    1    4    4    0    0  0.59983931485E+01  0.26107430196E+02 -0.20915447000E+03  0.21086291981E+03  0.00000000000E+00 0.  1.
         14    1    4    4    0    0 -0.75045390359E+02 -0.21207253540E+02 -0.38035142678E+03  0.38826378413E+03  0.00000000000E+00 0. -1.
         -5    1    5    5    0  502  0.47185383944E+02  0.20084273994E+02 -0.62636298776E+02  0.81087819333E+02  0.47000000000E+01 0.  1.
         11    1    6    6    0    0  0.54813382988E+01 -0.12448311781E+02 -0.26032954862E+02  0.29372100276E+02  0.00000000000E+00 0. -1.
        -12    1    6    6    0    0  0.66536590294E+01 -0.21696927142E+02  0.69387508311E+02  0.73004480243E+02  0.00000000000E+00 0.  1.
</event>
<event>
12    1  0.8226261E-002  0.2089803E+03  0.7818608E-02  0.1142631E+00
         21   -1    0    0  503  502  0.00000000000E+00  0.00000000000E+00  0.15250039718E+04  0.15250039718E+04  0.00000000000E+00 0. -1.
         21   -1    0    0  501  503 -0.00000000000E+00 -0.00000000000E+00 -0.67128713517E+02  0.67128713517E+02  0.00000000000E+00 0. -1.
          6    2    1    2  501    0 -0.60678152205E+02  0.99276936982E+02  0.12382400638E+03  0.24181217146E+03  0.17205520434E+03 0.  0.
         24    2    3    3    0    0 -0.77577833253E+02  0.12239117110E+03  0.12984406307E+03  0.21217776374E+03  0.84628622437E+02 0.  0.
         -6    2    1    2    0  502  0.60678152205E+02 -0.99276936982E+02  0.13340512519E+04  0.13503205138E+04  0.17359435203E+03 0.  0.
        -24    2    5    5    0    0 -0.22027396091E+02 -0.65894577975E+02  0.98126474287E+03  0.98640431393E+03  0.72702636487E+02 0.  0.
          5    1    3    3  501    0  0.16899681049E+02 -0.23114234121E+02 -0.60200566901E+01  0.29634407723E+02  0.47000000000E+01 0. -1.
        -13    1    4    4    0    0 -0.31533234295E+02  0.11715129259E+02  0.71163336681E+02  0.78713465216E+02  0.00000000000E+00 0.  1.
         14    1    4    4    0    0 -0.46044598959E+02  0.11067604184E+03  0.58680726390E+02  0.13346429853E+03  0.00000000000E+00 0. -1.
         -5    1    5    5    0  502  0.82705548295E+02 -0.33382359007E+02  0.35278650901E+03  0.36391619991E+03  0.47000000000E+01 0.  1.
         13    1    6    6    0    0 -0.26901629041E+02 -0.62325687676E+02  0.44876115635E+03  0.45386646102E+03  0.00000000000E+00 0. -1.
        -14    1    6    6    0    0  0.48742329503E+01 -0.35688902987E+01  0.53250358652E+03  0.53253785291E+03  0.00000000000E+00 0.  1.
</event>
<event>
12    1  0.8226261E-002  0.1952751E+03  0.7818608E-02  0.1153881E+00
         21   -1    0    0  503  502  0.00000000000E+00  0.00000000000E+00  0.18436683510E+04  0.18436683510E+04  0.00000000000E+00 0. -1.
         21   -1    0    0  501  503 -0.00000000000E+00 -0.00000000000E+00 -0.93337657209E+02  0.93337657209E+02  0.00000000000E+00 0. -1.
          6    2    1    2  501    0  0.54758418018E+02 -0.74055034371E+02  0.20202840617E+02  0.19589292998E+03  0.17170688043E+03 0.  0.
         24    2    3    3    0    0  0.42575866911E+02 -0.80543401673E+02  0.68970852565E+02  0.14499182536E+03  0.89250809084E+02 0.  0.
         -6    2    1    2    0  502 -0.54758418018E+02  0.74055034371E+02  0.17301278532E+04  0.17411130783E+04  0.17219097072E+03 0.  0.
        -24    2    5    5    0    0 -0.64738290372E+02  0.61034705577E+02  0.17092694982E+04  0.17141633513E+04  0.94007955208E+02 0.  0.
          5    1    3    3  501    0  0.12182551107E+02  0.64883673014E+01 -0.48768011949E+02  0.50901104616E+02  0.47000000000E+01 0. -1.
        -11    1    4    4    0    0 -0.13415402695E+02  0.71032420435E+01  0.30557247582E+02  0.34120000832E+02  0.00000000000E+00 0.  1.
         12    1    4    4    0    0  0.55991269606E+02 -0.87646643716E+02  0.38413604983E+02  0.11087182453E+03  0.00000000000E+00 0. -1.
         -5    1    5    5    0  502  0.99798723534E+01  0.13020328795E+02  0.20858354979E+02  0.26949727022E+02  0.47000000000E+01 0.  1.
         11    1    6    6    0    0 -0.63191664675E+02  0.44183952267E+02  0.62184792673E+03  0.62661012768E+03  0.00000000000E+00 0. -1.
        -12    1    6    6    0    0 -0.15466256962E+01  0.16850753310E+02  0.10874215715E+04  0.10875532236E+04  0.00000000000E+00 0.  1.
</event>
<event>
12    1  0.8226261E-002  0.1998646E+03  0.7818608E-02  0.1149974E+00
         21   -1    0    0  503  502  0.00000000000E+00  0.00000000000E+00  0.28793375758E+03  0.28793375758E+03  0.00000000000E+00 0.  1.
         21   -1    0    0  501  503 -0.00000000000E+00 -0.00000000000E+00 -0.17568831671E+03  0.17568831671E+03  0.00000000000E+00 0. -1.
          6    2    1    2  501    0  0.99339866637E+02  0.17630021151E+02 -0.50826585319E+02  0.20567177490E+03  0.17186713027E+03 0.  0.
         24    2    3    3    0    0 -0.30763251445E+01 -0.30754552849E+02 -0.95719607535E+01  0.85031079495E+02  0.78634316618E+02 0.  0.
         -6    2    1    2    0  502 -0.99339866637E+02 -0.17630021151E+02  0.16307202619E+03  0.25795029938E+03  0.17253012628E+03 0.  0.
        -24    2    5    5    0    0 -0.63172577710E+02 -0.69388404514E+02  0.57360161508E+02  0.13472655422E+03  0.77817292604E+02 0.  0.
          5    1    3    3  501    0  0.10241619178E+03  0.48384574000E+02 -0.41254624566E+02  0.12064069541E+03  0.47000000000E+01 0. -1.
        -11    1    4    4    0    0 -0.22717211328E+02  0.99647197052E+01  0.19264706772E+02  0.31408537953E+02  0.00000000000E+00 0.  1.
         12    1    4    4    0    0  0.19640886184E+02 -0.40719272554E+02 -0.28836667526E+02  0.53622541542E+02  0.00000000000E+00 0. -1.
         -5    1    5    5    0  502 -0.36167288927E+02  0.51758383363E+02  0.10571186468E+03  0.12322374516E+03  0.47000000000E+01 0.  1.
         11    1    6    6    0    0  0.17367491116E+02 -0.80380155748E+01  0.17573122768E+01  0.19217897608E+02  0.00000000000E+00 0. -1.
        -12    1    6    6    0    0 -0.80540068827E+02 -0.61350388939E+02  0.55602849231E+02  0.11550865661E+03  0.00000000000E+00 0.  1.
</event>
<event>
12    1  0.8226261E-002  0.1821698E+03  0.7818608E-02  0.1166134E+00
         21   -1    0    0  501  502  0.00000000000E+00  0.00000000000E+00  0.80571744893E+02  0.80571744893E+02  0.00000000000E+00 0. -1.
         21   -1    0    0  502  503 -0.00000000000E+00 -0.00000000000E+00 -0.47499280947E+03  0.47499280947E+03  0.00000000000E+00 0. -1.
         -6    2    1    2    0  503 -0.55194214954E+02  0.14295667574E+02 -0.92062769883E+02  0.20256828542E+03  0.17119459450E+03 0.  0.
        -24    2    3    3    0    0 -0.46685931832E+02 -0.27903009270E+02  0.92636021232E+01  0.92376439658E+02  0.74090742487E+02 0.  0.
          6    2    1    2  501    0  0.55194214954E+02 -0.14295667574E+02 -0.30235829470E+03  0.35299626895E+03  0.17301751368E+03 0.  0.
         24    2    5    5    0    0  0.40791879285E+02  0.13875239530E+02 -0.30753767798E+03  0.32059344050E+03  0.79650681283E+02 0.  0.
          5    1    5    5  501    0  0.14402335669E+02 -0.28170907104E+02  0.51793832818E+01  0.32402828441E+02  0.47000000000E+01 0. -1.
        -13    1    6    6    0    0  0.85135959303E+01 -0.99130192646E+01 -0.29735156059E+01  0.13401158967E+02  0.00000000000E+00 0.  1.
         14    1    6    6    0    0  0.32278283355E+02  0.23788258795E+02 -0.30456416238E+03  0.30719228154E+03  0.00000000000E+00 0. -1.
         -5    1    3    3    0  503 -0.85082831217E+01  0.42198676844E+02 -0.10132637201E+03  0.11019184576E+03  0.47000000000E+01 0.  1.
         11    1    4    4    0    0  0.19821647087E+02 -0.12385798320E+02 -0.55907218740E+00  0.23379868584E+02  0.00000000000E+00 0. -1.
        -12    1    4    4    0    0 -0.66507578920E+02 -0.15517210950E+02  0.98226743106E+01  0.68996571074E+02  0.00000000000E+00 0.  1.
</event>
<event>
12    1  0.8226261E-002  0.2469009E+03  0.7818608E-02  0.1116026E+00
         21   -1    0    0  501  502  0.00000000000E+00  0.00000000000E+00  0.15405159740E+04  0.15405159740E+04  0.00000000000E+00 0. -1.
         21   -1    0    0  502  503 -0.00000000000E+00 -0.00000000000E+00 -0.39851117254E+02  0.39851117254E+02  0.00000000000E+00 0. -1.
         -6    2    1    2    0  503  0.16698219045E+03 -0.95337630113E+01  0.61735776250E+03  0.66320218530E+03  0.17530712223E+03 0.  0.
        -24    2    3    3    0    0  0.85357021655E+02  0.35595577680E+02  0.18194434058E+03  0.21788627097E+03  0.76274620354E+02 0.  0.
          6    2    1    2  501    0 -0.16698219045E+03  0.95337630113E+01  0.88330709426E+03  0.91716490597E+03  0.18162075157E+03 0.  0.
         24    2    5    5    0    0 -0.16517272138E+02 -0.17257736367E+02  0.45634410896E+03  0.46364869137E+03  0.78418833751E+02 0.  0.
          5    1    5    5  501    0 -0.15046491831E+03  0.26791499378E+02  0.42696298531E+03  0.45351621460E+03  0.47000000000E+01 0. -1.
        -13    1    6    6    0    0 -0.31630927794E+02 -0.17191344081E+02  0.89162665874E+02  0.96156325274E+02  0.00000000000E+00 0.  1.
         14    1    6    6    0    0  0.15113655655E+02 -0.66392285875E-01  0.36718144308E+03  0.36749236610E+03  0.00000000000E+00 0. -1.
         -5    1    3    3    0  503  0.81625168797E+02 -0.45129340691E+02  0.43541342192E+03  0.44531591433E+03  0.47000000000E+01 0.  1.
         11    1    4    4    0    0  0.74368307210E+02  0.23610998957E+02  0.18550011741E+03  0.20124218730E+03  0.00000000000E+00 0. -1.
        -12    1    4    4    0    0  0.10988714445E+02  0.11984578723E+02 -0.35557768297E+01  0.16644083669E+02  0.00000000000E+00 0.  1.
</event>
<event>
12    1  0.8226261E-002  0.2438781E+03  0.7818608E-02  0.1117611E+00
         21   -1    0    0  501  502  0.00000000000E+00  0.00000000000E+00  0.23691122145E+04  0.23691122145E+04  0.00000000000E+00 0.  1.
         21   -1    0    0  502  503 -0.00000000000E+00 -0.00000000000E+00 -0.26404520862E+02  0.26404520862E+02  0.00000000000E+00 0. -1.
         -6    2    1    2    0  503  0.77702958050E+02  0.15440227260E+03  0.88780010327E+03  0.92068755345E+03  0.17204283258E+03 0.  0.
        -24    2    3    3    0    0  0.12028178713E+03  0.12933687842E+03  0.72222018410E+03  0.74782914231E+03  0.80316220836E+02 0.  0.
          6    2    1    2  501    0 -0.77702958050E+02 -0.15440227260E+03  0.14549075904E+04  0.14748291819E+04  0.16878153879E+03 0.  0.
         24    2    5    5    0    0 -0.54863050786E+02 -0.11826045882E+03  0.13808355556E+04  0.13891749444E+04  0.78132606118E+02 0.  0.
          5    1    5    5  501    0 -0.22839907264E+02 -0.36141813775E+02  0.74072034836E+02  0.85654237557E+02  0.47000000000E+01 0. -1.
        -13    1    6    6    0    0 -0.53314381608E+02 -0.65087761866E+02  0.11087749663E+04  0.11119625740E+04  0.00000000000E+00 0.  1.
         14    1    6    6    0    0 -0.15486691782E+01 -0.53172696955E+02  0.27206058928E+03  0.27721237043E+03  0.00000000000E+00 0. -1.
         -5    1    3    3    0  503 -0.42578829077E+02  0.25065394171E+02  0.16557991917E+03  0.17285841115E+03  0.47000000000E+01 0.  1.
         13    1    4    4    0    0  0.60566528331E+01 -0.67665668501E+01  0.89123078912E+01  0.12723942095E+02  0.00000000000E+00 0. -1.
        -14    1    4    4    0    0  0.11422513429E+03  0.13610344527E+03  0.71330787621E+03  0.73510520021E+03  0.00000000000E+00 0.  1.
</event>
<event>
12    1  0.8226261E-002  0.1811829E+03  0.7818608E-02  0.1166956E+00
         21   -1    0    0  503  502  0.00000000000E+00  0.00000000000E+00  0.17629544811E+03  0.17629544811E+03  0.00000000000E+00 0.  1.
         21   -1    0    0  501  503 -0.00000000000E+00 -0.00000000000E+00 -0.43797154812E+03  0.43797154812E+03  0.00000000000E+00 0.  1.
          6    2    1    2  501    0  0.53933756191E+02 -0.15393867420E+01 -0.36409149285E+03  0.40614167937E+03  0.17168933802E+03 0.  0.
         24    2    3    3    0    0 -0.14391047627E+02  0.48279898603E+02 -0.15923625266E+03  0.18447075336E+03  0.78327669576E+02 0.  0.
         -6    2    1    2    0  502 -0.53933756191E+02  0.15393867420E+01  0.10241539283E+03  0.20812531686E+03  0.17296246721E+03 0.  0.
        -24    2    5    5    0    0  0.78664808949E+01 -0.36323208907E+02  0.10385522205E+03  0.13548229544E+03  0.78665673610E+02 0.  0.
          5    1    3    3  501    0  0.68324803818E+02 -0.49819285345E+02 -0.20485524018E+03  0.22167092601E+03  0.47000000000E+01 0. -1.
        -13    1    4    4    0    0 -0.80875451243E+01  0.36042288655E+02 -0.16533753703E+03  0.16941356531E+03  0.00000000000E+00 0.  1.
         14    1    4    4    0    0 -0.63035025031E+01  0.12237609949E+02  0.61012843698E+01  0.15057188052E+02  0.00000000000E+00 0. -1.
         -5    1    5    5    0  502 -0.61800237085E+02  0.37862595649E+02 -0.14398292152E+01  0.72643021421E+02  0.47000000000E+01 0.  1.
         11    1    6    6    0    0  0.20251528807E+02 -0.18652950518E+02 -0.18520579704E+01  0.27595055731E+02  0.00000000000E+00 0. -1.
        -12    1    6    6    0    0 -0.12385047912E+02 -0.17670258388E+02  0.10570728002E+03  0.10788723971E+03  0.00000000000E+00 0.  1.
</event>
<event>
12    1  0.8226261E-002  0.2137961E+03  0.7818608E-02  0.1138760E+00
         21   -1    0    0  501  502  0.00000000000E+00  0.00000000000E+00  0.11470971154E+04  0.11470971154E+04  0.00000000000E+00 0.  1.
         21   -1    0    0  502  503 -0.00000000000E+00 -0.00000000000E+00 -0.40609071964E+02  0.40609071964E+02  0.00000000000E+00 0.  1.
         -6    2    1    2    0  503  0.13787247272E+02  0.12770610752E+03  0.64372985213E+03  0.67830442755E+03  0.17090885238E+03 0.  0.
        -24    2    3    3    0    0  0.29683491977E+02  0.13593945330E+03  0.35856791447E+03  0.39254246494E+03  0.78472879661E+02 0.  0.
          6    2    1    2  501    0 -0.13787247272E+02 -0.12770610752E+03  0.46275819127E+03  0.50940175978E+03  0.16984131180E+03 0.  0.
         24    2    5    5    0    0 -0.73305665857E+02 -0.48746490546E+02  0.26617406442E+03  0.28930070983E+03  0.71388564535E+02 0.  0.
          5    1    5    5  501    0  0.59518418585E+02 -0.78959616972E+02  0.19658412685E+03  0.22010104996E+03  0.47000000000E+01 0. -1.
        -11    1    6    6    0    0  0.11766870467E+02 -0.19953131251E+02  0.64446722670E+02  0.68483331915E+02  0.00000000000E+00 0.  1.
         12    1    6    6    0    0 -0.85072536324E+02 -0.28793359295E+02  0.20172734175E+03  0.22081737791E+03  0.00000000000E+00 0. -1.
         -5    1    3    3    0  503 -0.15896244705E+02 -0.82333457778E+01  0.28516193767E+03  0.28576196261E+03  0.47000000000E+01 0.  1.
         11    1    4    4    0    0  0.21868831341E+02  0.15297446053E+02  0.20939774342E+02  0.33922437847E+02  0.00000000000E+00 0. -1.
        -12    1    4    4    0    0  0.78146606357E+01  0.12064200724E+03  0.33762814012E+03  0.35862002710E+03  0.00000000000E+00 0.  1.
</event>
<event>
12    1  0.8226261E-002  0.1786812E+03  0.7818608E-02  0.1169321E+00
         21   -1    0    0  503  502  0.00000000000E+00  0.00000000000E+00  0.30775037016E+02  0.30775037016E+02  0.00000000000E+00 0.  1.
         21   -1    0    0  501  503 -0.00000000000E+00 -0.00000000000E+00 -0.12839274449E+04  0.12839274449E+04  0.00000000000E+00 0.  1.
          6    2    1    2  501    0 -0.45249336071E+02  0.98463883843E+01 -0.91920221965E+03  0.93640786721E+03  0.17257612633E+03 0.  0.
         24    2    3    3    0    0 -0.86717982349E+02  0.15173446478E+02 -0.45757427116E+03  0.47286662956E+03  0.80488469875E+02 0.  0.
         -6    2    1    2    0  502  0.45249336071E+02 -0.98463883843E+01 -0.33395018827E+03  0.37829461474E+03  0.17157981676E+03 0.  0.
        -24    2    5    5    0    0 -0.24722399901E+02  0.34966839129E+02 -0.21588531203E+03  0.23384505886E+03  0.79013712135E+02 0.  0.
          5    1    3    3  501    0  0.41468646278E+02 -0.53270580941E+01 -0.46162794849E+03  0.46354123765E+03  0.47000000000E+01 0. -1.
        -13    1    4    4    0    0 -0.35544870137E+02  0.35196435970E+02 -0.33265908567E+03  0.33639901037E+03  0.00000000000E+00 0.  1.
         14    1    4    4    0    0 -0.51173112212E+02 -0.20022989492E+02 -0.12491518548E+03  0.13646761919E+03  0.00000000000E+00 0. -1.
         -5    1    5    5    0  502  0.69971735972E+02 -0.44813227513E+02 -0.11806487624E+03  0.14444955589E+03  0.47000000000E+01 0.  1.
         13    1    6    6    0    0 -0.45304120192E+02  0.78210548993E+01 -0.17338637162E+03  0.17937799773E+03  0.00000000000E+00 0. -1.
        -14    1    6    6    0    0  0.20581720292E+02  0.27145784229E+02 -0.42498940407E+02  0.54467061123E+02  0.00000000000E+00 0.  1.
</event>
<event>
12    1  0.8226261E-002  0.2183432E+03  0.7818608E-02  0.1136268E+00
         21   -1    0    0  501  502  0.00000000000E+00  0.00000000000E+00  0.91832482087E+02  0.91832482087E+02  0.00000000000E+00 0.  1.
         21   -1    0    0  502  503 -0.00000000000E+00 -0.00000000000E+00 -0.50500793010E+03  0.50500793010E+03  0.00000000000E+00 0.  1.
         -6    2    1    2    0  503  0.83746915013E+02 -0.93394960777E+02 -0.20377650139E+03  0.29431488947E+03  0.17134826283E+03 0.  0.
        -24    2    3    3    0    0  0.29118358709E+02  0.13738945723E+02 -0.12510312210E+03  0.15053191519E+03  0.77281491234E+02 0.  0.
          6    2    1    2  501    0 -0.83746915013E+02  0.93394960777E+02 -0.20939894662E+03  0.30252552271E+03  0.17871096377E+03 0.  0.
         24    2    5    5    0    0 -0.22926618623E+02  0.70805268927E+02 -0.21007670563E+03  0.23747206786E+03  0.81986247722E+02 0.  0.
          5    1    5    5  501    0 -0.60820296391E+02  0.22589691850E+02  0.67775900912E+00  0.65053454852E+02  0.47000000000E+01 0. -1.
        -13    1    6    6    0    0  0.19768288232E+02  0.34384516248E+02 -0.32619593760E+02  0.51352877955E+02  0.00000000000E+00 0.  1.
         14    1    6    6    0    0 -0.42694906855E+02  0.36420752679E+02 -0.17745711187E+03  0.18611918991E+03  0.00000000000E+00 0. -1.
         -5    1    3    3    0  503  0.54628556304E+02 -0.10713390650E+03 -0.78673379293E+02  0.14378297429E+03  0.47000000000E+01 0.  1.
         13    1    4    4    0    0 -0.13462020079E+02  0.25872151107E+02 -0.88190209563E+02  0.92887605471E+02  0.00000000000E+00 0. -1.
        -14    1    4    4    0    0  0.42580378788E+02 -0.12133205383E+02 -0.36912912535E+02  0.57644309714E+02  0.00000000000E+00 0.  1.
</event>
<event>
12    1  0.8226261E-002  0.1784910E+03  0.7818608E-02  0.1169739E+00
         21   -1    0    0  503  502  0.00000000000E+00  0.00000000000E+00  0.19283625112E+02  0.19283625112E+02  0.00000000000E+00 0.  1.
         21   -1    0    0  501  503 -0.00000000000E+00 -0.00000000000E+00 -0.16814648024E+04  0.16814648024E+04  0.00000000000E+00 0.  1.
          6    2    1    2  501    0  0.38935276490E+02  0.13589894214E+02 -0.97741811273E+03  0.99358201172E+03  0.17366175728E+03 0.  0.
         24    2    3    3    0    0  0.21734558911E+02 -0.58224617832E+02 -0.48925647878E+03  0.49984416662E+03  0.81300625467E+02 0.  0.
         -6    2    1    2    0  502 -0.38935276490E+02 -0.13589894214E+02 -0.68476306455E+03  0.70716641579E+03  0.17170685502E+03 0.  0.
        -24    2    5    5    0    0  0.32355446562E+02 -0.47901624873E+02 -0.34067845326E+03  0.35407156764E+03  0.77223221329E+02 0.  0.
          5    1    3    3  501    0  0.17200717579E+02  0.71814512045E+02 -0.48816163394E+03  0.49373784510E+03  0.47000000000E+01 0. -1.
        -11    1    4    4    0    0  0.41374098103E+02 -0.38089934197E+02 -0.43604254031E+03  0.43965413230E+03  0.00000000000E+00 0.  1.
         12    1    4    4    0    0 -0.19639539192E+02 -0.20134683635E+02 -0.53213938469E+02  0.60190034326E+02  0.00000000000E+00 0. -1.
         -5    1    5    5    0  502 -0.71290723051E+02  0.34311730659E+02 -0.34408461130E+03  0.35309484814E+03  0.47000000000E+01 0.  1.
         11    1    6    6    0    0  0.37074055129E+02 -0.67111343030E+02 -0.26871716504E+03  0.27944110778E+03  0.00000000000E+00 0. -1.
        -12    1    6    6    0    0 -0.47186085676E+01  0.19209718157E+02 -0.71961288214E+02  0.74630459866E+02  0.00000000000E+00 0.  1.
</event>
<event>
12    1  0.8226261E-002  0.2049127E+03  0.7818608E-02  0.1145816E+00
         21   -1    0    0  501  502  0.00000000000E+00  0.00000000000E+00  0.31578955659E+02  0.31578955659E+02  0.00000000000E+00 0.  1.
         21   -1    0    0  502  503 -0.00000000000E+00 -0.00000000000E+00 -0.13336374062E+04  0.13336374062E+04  0.00000000000E+00 0.  1.
         -6    2    1    2    0  503 -0.10578690137E+03  0.30908656461E+02 -0.70818091398E+03  0.73723092147E+03  0.17275129844E+03 0.  0.
        -24    2    3    3    0    0 -0.50860300537E+02 -0.42985833084E+02 -0.46034627574E+03  0.47280432490E+03  0.84797901172E+02 0.  0.
          6    2    1    2  501    0  0.10578690137E+03 -0.30908656461E+02 -0.59387753660E+03  0.62798544042E+03  0.17183995855E+03 0.  0.
         24    2    5    5    0    0 -0.88514831816E+01  0.10127342231E+02 -0.27578084719E+03  0.28734852783E+03  0.79581335475E+02 0.  0.
          5    1    5    5  501    0  0.11463838456E+03 -0.41035998692E+02 -0.31809668941E+03  0.34063691258E+03  0.47000000000E+01 0. -1.
        -11    1    6    6    0    0  0.23206393304E+02  0.17684439984E+02 -0.22458959710E+03  0.22647684922E+03  0.00000000000E+00 0.  1.
         12    1    6    6    0    0 -0.32057876486E+02 -0.75570977527E+01 -0.51191250089E+02  0.60871678611E+02  0.00000000000E+00 0. -1.
         -5    1    3    3    0  503 -0.54926600838E+02  0.73894489545E+02 -0.24783463824E+03  0.26442659657E+03  0.47000000000E+01 0.  1.
         11    1    4    4    0    0 -0.23259965695E+02  0.10176359684E+02 -0.30891362048E+03  0.30995517292E+03  0.00000000000E+00 0. -1.
        -12    1    4    4    0    0 -0.27600334842E+02 -0.53162192768E+02 -0.15143265526E+03  0.16284915198E+03  0.00000000000E+00 0.  1.
</event>
<event>
12    1  0.8226261E-002  0.1978361E+03  0.7818608E-02  0.1151642E+00
         21   -1    0    0  503  502  0.00000000000E+00  0.00000000000E+00  0.41407162456E+03  0.41407162456E+03  0.00000000000E+00 0.  1.
         21   -1    0    0  501  503 -0.00000000000E+00 -0.00000000000E+00 -0.16153017156E+03  0.16153017156E+03  0.00000000000E+00 0. -1.
          6    2    1    2  501    0  0.80606268492E+02  0.54523271973E+02 -0.59346867920E+02  0.20625990132E+03  0.17190386399E+03 0.  0.
         24    2    3    3    0    0  0.42864279390E+02  0.10133759330E+03 -0.28388731764E+02  0.13846215345E+03  0.79115065465E+02 0.  0.
         -6    2    1    2    0  502 -0.80606268492E+02 -0.54523271973E+02  0.31188832093E+03  0.36934189480E+03  0.17224677883E+03 0.  0.
        -24    2    5    5    0    0  0.99945043190E+01 -0.62739687574E+02  0.19607366474E+03  0.22199490940E+03  0.82466352411E+02 0.  0.
          5    1    3    3  501    0  0.37741989102E+02 -0.46814321324E+02 -0.30958136156E+02  0.67797747873E+02  0.47000000000E+01 0. -1.
        -11    1    4    4    0    0  0.17360391339E+02  0.17445365490E+02  0.25583030658E+02  0.35499512985E+02  0.00000000000E+00 0.  1.
         12    1    4    4    0    0  0.25503888051E+02  0.83892227807E+02 -0.53971762422E+02  0.10296264046E+03  0.00000000000E+00 0. -1.
         -5    1    5    5    0  502 -0.90600772811E+02  0.82164156016E+01  0.11581465619E+03  0.14734698540E+03  0.47000000000E+01 0.  1.
         11    1    6    6    0    0 -0.35672829546E+02 -0.30616717417E+02  0.72694293474E+02  0.86570170710E+02  0.00000000000E+00 0. -1.
        -12    1    6    6    0    0  0.45667333865E+02 -0.32122970158E+02  0.12337937127E+03  0.13542473869E+03  0.00000000000E+00 0.  1.
</event>
<event>
12    1  0.8226261E-002  0.1787252E+03  0.7818608E-02  0.1169390E+00
         21   -1    0    0  503  502  0.00000000000E+00  0.00000000000E+00  0.42908681125E+02  0.42908681125E+02  0.00000000000E+00 0.  1.
         21   -1    0    0  501  503 -0.00000000000E+00 -0.00000000000E+00 -0.92923963423E+03  0.92923963423E+03  0.00000000000E+00 0.  1.
          6    2    1    2  501    0  0.36334328758E+02 -0.23840073524E+02 -0.22437190249E+03  0.28685440704E+03  0.17336137881E+03 0.  0.
         24    2    3    3    0    0  0.53493774143E+02 -0.17498330090E+02 -0.44896768106E+02  0.10638812726E+03  0.78325847638E+02 0.  0.
         -6    2    1    2    0  502 -0.36334328758E+02  0.23840073524E+02 -0.66195905062E+03  0.68529390831E+03  0.17189945761E+03 0.  0.
        -24    2    5    5    0    0  0.10322753788E+02 -0.43775862827E+02 -0.38535610576E+03  0.39671103061E+03  0.82809589715E+02 0.  0.
          5    1    3    3  501    0 -0.17159445385E+02 -0.63417434344E+01 -0.17947513438E+03  0.18046627978E+03  0.47000000000E+01 0. -1.
        -11    1    4    4    0    0 -0.81979875397E+01 -0.31839635581E+02 -0.18903028219E+02  0.37924845016E+02  0.00000000000E+00 0.  1.
         12    1    4    4    0    0  0.61691761682E+02  0.14341305492E+02 -0.25993739887E+02  0.68463282247E+02  0.00000000000E+00 0. -1.
         -5    1    5    5    0  502 -0.46657082546E+02  0.67615936351E+02 -0.27660294486E+03  0.28858287771E+03  0.47000000000E+01 0.  1.
         11    1    6    6    0    0 -0.15082266185E+02 -0.16063958624E+02 -0.21060334790E+02  0.30480538404E+02  0.00000000000E+00 0. -1.
        -12    1    6    6    0    0  0.25405019973E+02 -0.27711904203E+02 -0.36429577097E+03  0.36623049220E+03  0.00000000000E+00 0.  1.
</event>
<event>
12    1  0.8226261E-002  0.1836516E+03  0.7818608E-02  0.1164628E+00
         21   -1    0    0  501  502  0.00000000000E+00  0.00000000000E+00  0.54687192346E+03  0.54687192346E+03  0.00000000000E+00 0.  1.
         21   -1    0    0  502  503 -0.00000000000E+00 -0.00000000000E+00 -0.90499158872E+02  0.90499158872E+02  0.00000000000E+00 0.  1.
         -6    2    1    2    0  503  0.62024184961E+02 -0.97035519128E+01  0.47511968432E+02  0.18969790438E+03  0.17258838125E+03 0.  0.
        -24    2    3    3    0    0 -0.29497182118E+02 -0.24026144631E+02  0.20303082097E+02  0.93035032553E+02  0.82437629520E+02 0.  0.
          6    2    1    2  501    0 -0.62024184961E+02  0.97035519128E+01  0.40886079615E+03  0.44767317795E+03  0.17118108886E+03 0.  0.
         24    2    5    5    0    0 -0.48787160913E+02 -0.19099112766E+02  0.40400068606E+03  0.41526140588E+03  0.80501662712E+02 0.  0.
          5    1    5    5  501    0 -0.13237024048E+02  0.28802664679E+02  0.48601100913E+01  0.32411772065E+02  0.47000000000E+01 0. -1.
        -11    1    6    6    0    0 -0.60336510622E+02 -0.32893123412E+02  0.37414943670E+03  0.38040800868E+03  0.00000000000E+00 0.  1.
         12    1    6    6    0    0  0.11549349709E+02  0.13794010646E+02  0.29851249357E+02  0.34853397203E+02  0.00000000000E+00 0. -1.
         -5    1    3    3    0  503  0.91521367080E+02  0.14322592718E+02  0.27208886335E+02  0.96662871827E+02  0.47000000000E+01 0.  1.
         11    1    4    4    0    0 -0.45785330931E+02  0.13726892340E+02  0.20267503014E+02  0.51918164261E+02  0.00000000000E+00 0. -1.
        -12    1    4    4    0    0  0.16288148813E+02 -0.37753036971E+02  0.35579082688E-01  0.41116868292E+02  0.00000000000E+00 0.  1.
</event>
<event>
12    1  0.8226261E-002  0.2014393E+03  0.7818608E-02  0.1149522E+00
         21   -1    0    0  503  502  0.00000000000E+00  0.00000000000E+00  0.60048735977E+02  0.60048735977E+02  0.00000000000E+00 0.  1.
         21   -1    0    0  501  503 -0.00000000000E+00 -0.00000000000E+00 -0.66046081498E+03  0.66046081498E+03  0.00000000000E+00 0.  1.
          6    2    1    2  501    0  0.67484735493E+02  0.65175074991E+02 -0.30492498969E+03  0.36289186057E+03  0.17294297673E+03 0.  0.
         24    2    3    3    0    0  0.11686530010E+03  0.51545265647E+02 -0.20724559455E+03  0.25249455037E+03  0.66995139591E+02 0.  0.
         -6    2    1    2    0  502 -0.67484735493E+02 -0.65175074991E+02 -0.29548708930E+03  0.35761769038E+03  0.17825771402E+03 0.  0.
        -24    2    5    5    0    0 -0.42334356743E+02 -0.77539441500E+01 -0.51337781871E+02  0.10550521124E+03  0.81507425071E+02 0.  0.
          5    1    3    3  501    0 -0.49380564602E+02  0.13629809344E+02 -0.97679395148E+02  0.11039731020E+03  0.47000000000E+01 0. -1.
        -13    1    4    4    0    0  0.56030483657E+02  0.37606339521E+02 -0.16174753859E+03  0.17525957352E+03  0.00000000000E+00 0.  1.
         14    1    4    4    0    0  0.60834816439E+02  0.13938926126E+02 -0.45498055962E+02  0.77234976850E+02  0.00000000000E+00 0. -1.
         -5    1    5    5    0  502 -0.25150378750E+02 -0.57421130841E+02 -0.24414930743E+03  0.25211247914E+03  0.47000000000E+01 0.  1.
         11    1    6    6    0    0  0.24210554102E+02 -0.73402407087E+01 -0.18196470197E+02  0.31163144759E+02  0.00000000000E+00 0. -1.
        -12    1    6    6    0    0 -0.66544910846E+02 -0.41370344129E+00 -0.33141311674E+02  0.74342066486E+02  0.00000000000E+00 0.  1.
</event>
<event>
12    1  0.8226261E-002  0.3189134E+03  0.7818608E-02  0.1076214E+00
         21   -1    0    0  501  502  0.00000000000E+00  0.00000000000E+00  0.14422211727E+03  0.14422211727E+03  0.00000000000E+00 0.  1.
         21   -1    0    0  502  503 -0.00000000000E+00 -0.00000000000E+00 -0.70797371051E+03  0.70797371051E+03  0.00000000000E+00 0.  1.
         -6    2    1    2    0  503 -0.18858019458E+03  0.19140052554E+03 -0.31357873975E+03  0.44686610606E+03  0.17076603807E+03 0.  0.
        -24    2    3    3    0    0 -0.32601309550E+02  0.92815623373E+02 -0.81209320619E+02  0.15010688976E+03  0.79117250155E+02 0.  0.
          6    2    1    2  501    0  0.18858019458E+03 -0.19140052554E+03 -0.25017285349E+03  0.40532972172E+03  0.17178205880E+03 0.  0.
         24    2    5    5    0    0  0.12172573550E+03 -0.19966459318E+03 -0.22026212135E+03  0.33147475974E+03  0.81712971953E+02 0.  0.
          5    1    5    5  501    0  0.66854459079E+02  0.82640676452E+01 -0.29910732134E+02  0.73854961984E+02  0.47000000000E+01 0. -1.
        -13    1    6    6    0    0  0.12185369310E+02 -0.78286592858E+02 -0.10451942415E+03  0.13115480880E+03  0.00000000000E+00 0.  1.
         14    1    6    6    0    0  0.10954036619E+03 -0.12137800033E+03 -0.11574269721E+03  0.20031995094E+03  0.00000000000E+00 0. -1.
         -5    1    3    3    0  503 -0.15597888503E+03  0.98584902165E+02 -0.23236941913E+03  0.29675921630E+03  0.47000000000E+01 0.  1.
         13    1    4    4    0    0  0.37922452629E+01  0.23822704306E+02 -0.66485141708E+02  0.70726066147E+02  0.00000000000E+00 0. -1.
        -14    1    4    4    0    0 -0.36393554813E+02  0.68992919067E+02 -0.14724178911E+02  0.79380823616E+02  0.00000000000E+00 0.  1.
</event>
<event>
12    1  0.8226261E-002  0.1887496E+03  0.7818608E-02  0.1159660E+00
         21   -1    0    0  501  502  0.00000000000E+00  0.00000000000E+00  0.13965475383E+03  0.13965475383E+03  0.00000000000E+00 0.  1.
         21   -1    0    0  502  503 -0.00000000000E+00 -0.00000000000E+00 -0.33975053354E+03  0.33975053354E+03  0.00000000000E+00 0.  1.
         -6    2    1    2    0  503 -0.46601431426E+02 -0.62248424968E+02 -0.22002642555E+03  0.28989316796E+03  0.17198796780E+03 0.  0.
        -24    2    3    3    0    0  0.45296349921E+02 -0.46843733490E+02 -0.12897275574E+03  0.15952688581E+03  0.67592609725E+02 0.  0.
          6    2    1    2  501    0  0.46601431426E+02  0.62248424968E+02  0.19930645833E+02  0.18951211941E+03  0.17167135153E+03 0.  0.
         24    2    5    5    0    0 -0.33738036163E+02  0.59011082872E+01  0.28144284738E+02  0.90927110336E+02  0.79388667122E+02 0.  0.
          5    1    5    5  501    0  0.80339467589E+02  0.56347316681E+02 -0.82136389044E+01  0.98585009072E+02  0.47000000000E+01 0. -1.
        -13    1    6    6    0    0  0.11386153310E+02  0.32091714585E+02  0.14412053706E+02  0.36976072320E+02  0.00000000000E+00 0.  1.
         14    1    6    6    0    0 -0.45124189473E+02 -0.26190606298E+02  0.13732231032E+02  0.53951038016E+02  0.00000000000E+00 0. -1.
         -5    1    3    3    0  503 -0.91897781347E+02 -0.15404691478E+02 -0.91053669804E+02  0.13036628215E+03  0.47000000000E+01 0.  1.
         13    1    4    4    0    0  0.34418703098E+02 -0.17904201899E+02 -0.15266608694E+02  0.41692648148E+02  0.00000000000E+00 0. -1.
        -14    1    4    4    0    0  0.10877646823E+02 -0.28939531591E+02 -0.11370614705E+03  0.11783423766E+03  0.00000000000E+00 0.  1.
</event>
<event>
12    1  0.8226261E-002  0.1912298E+03  0.7818608E-02  0.1158723E+00
         21   -1    0    0  501  502  0.00000000000E+00  0.00000000000E+00  0.32434812897E+03  0.32434812897E+03  0.00000000000E+00 0.  1.
         21   -1    0    0  502  503 -0.00000000000E+00 -0.00000000000E+00 -0.38177911339E+03  0.38177911339E+03  0.00000000000E+00 0. -1.
         -6    2    1    2    0  503 -0.72160539302E+02  0.27202331711E+02 -0.32688394177E+03  0.37571274480E+03  0.16840381510E+03 0.  0.
        -24    2    3    3    0    0 -0.93668406876E+02  0.31191928671E+02 -0.32795495834E+03  0.35331313927E+03  0.86769884314E+02 0.  0.
          6    2    1    2  501    0  0.72160539302E+02 -0.27202331711E+02  0.26945295735E+03  0.33041449755E+03  0.17499066743E+03 0.  0.
         24    2    5    5    0    0  0.39195849097E+01  0.10568146518E+02  0.44901509176E+02  0.92656469810E+02  0.80262238971E+02 0.  0.
          5    1    5    5  501    0  0.68240954393E+02 -0.37770478229E+02  0.22455144817E+03  0.23775802774E+03  0.47000000000E+01 0. -1.
        -11    1    6    6    0    0 -0.32889331224E+02  0.23060306404E+02  0.33055088952E+02  0.52020426232E+02  0.00000000000E+00 0.  1.
         12    1    6    6    0    0  0.36808916133E+02 -0.12492159886E+02  0.11846420224E+02  0.40636043578E+02  0.00000000000E+00 0. -1.
         -5    1    3    3    0  503  0.21507867574E+02 -0.39895969598E+01  0.10710165684E+01  0.22399605531E+02  0.47000000000E+01 0.  1.
         11    1    4    4    0    0 -0.45494856818E+02  0.22912278823E+02 -0.28084279847E+03  0.28542500235E+03  0.00000000000E+00 0. -1.
        -12    1    4    4    0    0 -0.48173550058E+02  0.82796498472E+01 -0.47112159872E+02  0.67888136921E+02  0.00000000000E+00 0.  1.
</event>
<event>
12    1  0.8226261E-002  0.1925945E+03  0.7818608E-02  0.1160923E+00
         21   -1    0    0  503  502  0.00000000000E+00  0.00000000000E+00  0.96026089256E+02  0.96026089256E+02  0.00000000000E+00 0. -1.
         21   -1    0    0  501  503 -0.00000000000E+00 -0.00000000000E+00 -0.34661824680E+03  0.34661824680E+03  0.00000000000E+00 0. -1.
          6    2    1    2  501    0  0.47497269878E+01  0.12943895053E+02 -0.12958045919E+03  0.23212866774E+03  0.19210028282E+03 0.  0.
         24    2    3    3    0    0  0.37253961108E+02 -0.40001791563E+02 -0.69609141747E+01  0.94588078145E+02  0.76879446243E+02 0.  0.
         -6    2    1    2    0  502 -0.47497269878E+01 -0.12943895053E+02 -0.12101169835E+03  0.21051566831E+03  0.17170588557E+03 0.  0.
        -24    2    5    5    0    0 -0.34943921221E+02 -0.65246003226E+02 -0.66793917815E+02  0.12922078772E+03  0.82209889634E+02 0.  0.
          5    1    3    3  501    0 -0.32504234120E+02  0.52945686616E+02 -0.12261954502E+03  0.13754058960E+03  0.47000000000E+01 0. -1.
        -13    1    4    4    0    0  0.20066776618E+02 -0.45010744106E+01 -0.38790266844E+02  0.43904669416E+02  0.00000000000E+00 0.  1.
         14    1    4    4    0    0  0.17187184490E+02 -0.35500717152E+02  0.31829352670E+02  0.50683408729E+02  0.00000000000E+00 0. -1.
         -5    1    5    5    0  502  0.30194194233E+02  0.52302108173E+02 -0.54217780536E+02  0.81294880595E+02  0.47000000000E+01 0.  1.
         13    1    6    6    0    0  0.12653993162E+02 -0.38227544645E+02 -0.62463627012E+02  0.74318055760E+02  0.00000000000E+00 0. -1.
        -14    1    6    6    0    0 -0.47597914383E+02 -0.27018458580E+02 -0.43302908031E+01  0.54902731955E+02  0.00000000000E+00 0.  1.
</event>
<event>
12    1  0.8226261E-002  0.2052274E+03  0.7818608E-02  0.1146020E+00
         21   -1    0    0  503  502  0.00000000000E+00  0.00000000000E+00  0.34556616886E+03  0.34556616886E+03  0.00000000000E+00 0.  1.
         21   -1    0    0  501  503 -0.00000000000E+00 -0.00000000000E+00 -0.12029192889E+03  0.12029192889E+03  0.00000000000E+00 0. -1.
          6    2    1    2  501    0  0.17986613386E+01 -0.10595213056E+03  0.10262088014E+03  0.22677206088E+03  0.17223656232E+03 0.  0.
         24    2    3    3    0    0 -0.30913412327E+01 -0.11377303585E+03  0.16595869489E+02  0.14012639658E+03  0.80038266205E+02 0.  0.
         -6    2    1    2    0  502 -0.17986613386E+01  0.10595213056E+03  0.12265335983E+03  0.23908603687E+03  0.17575322812E+03 0.  0.
        -24    2    5    5    0    0 -0.63034467642E+02  0.99524157389E+02  0.73465403464E+02  0.16013866285E+03  0.79804910993E+02 0.  0.
          5    1    3    3  501    0  0.48900025713E+01  0.78209052852E+01  0.86025010654E+02  0.86645664304E+02  0.47000000000E+01 0. -1.
        -13    1    4    4    0    0  0.11916320750E+02 -0.11951653123E+03  0.48226539782E+01  0.12020589807E+03  0.00000000000E+00 0.  1.
         14    1    4    4    0    0 -0.15007661983E+02  0.57434953872E+01  0.11773215511E+02  0.19920498511E+02  0.00000000000E+00 0. -1.
         -5    1    5    5    0  502  0.61235806303E+02  0.64279731728E+01  0.49187956370E+02  0.78947374020E+02  0.47000000000E+01 0.  1.
         11    1    6    6    0    0 -0.41301877498E+02  0.83463827537E+02  0.13151742292E+02  0.94047987311E+02  0.00000000000E+00 0. -1.
        -12    1    6    6    0    0 -0.21732590144E+02  0.16060329852E+02  0.60313661172E+02  0.66090675539E+02  0.00000000000E+00 0.  1.
</event>
<event>
12    1  0.8226261E-002  0.2047728E+03  0.7818608E-02  0.1146448E+00
         21   -1    0    0  501  502  0.00000000000E+00  0.00000000000E+00  0.56530508339E+03  0.56530508339E+03  0.00000000000E+00 0.  1.
         21   -1    0    0  502  503 -0.00000000000E+00 -0.00000000000E+00 -0.10884250028E+03  0.10884250028E+03  0.00000000000E+00 0.  1.
         -6    2    1    2    0  503 -0.89933703543E+02  0.58213926023E+02  0.33562970501E+02  0.20427953898E+03  0.17066553501E+03 0.  0.
        -24    2    3    3    0    0 -0.99969075867E+02  0.12326183655E+02 -0.20344192531E+02  0.13262435198E+03  0.83842600367E+02 0.  0.
          6    2    1    2  501    0  0.89933703543E+02 -0.58213926023E+02  0.42289961261E+03  0.46986804468E+03  0.17451350908E+03 0.  0.
         24    2    5    5    0    0  0.49673471246E+02  0.23385023545E+02  0.30269122782E+03  0.31903230406E+03  0.84529986178E+02 0.  0.
          5    1    5    5  501    0  0.40260232297E+02 -0.81598949568E+02  0.12020838479E+03  0.15083574062E+03  0.47000000000E+01 0. -1.
        -11    1    6    6    0    0  0.38538765558E+01 -0.26830320964E+01  0.22555176341E+03  0.22560064052E+03  0.00000000000E+00 0.  1.
         12    1    6    6    0    0  0.45819594690E+02  0.26068055642E+02  0.77139464411E+02  0.93431663541E+02  0.00000000000E+00 0. -1.
         -5    1    3    3    0  503  0.10035372324E+02  0.45887742368E+02  0.53907163032E+02  0.71655186996E+02  0.47000000000E+01 0.  1.
         11    1    4    4    0    0 -0.43085651391E+02  0.14860729754E+02  0.31673155870E+02  0.55501382391E+02  0.00000000000E+00 0. -1.
        -12    1    4    4    0    0 -0.56883424476E+02 -0.25345460988E+01 -0.52017348401E+02  0.77122969593E+02  0.00000000000E+00 0.  1.
</event>
<event>
12    1  0.8226261E-002  0.2349636E+03  0.7818608E-02  0.1123568E+00
         21   -1    0    0  501  502  0.00000000000E+00  0.00000000000E+00  0.10716856535E+03  0.10716856535E+03  0.00000000000E+00 0. -1.
         21   -1    0    0  502  503 -0.00000000000E+00 -0.00000000000E+00 -0.53383539368E+03  0.53383539368E+03  0.00000000000E+00 0.  1.
         -6    2    1    2    0  503 -0.88344689501E+02  0.12957988901E+03 -0.28144123216E+03  0.36662935302E+03  0.17496337769E+03 0.  0.
        -24    2    3    3    0    0 -0.10105398209E+03  0.15258363252E+03 -0.27342441837E+03  0.33875359945E+03  0.80618957862E+02 0.  0.
          6    2    1    2  501    0  0.88344689501E+02 -0.12957988901E+03 -0.14522559617E+03  0.27437460601E+03  0.17203260982E+03 0.  0.
         24    2    5    5    0    0  0.96427859633E+02 -0.49605618549E+02 -0.37435453188E+02  0.13983083432E+03  0.79951232432E+02 0.  0.
          5    1    5    5  501    0 -0.80831701322E+01 -0.79974270457E+02 -0.10779014298E+03  0.13454377168E+03  0.47000000000E+01 0. -1.
        -11    1    6    6    0    0  0.45481729891E+02 -0.46107174107E+02 -0.55876131555E+02  0.85537134249E+02  0.00000000000E+00 0.  1.
         12    1    6    6    0    0  0.50946129742E+02 -0.34984444415E+01  0.18440678367E+02  0.54293700075E+02  0.00000000000E+00 0. -1.
         -5    1    3    3    0  503  0.12709292592E+02 -0.23003743511E+02 -0.80168137907E+01  0.27875753570E+02  0.47000000000E+01 0.  1.
         11    1    4    4    0    0 -0.58108392143E+02  0.35835594267E+02 -0.56175342055E+02  0.88410656083E+02  0.00000000000E+00 0. -1.
        -12    1    4    4    0    0 -0.42945589950E+02  0.11674803825E+03 -0.21724907632E+03  0.25034294337E+03  0.00000000000E+00 0.  1.
</event>
<event>
12    1  0.8226261E-002  0.2857367E+03  0.7818608E-02  0.1092606E+00
         21   -1    0    0  501  502  0.00000000000E+00  0.00000000000E+00  0.13979569855E+03  0.13979569855E+03  0.00000000000E+00 0.  1.
         21   -1    0    0  502  503 -0.00000000000E+00 -0.00000000000E+00 -0.65225786786E+03  0.65225786786E+03  0.00000000000E+00 0.  1.
         -6    2    1    2    0  503  0.37950987023E+02 -0.22480118227E+03 -0.12798496656E+03  0.31302522404E+03  0.17213015497E+03 0.  0.
        -24    2    3    3    0    0  0.23061988529E+01 -0.11748696081E+03 -0.14037340386E+03  0.19917244001E+03  0.78463136796E+02 0.  0.
          6    2    1    2  501    0 -0.37950987023E+02  0.22480118227E+03 -0.38447720275E+03  0.47902834237E+03  0.17224861218E+03 0.  0.
         24    2    5    5    0    0 -0.23703202417E+02  0.23890710981E+03 -0.38301769162E+03  0.45838380967E+03  0.75991551865E+02 0.  0.
          5    1    5    5  501    0 -0.14247784607E+02 -0.14105927534E+02 -0.14595111299E+01  0.20644532703E+02  0.47000000000E+01 0. -1.
        -13    1    6    6    0    0  0.22254119117E+01  0.10505053978E+03 -0.10402547575E+03  0.14785759355E+03  0.00000000000E+00 0.  1.
         14    1    6    6    0    0 -0.25928614328E+02  0.13385657002E+03 -0.27899221587E+03  0.31052621612E+03  0.00000000000E+00 0. -1.
         -5    1    3    3    0  503  0.35644788170E+02 -0.10731422146E+03  0.12388437302E+02  0.11385278402E+03  0.47000000000E+01 0.  1.
         11    1    4    4    0    0  0.19697287341E+02 -0.10167778564E+03 -0.14183618594E+03  0.17562419783E+03  0.00000000000E+00 0. -1.
        -12    1    4    4    0    0 -0.17391088488E+02 -0.15809175174E+02  0.14627820835E+01  0.23548242183E+02  0.00000000000E+00 0.  1.
</event>
<event>
12    1  0.8226261E-002  0.2003279E+03  0.7818608E-02  0.1149602E+00
         21   -1    0    0  501  502  0.00000000000E+00  0.00000000000E+00  0.29674241515E+03  0.29674241515E+03  0.00000000000E+00 0. -1.
         21   -1    0    0  502  503 -0.00000000000E+00 -0.00000000000E+00 -0.15928913267E+03  0.15928913267E+03  0.00000000000E+00 0.  1.
         -6    2    1    2    0  503 -0.18731690098E+02  0.10184468764E+03 -0.20594115330E+02  0.20138363475E+03  0.17148770844E+03 0.  0.
        -24    2    3    3    0    0 -0.37286658403E+02  0.78989527398E+02  0.47096981319E+02  0.12741864463E+03  0.79923369646E+02 0.  0.
          6    2    1    2  501    0  0.18731690098E+02 -0.10184468764E+03  0.15804739782E+03  0.25464791307E+03  0.17071427316E+03 0.  0.
         24    2    5    5    0    0 -0.38322117488E+02 -0.33601842388E+02  0.12396380179E+03  0.15927493783E+03  0.86045413397E+02 0.  0.
          5    1    5    5  501    0  0.57053807585E+02 -0.68242845252E+02  0.34083596028E+02  0.95372975241E+02  0.47000000000E+01 0. -1.
        -11    1    6    6    0    0 -0.25298598637E+02  0.92143867640E+01  0.10870855304E+03  0.11199318515E+03  0.00000000000E+00 0.  1.
         12    1    6    6    0    0 -0.13023518851E+02 -0.42816229152E+02  0.15255248749E+02  0.47281752680E+02  0.00000000000E+00 0. -1.
         -5    1    3    3    0  503  0.18554968305E+02  0.22855160242E+02 -0.67691096649E+02  0.73964990124E+02  0.47000000000E+01 0.  1.
         13    1    4    4    0    0  0.11773803475E+02  0.59003860209E+02  0.43647189998E+02  0.74331387466E+02  0.00000000000E+00 0. -1.
        -14    1    4    4    0    0 -0.49060461878E+02  0.19985667189E+02  0.34497913202E+01  0.53087257161E+02  0.00000000000E+00 0.  1.
</event>
<event>
12    1  0.8226261E-002  0.2100918E+03  0.7818608E-02  0.1141688E+00
         21   -1    0    0  503  502  0.00000000000E+00  0.00000000000E+00  0.55169652025E+02  0.55169652025E+02  0.00000000000E+00 0.  1.
         21   -1    0    0  501  503 -0.00000000000E+00 -0.00000000000E+00 -0.14132413593E+04  0.14132413593E+04  0.00000000000E+00 0.  1.
          6    2    1    2  501    0  0.10457734619E+03  0.55507495895E+02 -0.11632315185E+04  0.11818778087E+04  0.17236613869E+03 0.  0.
         24    2    3    3    0    0  0.79981671492E+01 -0.56181331521E+01 -0.69780834234E+03  0.70260262345E+03  0.81353732146E+02 0.  0.
         -6    2    1    2    0  502 -0.10457734619E+03 -0.55507495895E+02 -0.19484018878E+03  0.28653320258E+03  0.17355423814E+03 0.  0.
        -24    2    5    5    0    0 -0.37609317827E+02  0.25890368287E+02 -0.42173686841E+02  0.10095443242E+03  0.79551276588E+02 0.  0.
          5    1    3    3  501    0  0.96579179037E+02  0.61125629047E+02 -0.46542317613E+03  0.47927518529E+03  0.47000000000E+01 0. -1.
        -13    1    4    4    0    0 -0.40749411426E+01  0.16035320230E+02 -0.63296977091E+03  0.63318596599E+03  0.00000000000E+00 0.  1.
         14    1    4    4    0    0  0.12073108292E+02 -0.21653453382E+02 -0.64838571432E+02  0.69416657457E+02  0.00000000000E+00 0. -1.
         -5    1    5    5    0  502 -0.66968028360E+02 -0.81397864181E+02 -0.15266650194E+03  0.18557877015E+03  0.47000000000E+01 0.  1.
         13    1    6    6    0    0 -0.89838677618E+01 -0.74885971105E+01 -0.54135175155E+02  0.55384168818E+02  0.00000000000E+00 0. -1.
        -14    1    6    6    0    0 -0.28625450065E+02  0.33378965397E+02  0.11961488314E+02  0.45570263605E+02  0.00000000000E+00 0.  1.
</event>
<event>
12    1  0.8226261E-002  0.2719235E+03  0.7818608E-02  0.1101084E+00
         21   -1    0    0  503  502  0.00000000000E+00  0.00000000000E+00  0.32774592458E+03  0.32774592458E+03  0.00000000000E+00 0. -1.
         21   -1    0    0  501  503 -0.00000000000E+00 -0.00000000000E+00 -0.22218928970E+03  0.22218928970E+03  0.00000000000E+00 0.  1.
          6    2    1    2  501    0 -0.19989684405E+03  0.33093234945E+02  0.77823824917E+02  0.28284080852E+03  0.18135177081E+03 0.  0.
         24    2    3    3    0    0 -0.56624367942E+02 -0.21580745126E+02 -0.22495208654E+02  0.99531657068E+02  0.75686648368E+02 0.  0.
         -6    2    1    2    0  502  0.19989684405E+03 -0.33093234945E+02  0.27732809960E+02  0.26709440577E+03  0.17180338292E+03 0.  0.
        -24    2    5    5    0    0  0.31257368185E+02 -0.52610169723E+02  0.31087644386E+02  0.97231141708E+02  0.68866539482E+02 0.  0.
          5    1    3    3  501    0 -0.14327247611E+03  0.54673980071E+02  0.10031903357E+03  0.18330915145E+03  0.47000000000E+01 0. -1.
        -13    1    4    4    0    0 -0.74083584123E+02 -0.18597570605E+02 -0.82977614200E+01  0.76831633547E+02  0.00000000000E+00 0.  1.
         14    1    4    4    0    0  0.17459216180E+02 -0.29831745214E+01 -0.14197447234E+02  0.22700023521E+02  0.00000000000E+00 0. -1.
         -5    1    5    5    0  502  0.16863947587E+03  0.19516934778E+02 -0.33548344257E+01  0.16986326406E+03  0.47000000000E+01 0.  1.
         11    1    6    6    0    0  0.15789217773E+02 -0.14853793496E+02  0.48304174104E+02  0.52945517421E+02  0.00000000000E+00 0. -1.
        -12    1    6    6    0    0  0.15468150412E+02 -0.37756376227E+02 -0.17216529718E+02  0.44285624287E+02  0.00000000000E+00 0.  1.
</event>
<event>
12    1  0.8226261E-002  0.2545058E+03  0.7818608E-02  0.1110555E+00
         21   -1    0    0  503  502  0.00000000000E+00  0.00000000000E+00  0.20390576496E+03  0.20390576496E+03  0.00000000000E+00 0.  1.
         21   -1    0    0  501  503 -0.00000000000E+00 -0.00000000000E+00 -0.32899763171E+03  0.32899763171E+03  0.00000000000E+00 0. -1.
          6    2    1    2  501    0 -0.93321381059E+02 -0.16186836214E+03 -0.11318847103E+03  0.27854056336E+03  0.17280905254E+03 0.  0.
         24    2    3    3    0    0 -0.10746302491E+03 -0.73795846965E+02 -0.10983650466E+03  0.18915331763E+03  0.81980430979E+02 0.  0.
         -6    2    1    2    0  502  0.93321381059E+02  0.16186836214E+03 -0.11903395721E+02  0.25436283330E+03  0.17218743657E+03 0.  0.
        -24    2    5    5    0    0  0.80400942231E+02  0.18056076734E+03 -0.42097922287E+02  0.21628208770E+03  0.77066232455E+02 0.  0.
          5    1    3    3  501    0  0.14141643854E+02 -0.88072515179E+02 -0.33519663729E+01  0.89387245731E+02  0.47000000000E+01 0. -1.
        -13    1    4    4    0    0 -0.29453028446E+02 -0.64347053454E+02 -0.29182739639E+02  0.76548392967E+02  0.00000000000E+00 0.  1.
         14    1    4    4    0    0 -0.78009996466E+02 -0.94487935103E+01 -0.80653765018E+02  0.11260492467E+03  0.00000000000E+00 0. -1.
         -5    1    5    5    0  502  0.12920438828E+02 -0.18692405194E+02  0.30194526565E+02  0.38080745606E+02  0.47000000000E+01 0.  1.
         13    1    6    6    0    0  0.86214367845E+02  0.10335267817E+03 -0.23100173393E+02  0.13655882000E+03  0.00000000000E+00 0. -1.
        -14    1    6    6    0    0 -0.58134256135E+01  0.77208089163E+02 -0.18997748893E+02  0.79723267699E+02  0.00000000000E+00 0.  1.
</event>
<event>
12    1  0.8226261E-002  0.2897462E+03  0.7818608E-02  0.1090511E+00
         21   -1    0    0  501  502  0.00000000000E+00  0.00000000000E+00  0.16965679099E+04  0.16965679099E+04  0.00000000000E+00 0. -1.
         21   -1    0    0  502  503 -0.00000000000E+00 -0.00000000000E+00 -0.94492153828E+02  0.94492153828E+02  0.00000000000E+00 0.  1.
         -6    2    1    2    0  503  0.28757289154E+02 -0.23124413270E+03  0.14195230128E+04  0.14487920670E+04  0.17219767382E+03 0.  0.
        -24    2    3    3    0    0  0.60907823496E+02 -0.23053897319E+03  0.11425087246E+04  0.11698778150E+04  0.80186875671E+02 0.  0.
          6    2    1    2  501    0 -0.28757289154E+02  0.23124413270E+03  0.18255274323E+03  0.34226799671E+03  0.17181689942E+03 0.  0.
         24    2    5    5    0    0  0.90076608634E+01  0.20227483940E+03  0.19613831327E+03  0.29254809006E+03  0.78216995983E+02 0.  0.
          5    1    5    5  501    0 -0.37764950017E+02  0.28969293303E+02 -0.13585570037E+02  0.49719906652E+02  0.47000000000E+01 0. -1.
        -11    1    6    6    0    0 -0.10016915809E+02  0.14347087911E+03  0.17654647252E+03  0.22771229372E+03  0.00000000000E+00 0.  1.
         12    1    6    6    0    0  0.19024576672E+02  0.58803960284E+02  0.19591840752E+02  0.64835796337E+02  0.00000000000E+00 0. -1.
         -5    1    3    3    0  503 -0.32150534342E+02 -0.70515950717E+00  0.27701428821E+03  0.27891425202E+03  0.47000000000E+01 0.  1.
         11    1    4    4    0    0  0.28418873524E+02 -0.16332429119E+03  0.92944449418E+03  0.94411308869E+03  0.00000000000E+00 0. -1.
        -12    1    4    4    0    0  0.32488949972E+02 -0.67214682004E+02  0.21306423046E+03  0.22576472631E+03  0.00000000000E+00 0.  1.
</event>
<event>
12    1  0.8226261E-002  0.2277418E+03  0.7818608E-02  0.1128354E+00
         21   -1    0    0  501  502  0.00000000000E+00  0.00000000000E+00  0.23271124088E+03  0.23271124088E+03  0.00000000000E+00 0.  1.
         21   -1    0    0  502  503 -0.00000000000E+00 -0.00000000000E+00 -0.35143495897E+03  0.35143495897E+03  0.00000000000E+00 0.  1.
         -6    2    1    2    0  503  0.21149099111E+02 -0.15149578792E+03 -0.23639232885E+03  0.32780225119E+03  0.16785328295E+03 0.  0.
        -24    2    3    3    0    0  0.56172816710E+02 -0.12199244562E+03 -0.10322075379E+03  0.18689850247E+03  0.78987240016E+02 0.  0.
          6    2    1    2  501    0 -0.21149099111E+02  0.15149578792E+03  0.11766861075E+03  0.25634394866E+03  0.16872480526E+03 0.  0.
         24    2    5    5    0    0  0.18994552653E+02  0.50763864750E+02 -0.79875492867E+00  0.95673354423E+02  0.78835206236E+02 0.  0.
          5    1    5    5  501    0 -0.40143651764E+02  0.10073192317E+03  0.11846736568E+03  0.16067059424E+03  0.47000000000E+01 0. -1.
        -13    1    6    6    0    0 -0.71974755401E+01  0.47581227545E+02  0.28752094884E+02  0.56057647373E+02  0.00000000000E+00 0.  1.
         14    1    6    6    0    0  0.26192028193E+02  0.31826372055E+01 -0.29550849812E+02  0.39615707050E+02  0.00000000000E+00 0. -1.
         -5    1    3    3    0  503 -0.35023717599E+02 -0.29503342294E+02 -0.13317157506E+03  0.14090374872E+03  0.47000000000E+01 0.  1.
         11    1    4    4    0    0  0.62877742774E+02 -0.43584676191E+02 -0.42635857026E+02  0.87584535389E+02  0.00000000000E+00 0. -1.
        -12    1    4    4    0    0 -0.67049260637E+01 -0.78407769433E+02 -0.60584896764E+02  0.99313967079E+02  0.00000000000E+00 0.  1.
</event>
<event>
12    1  0.8226261E-002  0.2097555E+03  0.7818608E-02  0.1141838E+00
         21   -1    0    0  503  502  0.00000000000E+00  0.00000000000E+00  0.93982186937E+03  0.93982186937E+03  0.00000000000E+00 0. -1.
         21   -1    0    0  501  503 -0.00000000000E+00 -0.00000000000E+00 -0.75088559327E+02  0.75088559327E+02  0.00000000000E+00 0.  1.
          6    2    1    2  501    0 -0.11903409613E+03 -0.13456829106E+02  0.12024481067E+03  0.24143743285E+03  0.17170619441E+03 0.  0.
         24    2    3    3    0    0 -0.24901714605E+02 -0.36613230401E+02 -0.10348104885E+01  0.86105656710E+02  0.73840972733E+02 0.  0.
         -6    2    1    2    0  502  0.11903409613E+03  0.13456829106E+02  0.74448849938E+03  0.77347299585E+03  0.17218346990E+03 0.  0.
        -24    2    5    5    0    0  0.12264999465E+02 -0.38659236858E+02  0.33044913378E+03  0.34269879676E+03  0.81245728987E+02 0.  0.
          5    1    3    3  501    0 -0.94132381520E+02  0.23156401295E+02  0.12127962115E+03  0.15533177614E+03  0.47000000000E+01 0. -1.
        -13    1    4    4    0    0 -0.25049799762E+02  0.16321766019E+02 -0.11701685236E+02  0.32106416048E+02  0.00000000000E+00 0.  1.
         14    1    4    4    0    0  0.14808515668E+00 -0.52934996420E+02  0.10666874748E+02  0.53999240662E+02  0.00000000000E+00 0. -1.
         -5    1    5    5    0  502  0.10676909666E+03  0.52116065965E+02  0.41403936560E+03  0.43077419909E+03  0.47000000000E+01 0.  1.
         11    1    6    6    0    0  0.41856146863E+02 -0.43608560144E+02  0.20605686474E+03  0.21473955168E+03  0.00000000000E+00 0. -1.
        -12    1    6    6    0    0 -0.29591147398E+02  0.49493232853E+01  0.12439226903E+03  0.12795924507E+03  0.00000000000E+00 0.  1.
</event>
<event>
12    1  0.8226261E-002  0.1775604E+03  0.7818608E-02  0.1170929E+00
         21   -1    0    0  501  502  0.00000000000E+00  0.00000000000E+00  0.66711013728E+03  0.66711013728E+03  0.00000000000E+00 0. -1.
         21   -1    0    0  502  503 -0.00000000000E+00 -0.00000000000E+00 -0.13031620358E+03  0.13031620358E+03  0.00000000000E+00 0. -1.
         -6    2    1    2    0  503 -0.14758747456E+02  0.33709249243E+02 -0.50609140601E+02  0.18463203227E+03  0.17370540612E+03 0.  0.
        -24    2    3    3    0    0 -0.30729313370E+01 -0.49979428930E+02  0.67288145644E+01  0.82406378663E+02  0.65101060481E+02 0.  0.
          6    2    1    2  501    0  0.14758747456E+02 -0.33709249243E+02  0.58740307430E+03  0.61279430859E+03  0.17064688344E+03 0.  0.
         24    2    5    5    0    0  0.49932596879E+02 -0.37614238210E+02  0.55651377015E+03  0.56558532922E+03  0.79190233715E+02 0.  0.
          5    1    5    5  501    0 -0.35173849422E+02  0.39049889674E+01  0.30889304151E+02  0.47208979368E+02  0.47000000000E+01 0. -1.
        -11    1    6    6    0    0 -0.84315612775E+01 -0.12386718678E+02  0.18405637050E+02  0.23733720745E+02  0.00000000000E+00 0.  1.
         12    1    6    6    0    0  0.58364158156E+02 -0.25227519532E+02  0.53810813310E+03  0.54185160848E+03  0.00000000000E+00 0. -1.
         -5    1    3    3    0  503 -0.11685816119E+02  0.83688678173E+02 -0.57337955165E+02  0.10222565361E+03  0.47000000000E+01 0.  1.
         13    1    4    4    0    0 -0.10427851307E+02 -0.35932847614E+02 -0.26323634596E+02  0.45747604952E+02  0.00000000000E+00 0. -1.
        -14    1    4    4    0    0  0.73549199695E+01 -0.14046581316E+02  0.33052449161E+02  0.36658773711E+02  0.00000000000E+00 0.  1.
</event>
<event>
12    1  0.8226261E-002  0.1780685E+03  0.7818608E-02  0.1170153E+00
         21   -1    0    0  503  502  0.00000000000E+00  0.00000000000E+00  0.26870750616E+04  0.26870750616E+04  0.00000000000E+00 0.  1.
         21   -1    0    0  501  503 -0.00000000000E+00 -0.00000000000E+00 -0.63047013958E+02  0.63047013958E+02  0.00000000000E+00 0.  1.
          6    2    1    2  501    0 -0.24878484883E+01 -0.30538917147E+02  0.72086176129E+02  0.19210622610E+03  0.17541257215E+03 0.  0.
         24    2    3    3    0    0 -0.68987825198E+01 -0.96023705847E+01 -0.30981918444E+02  0.86735843927E+02  0.80146295174E+02 0.  0.
         -6    2    1    2    0  502  0.24878484883E+01  0.30538917147E+02  0.25519418715E+04  0.25580158494E+04  0.17349050587E+03 0.  0.
        -24    2    5    5    0    0  0.38584883585E+02  0.72071720491E+02  0.13390434849E+04  0.13438607704E+04  0.79001200528E+02 0.  0.
          5    1    3    3  501    0  0.44109340315E+01 -0.20936546562E+02  0.10306809457E+03  0.10537038218E+03  0.47000000000E+01 0. -1.
        -11    1    4    4    0    0  0.33157070436E+02  0.20854987746E+01 -0.30359639937E+02  0.45004981526E+02  0.00000000000E+00 0.  1.
         12    1    4    4    0    0 -0.40055852956E+02 -0.11687869359E+02 -0.62227850700E+00  0.41730862401E+02  0.00000000000E+00 0. -1.
         -5    1    5    5    0  502 -0.36097035097E+02 -0.41532803344E+02  0.12128983866E+04  0.12141550790E+04  0.47000000000E+01 0.  1.
         13    1    6    6    0    0  0.32004363578E+01 -0.10041131907E+02  0.30564225603E+02  0.32330156349E+02  0.00000000000E+00 0. -1.
        -14    1    6    6    0    0  0.35384447228E+02  0.82112852398E+02  0.13084792593E+04  0.13115306141E+04  0.00000000000E+00 0.  1.
</event>
<event>
12    1  0.8226261E-002  0.2201632E+03  0.7818608E-02  0.1134001E+00
         21   -1    0    0  503  502  0.00000000000E+00  0.00000000000E+00  0.82459168154E+03  0.82459168154E+03  0.00000000000E+00 0. -1.
         21   -1    0    0  501  503 -0.00000000000E+00 -0.00000000000E+00 -0.10398262505E+03  0.10398262505E+03  0.00000000000E+00 0. -1.
          6    2    1    2  501    0 -0.12738750695E+03 -0.48738887401E+02  0.53634315822E+02  0.22660202020E+03  0.17282586511E+03 0.  0.
         24    2    3    3    0    0 -0.78310325898E+02 -0.57103726604E+02  0.99985697861E+02  0.15841785157E+03  0.75536303747E+02 0.  0.
         -6    2    1    2    0  502  0.12738750695E+03  0.48738887401E+02  0.66697474067E+03  0.70197228640E+03  0.17119208542E+03 0.  0.
        -24    2    5    5    0    0  0.13695982577E+03  0.12746983597E+02  0.62748175778E+03  0.64748529598E+03  0.81137985580E+02 0.  0.
          5    1    3    3  501    0 -0.49077181050E+02  0.83648392030E+01 -0.46351382039E+02  0.68184168629E+02  0.47000000000E+01 0. -1.
        -11    1    4    4    0    0 -0.25252043743E+02 -0.49670357670E+02  0.86960415559E+02  0.10328080179E+03  0.00000000000E+00 0.  1.
         12    1    4    4    0    0 -0.53058282155E+02 -0.74333689336E+01  0.13025282302E+02  0.55137049776E+02  0.00000000000E+00 0. -1.
         -5    1    5    5    0  502 -0.95723188179E+01  0.35991903804E+02  0.39492982890E+02  0.54486990416E+02  0.47000000000E+01 0.  1.
         11    1    6    6    0    0  0.11414634984E+02  0.28331481691E+02  0.17524616038E+03  0.17788812067E+03  0.00000000000E+00 0. -1.
        -12    1    6    6    0    0  0.12554519078E+03 -0.15584498095E+02  0.45223559739E+03  0.46959717531E+03  0.00000000000E+00 0.  1.
</event>
<event>
12    1  0.8226261E-002  0.1816145E+03  0.7818608E-02  0.1166319E+00
         21   -1    0    0  503  502  0.00000000000E+00  0.00000000000E+00  0.70194534611E+03  0.70194534611E+03  0.00000000000E+00 0.  1.
         21   -1    0    0  501  503 -0.00000000000E+00 -0.00000000000E+00 -0.47835119752E+02  0.47835119752E+02  0.00000000000E+00 0.  1.
          6    2    1    2  501    0  0.41057182795E+02 -0.39660853730E+02  0.27478253626E+03  0.32921736486E+03  0.17210449011E+03 0.  0.
         24    2    3    3    0    0 -0.22065185660E+02  0.26451809086E+02  0.16297352732E+03  0.18472285956E+03  0.79847314373E+02 0.  0.
         -6    2    1    2    0  502 -0.41057182795E+02  0.39660853730E+02  0.37932769009E+03  0.42056310099E+03  0.17240983113E+03 0.  0.
        -24    2    5    5    0    0 -0.72736908788E+02  0.11948956562E+02  0.35637769538E+03  0.37239312548E+03  0.78981913612E+02 0.  0.
          5    1    3    3  501    0  0.63122368455E+02 -0.66112662816E+02  0.11180900894E+03  0.14449450531E+03  0.47000000000E+01 0. -1.
        -11    1    4    4    0    0 -0.36820685046E+02  0.46259859488E+02  0.13515359515E+03  0.14752027566E+03  0.00000000000E+00 0.  1.
         12    1    4    4    0    0  0.14755499386E+02 -0.19808050402E+02  0.27819932171E+02  0.37202583901E+02  0.00000000000E+00 0. -1.
         -5    1    5    5    0  502  0.31679725993E+02  0.27711897169E+02  0.22949994710E+02  0.48169975512E+02  0.47000000000E+01 0.  1.
         13    1    6    6    0    0 -0.22269131450E+01  0.14819932388E+02  0.20308539916E+03  0.20363759204E+03  0.00000000000E+00 0. -1.
        -14    1    6    6    0    0 -0.70509995643E+02 -0.28709758265E+01  0.15329229622E+03  0.16875553344E+03  0.00000000000E+00 0.  1.
</event>
<event>
12    1  0.8226261E-002  0.1773595E+03  0.7818608E-02  0.1171440E+00
         21   -1    0    0  503  502  0.00000000000E+00  0.00000000000E+00  0.59916630146E+02  0.59916630146E+02  0.00000000000E+00 0.  1.
         21   -1    0    0  501  503 -0.00000000000E+00 -0.00000000000E+00 -0.66551099592E+03  0.66551099592E+03  0.00000000000E+00 0.  1.
          6    2    1    2  501    0  0.14899525658E+02  0.39791774639E+02 -0.13173540724E+03  0.22093123242E+03  0.17219468849E+03 0.  0.
         24    2    3    3    0    0  0.70150886374E+02  0.46658486196E+02 -0.61705848080E+02  0.13134276360E+03  0.79656441488E+02 0.  0.
         -6    2    1    2    0  502 -0.14899525658E+02 -0.39791774639E+02 -0.47385895854E+03  0.50449639365E+03  0.16783598370E+03 0.  0.
        -24    2    5    5    0    0 -0.50520369211E+02 -0.50909891860E+02 -0.19236420640E+03  0.22050019207E+03  0.80450121243E+02 0.  0.
          5    1    3    3  501    0 -0.55251360716E+02 -0.68667115563E+01 -0.70029559157E+02  0.89588468814E+02  0.47000000000E+01 0. -1.
        -11    1    4    4    0    0  0.70581712336E+02  0.39838421524E+02 -0.12909575593E+02  0.82070305761E+02  0.00000000000E+00 0.  1.
         12    1    4    4    0    0 -0.43082596123E+00  0.68200646718E+01 -0.48796272488E+02  0.49272457842E+02  0.00000000000E+00 0. -1.
         -5    1    5    5    0  502  0.35620843553E+02  0.11118117220E+02 -0.28149475214E+03  0.28399620158E+03  0.47000000000E+01 0.  1.
         13    1    6    6    0    0 -0.38811086259E+02 -0.75522717308E+01 -0.24008995359E+02  0.46257638105E+02  0.00000000000E+00 0. -1.
        -14    1    6    6    0    0 -0.11709282952E+02 -0.43357620129E+02 -0.16835521104E+03  0.17424255397E+03  0.00000000000E+00 0.  1.
</event>
<event>
12    1  0.8226261E-002  0.1794286E+03  0.7818608E-02  0.1169405E+00
         21   -1    0    0  503  502  0.00000000000E+00  0.00000000000E+00  0.77184289483E+02  0.77184289483E+02  0.00000000000E+00 0.  1.
         21   -1    0    0  501  503 -0.00000000000E+00 -0.00000000000E+00 -0.41213425212E+03  0.41213425212E+03  0.00000000000E+00 0.  1.
          6    2    1    2  501    0  0.43690338504E+02  0.28811366589E+00 -0.13892283491E+03  0.22357192924E+03  0.16963468041E+03 0.  0.
         24    2    3    3    0    0 -0.32257784240E+02  0.19989540879E+02 -0.10752729324E+03  0.13893131476E+03  0.79370303275E+02 0.  0.
         -6    2    1    2    0  502 -0.43690338504E+02 -0.28811366589E+00 -0.19602712772E+03  0.26574661236E+03  0.17402786699E+03 0.  0.
        -24    2    5    5    0    0 -0.60393534788E+02  0.58511265979E+02 -0.13316403176E+03  0.17793873887E+03  0.82816593413E+02 0.  0.
          5    1    3    3  501    0  0.75948122744E+02 -0.19701427213E+02 -0.31395541673E+02  0.84640614480E+02  0.47000000000E+01 0. -1.
        -11    1    4    4    0    0 -0.40096286332E+02  0.69987082487E+01 -0.12325081550E+02  0.42527658411E+02  0.00000000000E+00 0.  1.
         12    1    4    4    0    0  0.78385020919E+01  0.12990832630E+02 -0.95202211691E+02  0.96403656353E+02  0.00000000000E+00 0. -1.
         -5    1    5    5    0  502  0.16703196283E+02 -0.58799379645E+02 -0.62863095957E+02  0.87807873485E+02  0.47000000000E+01 0.  1.
         11    1    6    6    0    0 -0.55490220628E+02  0.54740362719E+02 -0.45902699007E+02  0.90458441685E+02  0.00000000000E+00 0. -1.
        -12    1    6    6    0    0 -0.49033141596E+01  0.37709032598E+01 -0.87261332757E+02  0.87480297185E+02  0.00000000000E+00 0.  1.
</event>
<event>
12    1  0.8226261E-002  0.1974419E+03  0.7818608E-02  0.1153237E+00
         21   -1    0    0  501  502  0.00000000000E+00  0.00000000000E+00  0.16445589113E+04  0.16445589113E+04  0.00000000000E+00 0.  1.
         21   -1    0    0  502  503 -0.00000000000E+00 -0.00000000000E+00 -0.68946791563E+02  0.68946791563E+02  0.00000000000E+00 0.  1.
         -6    2    1    2    0  503  0.46964446172E+02 -0.85530648587E+02  0.84208721581E+02  0.20908973688E+03  0.16463978325E+03 0.  0.
        -24    2    3    3    0    0 -0.18994145797E+01  0.12360991848E+02  0.48550946904E+02  0.93920222475E+02  0.79419215869E+02 0.  0.
          6    2    1    2  501    0 -0.46964446172E+02  0.85530648587E+02  0.14914033981E+04  0.15044159660E+04  0.17164542407E+03 0.  0.
         24    2    5    5    0    0 -0.13412683503E+02  0.12020284800E+03  0.83523649310E+03  0.84646081593E+03  0.65171226349E+02 0.  0.
          5    1    5    5  501    0 -0.33551762669E+02 -0.34672199414E+02  0.65616690504E+03  0.65795515004E+03  0.47000000000E+01 0. -1.
        -11    1    6    6    0    0 -0.17744195324E+02  0.88030757113E+02  0.74815916959E+03  0.75352930514E+03  0.00000000000E+00 0.  1.
         12    1    6    6    0    0  0.43315118212E+01  0.32172090888E+02  0.87077323509E+02  0.92931510782E+02  0.00000000000E+00 0. -1.
         -5    1    3    3    0  503  0.48863860752E+02 -0.97891640435E+02  0.35657774677E+02  0.11516951441E+03  0.47000000000E+01 0.  1.
         11    1    4    4    0    0 -0.26880845163E+01  0.69796318664E+01  0.70709487717E+02  0.71103957081E+02  0.00000000000E+00 0. -1.
        -12    1    4    4    0    0  0.78866993656E+00  0.53813599817E+01 -0.22158540814E+02  0.22816265394E+02  0.00000000000E+00 0.  1.
</event>
<event>
12    1  0.8226261E-002  0.1737433E+03  0.7818608E-02  0.1174745E+00
         21   -1    0    0  503  502  0.00000000000E+00  0.00000000000E+00  0.10345060482E+03  0.10345060482E+03  0.00000000000E+00 0. -1.
         21   -1    0    0  501  503 -0.00000000000E+00 -0.00000000000E+00 -0.95981282476E+03  0.95981282476E+03  0.00000000000E+00 0. -1.
          6    2    1    2  501    0  0.14803220214E+02  0.77822994266E+01 -0.87222633231E+03  0.88879737016E+03  0.17000673784E+03 0.  0.
         24    2    3    3    0    0  0.34008515577E+01 -0.17150549874E+02 -0.19808545082E+03  0.21408285343E+03  0.79296375419E+02 0.  0.
         -6    2    1    2    0  502 -0.14803220214E+02 -0.77822994266E+01  0.15864112370E+02  0.17446605942E+03  0.17293650949E+03 0.  0.
        -24    2    5    5    0    0  0.54616857687E+02 -0.27008799742E+02  0.20901731310E+02  0.10210396206E+03  0.79220327498E+02 0.  0.
          5    1    3    3  501    0  0.11402368656E+02  0.24932849301E+02 -0.67414088149E+03  0.67471451672E+03  0.47000000000E+01 0. -1.
        -13    1    4    4    0    0  0.17426279244E+02  0.27197312211E+02 -0.56852450831E+02  0.65387844170E+02  0.00000000000E+00 0.  1.
         14    1    4    4    0    0 -0.14025427686E+02 -0.44347862085E+02 -0.14123299999E+03  0.14869500926E+03  0.00000000000E+00 0. -1.
         -5    1    5    5    0  502 -0.69420077901E+02  0.19226500315E+02 -0.50376189392E+01  0.72362097362E+02  0.47000000000E+01 0.  1.
         11    1    6    6    0    0  0.42366940431E+02 -0.54779008465E+02  0.10636556496E+02  0.70063069759E+02  0.00000000000E+00 0. -1.
        -12    1    6    6    0    0  0.12249917256E+02  0.27770208723E+02  0.10265174814E+02  0.32040892298E+02  0.00000000000E+00 0.  1.
</event>
<event>
12    1  0.8226261E-002  0.1958405E+03  0.7818608E-02  0.1157597E+00
         21   -1    0    0  501  502  0.00000000000E+00  0.00000000000E+00  0.12959703262E+04  0.12959703262E+04  0.00000000000E+00 0.  1.
         21   -1    0    0  502  503 -0.00000000000E+00 -0.00000000000E+00 -0.32417367562E+02  0.32417367562E+02  0.00000000000E+00 0.  1.
         -6    2    1    2    0  503  0.36915993406E+02 -0.16901058144E+02  0.38247450982E+03  0.42969785629E+03  0.19158564848E+03 0.  0.
        -24    2    3    3    0    0  0.57517207455E+02  0.55413358656E+02  0.17164455542E+03  0.20581140165E+03  0.80731717282E+02 0.  0.
          6    2    1    2  501    0 -0.36915993406E+02  0.16901058144E+02  0.88107844879E+03  0.89868983744E+03  0.17232456198E+03 0.  0.
         24    2    5    5    0    0 -0.21402450532E+02  0.77479410596E+02  0.54755047783E+03  0.55931776403E+03  0.81016735513E+02 0.  0.
          5    1    5    5  501    0 -0.15513542874E+02 -0.60578352451E+02  0.33352797097E+03  0.33937207342E+03  0.47000000000E+01 0. -1.
        -11    1    6    6    0    0 -0.37489823439E+02  0.41753832793E+01  0.22591816836E+03  0.22904571483E+03  0.00000000000E+00 0.  1.
         12    1    6    6    0    0  0.16087372907E+02  0.73304027316E+02  0.32163230947E+03  0.33027204920E+03  0.00000000000E+00 0. -1.
         -5    1    3    3    0  503 -0.20601214049E+02 -0.72314416800E+02  0.21082995440E+03  0.22388645464E+03  0.47000000000E+01 0.  1.
         13    1    4    4    0    0 -0.19861578709E+02  0.47818897540E+01  0.40270581757E+02  0.45156046477E+02  0.00000000000E+00 0. -1.
        -14    1    4    4    0    0  0.77378786164E+02  0.50631468902E+02  0.13137397366E+03  0.16065535518E+03  0.00000000000E+00 0.  1.
</event>
<event>
12    1  0.8226261E-002  0.1933969E+03  0.7818608E-02  0.1156118E+00
         21   -1    0    0  503  502  0.00000000000E+00  0.00000000000E+00  0.70002791991E+02  0.70002791991E+02  0.00000000000E+00 0. -1.
         21   -1    0    0  501  503 -0.00000000000E+00 -0.00000000000E+00 -0.82552648027E+03  0.82552648027E+03  0.00000000000E+00 0. -1.
          6    2    1    2  501    0  0.62522073391E+02 -0.50355596001E+02 -0.64561952639E+03  0.67308538358E+03  0.17255336864E+03 0.  0.
         24    2    3    3    0    0  0.98015912407E+02 -0.51922898271E+02 -0.35388662539E+03  0.37915946678E+03  0.78886318001E+02 0.  0.
         -6    2    1    2    0  502 -0.62522073391E+02  0.50355596001E+02 -0.10990416189E+03  0.22244388868E+03  0.17594789882E+03 0.  0.
        -24    2    5    5    0    0 -0.89501620006E+02  0.58403304093E+02 -0.29986021986E+02  0.13758129016E+03  0.81289384148E+02 0.  0.
          5    1    3    3  501    0 -0.35493839016E+02  0.15673022704E+01 -0.29173290100E+03  0.29392591681E+03  0.47000000000E+01 0. -1.
        -11    1    4    4    0    0  0.29943527574E+02 -0.45408244297E+02 -0.79132939346E+02  0.96023671994E+02  0.00000000000E+00 0.  1.
         12    1    4    4    0    0  0.68072384833E+02 -0.65146539743E+01 -0.27475368604E+03  0.28313579478E+03  0.00000000000E+00 0. -1.
         -5    1    5    5    0  502  0.26979546615E+02 -0.80477080929E+01 -0.79918139903E+02  0.84862598514E+02  0.47000000000E+01 0.  1.
         11    1    6    6    0    0 -0.41275505041E+02  0.59591723303E+02 -0.47039452943E+02  0.86414992540E+02  0.00000000000E+00 0. -1.
        -12    1    6    6    0    0 -0.48226114965E+02 -0.11884192091E+01  0.17053430957E+02  0.51166297621E+02  0.00000000000E+00 0.  1.
</event>
<event>
12    1  0.8226261E-002  0.2155500E+03  0.7818608E-02  0.1138023E+00
         21   -1    0    0  501  502  0.00000000000E+00  0.00000000000E+00  0.49372303258E+02  0.49372303258E+02  0.00000000000E+00 0.  1.
         21   -1    0    0  502  503 -0.00000000000E+00 -0.00000000000E+00 -0.11027512164E+04  0.11027512164E+04  0.00000000000E+00 0.  1.
         -6    2    1    2    0  503  0.61150054554E+02  0.11026890227E+03 -0.75473893385E+03  0.78381979241E+03  0.16983535771E+03 0.  0.
        -24    2    3    3    0    0  0.57236377711E+02  0.93624518050E+01 -0.50096531775E+03  0.51065213906E+03  0.80222809085E+02 0.  0.
          6    2    1    2  501    0 -0.61150054554E+02 -0.11026890227E+03 -0.29863997933E+03  0.36830372729E+03  0.17482344894E+03 0.  0.
         24    2    5    5    0    0 -0.10025481033E+03 -0.11109920641E+03 -0.20913757075E+03  0.27051496274E+03  0.83939030904E+02 0.  0.
          5    1    5    5  501    0  0.39104755775E+02  0.83030413981E+00 -0.89502408579E+02  0.97788764542E+02  0.47000000000E+01 0. -1.
        -11    1    6    6    0    0 -0.77980019518E+02 -0.10389963166E+03 -0.11495460434E+03  0.17346635974E+03  0.00000000000E+00 0.  1.
         12    1    6    6    0    0 -0.22274790811E+02 -0.71995747461E+01 -0.94182966410E+02  0.97048602998E+02  0.00000000000E+00 0. -1.
         -5    1    3    3    0  503  0.39136768427E+01  0.10090645046E+03 -0.25377361610E+03  0.27316765336E+03  0.47000000000E+01 0.  1.
         11    1    4    4    0    0 -0.43550091792E+01 -0.92810358425E+01 -0.67720732797E+01  0.12286769623E+02  0.00000000000E+00 0. -1.
        -12    1    4    4    0    0  0.61591386890E+02  0.18643487648E+02 -0.49419324447E+03  0.49836536943E+03  0.00000000000E+00 0.  1.
</event>
<event>
12    1  0.8226261E-002  0.1880542E+03  0.7818608E-02  0.1162068E+00
         21   -1    0    0  503  502  0.00000000000E+00  0.00000000000E+00  0.68071144451E+02  0.68071144451E+02  0.00000000000E+00 0. -1.
         21   -1    0    0  501  503 -0.00000000000E+00 -0.00000000000E+00 -0.55375092659E+03  0.55375092659E+03  0.00000000000E+00 0. -1.
          6    2    1    2  501    0 -0.46842127308E+02 -0.10357263887E+02 -0.34613241224E+03  0.39391878726E+03  0.18183208282E+03 0.  0.
         24    2    3    3    0    0 -0.14742879351E+02  0.46670683373E+02 -0.96488899032E+02  0.13579764869E+03  0.82069413151E+02 0.  0.
         -6    2    1    2    0  502  0.46842127308E+02  0.10357263887E+02 -0.13954736989E+03  0.22790328378E+03  0.17368068548E+03 0.  0.
        -24    2    5    5    0    0  0.83529623779E+01 -0.40252788289E+02 -0.13185312427E+03  0.16368424755E+03  0.87847752232E+02 0.  0.
          5    1    3    3  501    0 -0.32099247957E+02 -0.57027947260E+02 -0.24964351321E+03  0.25812113857E+03  0.47000000000E+01 0. -1.
        -13    1    4    4    0    0 -0.11320530537E+02 -0.11124192985E+02  0.68965052916E+01  0.17305024312E+02  0.00000000000E+00 0.  1.
         14    1    4    4    0    0 -0.34223488140E+01  0.57794876358E+02 -0.10338540432E+03  0.11849262438E+03  0.00000000000E+00 0. -1.
         -5    1    5    5    0  502  0.38489164930E+02  0.50610052176E+02 -0.76942456274E+01  0.64219036228E+02  0.47000000000E+01 0.  1.
         11    1    6    6    0    0  0.27477571529E+02  0.82947722218E+01 -0.96446493703E+02  0.10062676747E+03  0.00000000000E+00 0. -1.
        -12    1    6    6    0    0 -0.19124609151E+02 -0.48547560510E+02 -0.35406630563E+02  0.63057480084E+02  0.00000000000E+00 0.  1.
</event>
<event>
12    1  0.8226261E-002  0.2379233E+03  0.7818608E-02  0.1121430E+00
         21   -1    0    0  501  502  0.00000000000E+00  0.00000000000E+00  0.20512431025E+03  0.20512431025E+03  0.00000000000E+00 0. -1.
         21   -1    0    0  502  503 -0.00000000000E+00 -0.00000000000E+00 -0.34753014014E+03  0.34753014014E+03  0.00000000000E+00 0.  1.
         -6    2    1    2    0  503  0.12346013650E+03 -0.10473088516E+03 -0.19789181910E+03  0.30834683376E+03  0.17235322513E+03 0.  0.
        -24    2    3    3    0    0  0.99691861359E+02 -0.13871014006E+03 -0.13062356473E+03  0.22918479291E+03  0.79272841885E+02 0.  0.
          6    2    1    2  501    0 -0.12346013650E+03  0.10473088516E+03  0.55485989215E+02  0.24430761662E+03  0.17434607231E+03 0.  0.
         24    2    5    5    0    0 -0.66602017728E+01  0.28081992439E+02 -0.19980328766E+02  0.85453807548E+02  0.77911379784E+02 0.  0.
          5    1    5    5  501    0 -0.11679993473E+03  0.76648892719E+02  0.75466317980E+02  0.15885380907E+03  0.47000000000E+01 0. -1.
        -13    1    6    6    0    0 -0.22959670760E+02  0.44082646940E+02 -0.32520598014E+02  0.59397100416E+02  0.00000000000E+00 0.  1.
         14    1    6    6    0    0  0.16299468988E+02 -0.16000654501E+02  0.12540269248E+02  0.26056707132E+02  0.00000000000E+00 0. -1.
         -5    1    3    3    0  503  0.23768275141E+02  0.33979254899E+02 -0.67268254372E+02  0.79162040859E+02  0.47000000000E+01 0.  1.
         11    1    4    4    0    0  0.23886429982E+02 -0.37467552886E+02  0.38224262339E+01  0.44598094118E+02  0.00000000000E+00 0. -1.
        -12    1    4    4    0    0  0.75805431377E+02 -0.10124258717E+03 -0.13444599096E+03  0.18458669879E+03  0.00000000000E+00 0.  1.
</event>
<event>
12    1  0.8226261E-002  0.1821672E+03  0.7818608E-02  0.1165846E+00
         21   -1    0    0  501  502  0.00000000000E+00  0.00000000000E+00  0.11912920980E+03  0.11912920980E+03  0.00000000000E+00 0. -1.
         21   -1    0    0  502  503 -0.00000000000E+00 -0.00000000000E+00 -0.41428720877E+03  0.41428720877E+03  0.00000000000E+00 0. -1.
         -6    2    1    2    0  503 -0.27972059428E+02 -0.49868516531E+02 -0.30082292670E+03  0.35168072013E+03  0.17296124026E+03 0.  0.
        -24    2    3    3    0    0  0.17969461303E+01  0.39295613787E+02 -0.13653970723E+03  0.16234635445E+03  0.78523072246E+02 0.  0.
          6    2    1    2  501    0  0.27972059428E+02  0.49868516531E+02  0.56649277246E+01  0.18173569844E+03  0.17241365268E+03 0.  0.
         24    2    5    5    0    0 -0.49066869589E+01  0.27716435531E+02 -0.57775028934E+02  0.10677941280E+03  0.85273751258E+02 0.  0.
          5    1    5    5  501    0  0.32878746387E+02  0.22152081000E+02  0.63439956658E+02  0.74956285643E+02  0.47000000000E+01 0. -1.
        -13    1    6    6    0    0 -0.44920020241E+02  0.11289682850E+02 -0.33671889647E+02  0.57263088545E+02  0.00000000000E+00 0.  1.
         14    1    6    6    0    0  0.40013333282E+02  0.16426752681E+02 -0.24103139287E+02  0.49516324253E+02  0.00000000000E+00 0. -1.
         -5    1    3    3    0  503 -0.29769005558E+02 -0.89164130317E+02 -0.16428321946E+03  0.18933436567E+03  0.47000000000E+01 0.  1.
         13    1    4    4    0    0 -0.25561754952E+02  0.23785733726E+02 -0.12343075838E+03  0.12827437998E+03  0.00000000000E+00 0. -1.
        -14    1    4    4    0    0  0.27358701083E+02  0.15509880060E+02 -0.13108948851E+02  0.34071974472E+02  0.00000000000E+00 0.  1.
</event>
<event>
12    1  0.8226261E-002  0.2625782E+03  0.7818608E-02  0.1105784E+00
         21   -1    0    0  503  502  0.00000000000E+00  0.00000000000E+00  0.13664462763E+03  0.13664462763E+03  0.00000000000E+00 0.  1.
         21   -1    0    0  501  503 -0.00000000000E+00 -0.00000000000E+00 -0.51185659582E+03  0.51185659582E+03  0.00000000000E+00 0.  1.
          6    2    1    2  501    0 -0.27265027261E+02 -0.19630798747E+03 -0.23245354698E+03  0.35068781787E+03  0.17224136101E+03 0.  0.
         24    2    3    3    0    0 -0.22719253412E+02 -0.77530666527E+02 -0.34962243920E+02  0.12013712754E+03  0.81752077558E+02 0.  0.
         -6    2    1    2    0  502  0.27265027261E+02  0.19630798747E+03 -0.14275842122E+03  0.29781340558E+03  0.17038970057E+03 0.  0.
        -24    2    5    5    0    0  0.44217282234E+02  0.18637651999E+03 -0.65190278618E+02  0.21765780852E+03  0.80210809300E+02 0.  0.
          5    1    3    3  501    0 -0.45457738489E+01 -0.11877732094E+03 -0.19749130306E+03  0.23055069034E+03  0.47000000000E+01 0. -1.
        -13    1    4    4    0    0  0.23416565800E+02 -0.57341986632E+02 -0.31933774554E+02  0.69686476034E+02  0.00000000000E+00 0.  1.
         14    1    4    4    0    0 -0.46135819212E+02 -0.20188679895E+02 -0.30284693660E+01  0.50450651502E+02  0.00000000000E+00 0. -1.
         -5    1    5    5    0  502 -0.16952254974E+02  0.99314674796E+01 -0.77568142599E+02  0.80155597068E+02  0.47000000000E+01 0.  1.
         11    1    6    6    0    0  0.33402244303E+02  0.16441409134E+02 -0.14982635424E+02  0.40131150283E+02  0.00000000000E+00 0. -1.
        -12    1    6    6    0    0  0.10815037931E+02  0.16993511086E+03 -0.50207643194E+02  0.17752665823E+03  0.00000000000E+00 0.  1.
</event>
<event>
12    1  0.8226261E-002  0.1878338E+03  0.7818608E-02  0.1161410E+00
         21   -1    0    0  501  502  0.00000000000E+00  0.00000000000E+00  0.40575381773E+03  0.40575381773E+03  0.00000000000E+00 0. -1.
         21   -1    0    0  502  503 -0.00000000000E+00 -0.00000000000E+00 -0.28540016566E+03  0.28540016566E+03  0.00000000000E+00 0. -1.
         -6    2    1    2    0  503  0.54303520102E+02  0.36136023898E+02 -0.22959689698E+03  0.29398032001E+03  0.17162461634E+03 0.  0.
        -24    2    3    3    0    0 -0.17868265697E+02  0.12319340818E+02 -0.19180236772E+03  0.20897139401E+03  0.80061564897E+02 0.  0.
          6    2    1    2  501    0 -0.54303520102E+02 -0.36136023898E+02  0.34995054905E+03  0.39717366338E+03  0.17614439412E+03 0.  0.
         24    2    5    5    0    0  0.29681142777E+02  0.27169522477E+02  0.92707112632E+02  0.11922170461E+03  0.63245971652E+02 0.  0.
          5    1    5    5  501    0 -0.83984662879E+02 -0.63305546375E+02  0.25724343642E+03  0.27795195876E+03  0.47000000000E+01 0. -1.
        -13    1    6    6    0    0  0.44853465771E+02  0.33803955510E+01  0.43942441623E+02  0.62882419177E+02  0.00000000000E+00 0.  1.
         14    1    6    6    0    0 -0.15172322994E+02  0.23789126926E+02  0.48764671009E+02  0.56339285437E+02  0.00000000000E+00 0. -1.
         -5    1    3    3    0  503  0.72171785799E+02  0.23816683080E+02 -0.37794529258E+02  0.85008926003E+02  0.47000000000E+01 0.  1.
         11    1    4    4    0    0 -0.18133548563E+02 -0.32805001443E+02 -0.96551612264E+02  0.10357223341E+03  0.00000000000E+00 0. -1.
        -12    1    4    4    0    0  0.26528286647E+00  0.45124342262E+02 -0.95250755457E+02  0.10539916060E+03  0.00000000000E+00 0.  1.
</event>
<event>
12    1  0.8226261E-002  0.2333971E+03  0.7818608E-02  0.1124309E+00
         21   -1    0    0  501  502  0.00000000000E+00  0.00000000000E+00  0.26643188408E+03  0.26643188408E+03  0.00000000000E+00 0. -1.
         21   -1    0    0  502  503 -0.00000000000E+00 -0.00000000000E+00 -0.20640960898E+03  0.20640960898E+03  0.00000000000E+00 0.  1.
         -6    2    1    2    0  503  0.14585934412E+03  0.59812910177E+02  0.54083834189E+02  0.23936887042E+03  0.17181345266E+03 0.  0.
        -24    2    3    3    0    0  0.98936157046E+00  0.23736035806E+02  0.63288754368E+01  0.82552165973E+02  0.78806263777E+02 0.  0.
          6    2    1    2  501    0 -0.14585934412E+03 -0.59812910177E+02  0.59384409155E+01  0.23347262265E+03  0.17210946504E+03 0.  0.
         24    2    5    5    0    0 -0.93846994946E+02 -0.88632987880E+02  0.49459811696E+02  0.15963441398E+03  0.79836133120E+02 0.  0.
          5    1    5    5  501    0 -0.52012349169E+02  0.28820077704E+02 -0.43521370781E+02  0.73838208670E+02  0.47000000000E+01 0. -1.
        -11    1    6    6    0    0 -0.63956219394E+02 -0.32907551111E+02 -0.10262715669E+02  0.72654168856E+02  0.00000000000E+00 0.  1.
         12    1    6    6    0    0 -0.29890775552E+02 -0.55725436770E+02  0.59722527365E+02  0.86980245120E+02  0.00000000000E+00 0. -1.
         -5    1    3    3    0  503  0.14486998255E+03  0.36076874371E+02  0.47754958752E+02  0.15681670444E+03  0.47000000000E+01 0.  1.
         13    1    4    4    0    0  0.85167397295E+01 -0.23333402823E+02  0.21160526681E+02  0.32630513823E+02  0.00000000000E+00 0. -1.
        -14    1    4    4    0    0 -0.75273781591E+01  0.47069438629E+02 -0.14831651245E+02  0.49921652150E+02  0.00000000000E+00 0.  1.
</event>
<event>
12    1  0.8226261E-002  0.1899855E+03  0.7818608E-02  0.1158511E+00
         21   -1    0    0  503  502  0.00000000000E+00  0.00000000000E+00  0.72539422146E+02  0.72539422146E+02  0.00000000000E+00 0. -1.
         21   -1    0    0  501  503 -0.00000000000E+00 -0.00000000000E+00 -0.49834748868E+03  0.49834748868E+03  0.00000000000E+00 0. -1.
          6    2    1    2  501    0 -0.33836242149E+02  0.72522897473E+02 -0.19904409201E+03  0.27516002288E+03  0.17230793855E+03 0.  0.
         24    2    3    3    0    0 -0.41098357304E+02  0.87216676639E+02 -0.65873601690E+02  0.14090237894E+03  0.78856358879E+02 0.  0.
         -6    2    1    2    0  502  0.33836242149E+02 -0.72522897473E+02 -0.22676397452E+03  0.29572688794E+03  0.17212794710E+03 0.  0.
        -24    2    5    5    0    0  0.83303455591E+02 -0.70439850097E+02 -0.19260775969E+03  0.23539380164E+03  0.80070310096E+02 0.  0.
          5    1    3    3  501    0  0.72621151549E+01 -0.14693779166E+02 -0.13317049032E+03  0.13425764394E+03  0.47000000000E+01 0. -1.
        -13    1    4    4    0    0  0.20096138510E+02  0.44890689839E+02 -0.17742352426E+02  0.52285943492E+02  0.00000000000E+00 0.  1.
         14    1    4    4    0    0 -0.61194495814E+02  0.42325986799E+02 -0.48131249264E+02  0.88616435452E+02  0.00000000000E+00 0. -1.
         -5    1    5    5    0  502 -0.49467213442E+02 -0.20830473756E+01 -0.34156214828E+02  0.60333086308E+02  0.47000000000E+01 0.  1.
         13    1    6    6    0    0  0.21885231478E+02 -0.60311691014E+02 -0.13958629533E+03  0.15362550984E+03  0.00000000000E+00 0. -1.
        -14    1    6    6    0    0  0.61418224113E+02 -0.10128159083E+02 -0.53021464361E+02  0.81768291792E+02  0.00000000000E+00 0.  1.
</event>
<event>
12    1  0.8226261E-002  0.2152577E+03  0.7818608E-02  0.1137547E+00
         21   -1    0    0  503  502  0.00000000000E+00  0.00000000000E+00  0.21516109689E+03  0.21516109689E+03  0.00000000000E+00 0.  1.
         21   -1    0    0  501  503 -0.00000000000E+00 -0.00000000000E+00 -0.21809861204E+03  0.21809861204E+03  0.00000000000E+00 0. -1.
          6    2    1    2  501    0  0.10302391756E+03  0.77705653253E+02 -0.27513621905E+02  0.21660361584E+03  0.17177901754E+03 0.  0.
         24    2    3    3    0    0  0.81017857310E+02  0.10123308060E+03 -0.66470477750E+02  0.16583420435E+03  0.79187303966E+02 0.  0.
         -6    2    1    2    0  502 -0.10302391756E+03 -0.77705653253E+02  0.24576106756E+02  0.21665609309E+03  0.17228981837E+03 0.  0.
        -24    2    5    5    0    0 -0.58167431280E+02 -0.11801324571E+03  0.10460347963E+02  0.15454207683E+03  0.80394392876E+02 0.  0.
          5    1    3    3  501    0  0.22006060248E+02 -0.23527427351E+02  0.38956855845E+02  0.50769411487E+02  0.47000000000E+01 0. -1.
        -11    1    4    4    0    0  0.53347593489E+02  0.30809597916E+02  0.49270893872E+01  0.61801887226E+02  0.00000000000E+00 0.  1.
         12    1    4    4    0    0  0.27670263821E+02  0.70423482687E+02 -0.71397567137E+02  0.10403231713E+03  0.00000000000E+00 0. -1.
         -5    1    5    5    0  502 -0.44856486278E+02  0.40307592455E+02  0.14115758792E+02  0.62114016268E+02  0.47000000000E+01 0.  1.
         13    1    6    6    0    0 -0.59532397604E+02 -0.59282121697E+02 -0.22772951723E+02  0.87046445347E+02  0.00000000000E+00 0. -1.
        -14    1    6    6    0    0  0.13649663244E+01 -0.58731124010E+02  0.33233299687E+02  0.67495631478E+02  0.00000000000E+00 0.  1.
</event>
<event>
12    1  0.8226261E-002  0.1756174E+03  0.7818608E-02  0.1172272E+00
         21   -1    0    0  501  502  0.00000000000E+00  0.00000000000E+00  0.37698766709E+04  0.37698766709E+04  0.00000000000E+00 0. -1.
         21   -1    0    0  502  503 -0.00000000000E+00 -0.00000000000E+00 -0.16731674225E+02  0.16731674225E+02  0.00000000000E+00 0. -1.
         -6    2    1    2    0  503 -0.26338390671E+02  0.12941640267E+02  0.51911945643E+03  0.54781803475E+03  0.17250620938E+03 0.  0.
        -24    2    3    3    0    0 -0.48322155638E+02 -0.27463825508E+02  0.17232933463E+03  0.19795896860E+03  0.80006632469E+02 0.  0.
          6    2    1    2  501    0  0.26338390671E+02 -0.12941640267E+02  0.32340255403E+04  0.32387903104E+04  0.17314815261E+03 0.  0.
         24    2    5    5    0    0  0.33762923907E+02  0.14034505588E+02  0.88037815367E+03  0.88497193453E+03  0.82296592083E+02 0.  0.
          5    1    5    5  501    0 -0.74245332358E+01 -0.26976145855E+02  0.23536473866E+04  0.23538183758E+04  0.47000000000E+01 0. -1.
        -13    1    6    6    0    0  0.30133870944E+02  0.46100155479E+02  0.65249363850E+03  0.65481388409E+03  0.00000000000E+00 0.  1.
         14    1    6    6    0    0  0.36290529627E+01 -0.32065649891E+02  0.22788451518E+03  0.23015805045E+03  0.00000000000E+00 0. -1.
         -5    1    3    3    0  503  0.21983764967E+02  0.40405465775E+02  0.34679012181E+03  0.34985906615E+03  0.47000000000E+01 0.  1.
         13    1    4    4    0    0 -0.41761507114E+02 -0.20507217918E+02  0.17986468706E+03  0.18578448567E+03  0.00000000000E+00 0. -1.
        -14    1    4    4    0    0 -0.65606485241E+01 -0.69566075898E+01 -0.75353524379E+01  0.12174482929E+02  0.00000000000E+00 0.  1.
</event>
<event>
12    1  0.8226261E-002  0.1907418E+03  0.7818608E-02  0.1159036E+00
         21   -1    0    0  503  502  0.00000000000E+00  0.00000000000E+00  0.58840822282E+02  0.58840822282E+02  0.00000000000E+00 0. -1.
         21   -1    0    0  501  503 -0.00000000000E+00 -0.00000000000E+00 -0.72127264682E+03  0.72127264682E+03  0.00000000000E+00 0. -1.
          6    2    1    2  501    0  0.19173523792E+02 -0.80134241895E+02 -0.49463260181E+03  0.53013567245E+03  0.17202703185E+03 0.  0.
         24    2    3    3    0    0  0.75627263139E+02 -0.35137359325E+02 -0.24865522107E+03  0.27374006803E+03  0.78422502696E+02 0.  0.
         -6    2    1    2    0  502 -0.19173523792E+02  0.80134241895E+02 -0.16779922272E+03  0.24997779665E+03  0.16596143810E+03 0.  0.
        -24    2    5    5    0    0 -0.38981711019E+02  0.33528260488E+02 -0.17482874864E+03  0.19863594220E+03  0.79040673944E+02 0.  0.
          5    1    3    3  501    0 -0.56453739347E+02 -0.44996882570E+02 -0.24597738075E+03  0.25639560442E+03  0.47000000000E+01 0. -1.
        -11    1    4    4    0    0  0.45791899021E+02 -0.56247813456E+02 -0.12215010764E+03  0.14206112533E+03  0.00000000000E+00 0.  1.
         12    1    4    4    0    0  0.29835364119E+02  0.21110454131E+02 -0.12650511343E+03  0.13167894270E+03  0.00000000000E+00 0. -1.
         -5    1    5    5    0  502  0.19808187228E+02  0.46605981407E+02  0.70295259161E+01  0.51341854454E+02  0.47000000000E+01 0.  1.
         11    1    6    6    0    0 -0.40041200449E+02  0.26457500687E+02 -0.36942335133E+02  0.60564289818E+02  0.00000000000E+00 0. -1.
        -12    1    6    6    0    0  0.10594894297E+01  0.70707598010E+01 -0.13788641351E+03  0.13807165238E+03  0.00000000000E+00 0.  1.
</event>
<event>
12    1  0.8226261E-002  0.2142696E+03  0.7818608E-02  0.1139419E+00
         21   -1    0    0  503  502  0.00000000000E+00  0.00000000000E+00  0.18537131763E+03  0.18537131763E+03  0.00000000000E+00 0.  1.
         21   -1    0    0  501  503 -0.00000000000E+00 -0.00000000000E+00 -0.24328028835E+03  0.24328028835E+03  0.00000000000E+00 0.  1.
          6    2    1    2  501    0  0.56289881438E+02  0.11282845367E+03 -0.72899297027E+01  0.21439354292E+03  0.17324155812E+03 0.  0.
         24    2    3    3    0    0 -0.14989291653E+02  0.82483842065E+02 -0.47920951014E+02  0.12678939996E+03  0.82163686207E+02 0.  0.
         -6    2    1    2    0  502 -0.56289881438E+02 -0.11282845367E+03 -0.50619041014E+02  0.21425806306E+03  0.16566659158E+03 0.  0.
        -24    2    5    5    0    0  0.50736527695E+01  0.33845032583E+01 -0.29070146440E+02  0.81001245055E+02  0.75358685443E+02 0.  0.
          5    1    3    3  501    0  0.71279173091E+02  0.30344611606E+02  0.40631021312E+02  0.87604142955E+02  0.47000000000E+01 0. -1.
        -11    1    4    4    0    0  0.22265426594E+02  0.67495233883E+02 -0.49483141917E+02  0.86602177526E+02  0.00000000000E+00 0.  1.
         12    1    4    4    0    0 -0.37254718247E+02  0.14988608183E+02  0.15621909028E+01  0.40187222438E+02  0.00000000000E+00 0. -1.
         -5    1    5    5    0  502 -0.61363534208E+02 -0.11621295693E+03 -0.21548894574E+02  0.13325681801E+03  0.47000000000E+01 0.  1.
         13    1    6    6    0    0 -0.14206510157E+02 -0.56156677892E+01 -0.49317838574E+02  0.51629544421E+02  0.00000000000E+00 0. -1.
        -14    1    6    6    0    0  0.19280162926E+02  0.90001710475E+01  0.20247692134E+02  0.29371700634E+02  0.00000000000E+00 0.  1.
</event>
<event>
12    1  0.8226261E-002  0.2246338E+03  0.7818608E-02  0.1130546E+00
         21   -1    0    0  503  502  0.00000000000E+00  0.00000000000E+00  0.15468422105E+03  0.15468422105E+03  0.00000000000E+00 0. -1.
         21   -1    0    0  501  503 -0.00000000000E+00 -0.00000000000E+00 -0.45063222598E+03  0.45063222598E+03  0.00000000000E+00 0. -1.
          6    2    1    2  501    0 -0.10512578145E+03 -0.97468934589E+02  0.11325074834E+02  0.22491910258E+03  0.17294138387E+03 0.  0.
         24    2    3    3    0    0 -0.11251262340E+02 -0.22171821281E+02  0.50139604226E+02  0.98385556433E+02  0.80916977450E+02 0.  0.
         -6    2    1    2    0  502  0.10512578145E+03  0.97468934589E+02 -0.30727307977E+03  0.38039734445E+03  0.17243483112E+03 0.  0.
        -24    2    5    5    0    0  0.14084134179E+03  0.76721561922E+02 -0.21787948206E+03  0.28181052974E+03  0.78887415661E+02 0.  0.
          5    1    3    3  501    0 -0.93874519106E+02 -0.75297113307E+02 -0.38814529392E+02  0.12653354615E+03  0.47000000000E+01 0. -1.
        -11    1    4    4    0    0 -0.24900206524E+02 -0.38814139383E+02  0.59192771538E+02  0.75035604238E+02  0.00000000000E+00 0.  1.
         12    1    4    4    0    0  0.13648944184E+02  0.16642318102E+02 -0.90531673117E+01  0.23349952195E+02  0.00000000000E+00 0. -1.
         -5    1    5    5    0  502 -0.35715560347E+02  0.20747372666E+02 -0.89393597704E+02  0.98586814706E+02  0.47000000000E+01 0.  1.
         13    1    6    6    0    0  0.80333606858E+02  0.82038716494E+02 -0.11612823335E+03  0.16330831570E+03  0.00000000000E+00 0. -1.
        -14    1    6    6    0    0  0.60507734934E+02 -0.53171545720E+01 -0.10175124871E+03  0.11850221405E+03  0.00000000000E+00 0.  1.
</event>
<event>
12    1  0.8226261E-002  0.4244432E+03  0.7818608E-02  0.1035669E+00
         21   -1    0    0  503  502  0.00000000000E+00  0.00000000000E+00  0.32889240535E+03  0.32889240535E+03  0.00000000000E+00 0.  1.
         21   -1    0    0  501  503 -0.00000000000E+00 -0.00000000000E+00 -0.57433966081E+03  0.57433966081E+03  0.00000000000E+00 0. -1.
          6    2    1    2  501    0 -0.21383077160E+03 -0.32289040649E+03 -0.22110279499E+03  0.47857965930E+03  0.17369579976E+03 0.  0.
         24    2    3    3    0    0 -0.54219425907E+02 -0.16206090706E+03 -0.13469607325E+03  0.23603044548E+03  0.91454115830E+02 0.  0.
         -6    2    1    2    0  502  0.21383077160E+03  0.32289040649E+03 -0.24344460465E+02  0.42465240686E+03  0.17249695769E+03 0.  0.
        -24    2    5    5    0    0  0.23679345686E+03  0.29178245534E+03 -0.24276166531E+02  0.38570264174E+03  0.83480854844E+02 0.  0.
          5    1    3    3  501    0 -0.15961134569E+03 -0.16082949944E+03 -0.86406721741E+02  0.24254921382E+03  0.47000000000E+01 0. -1.
        -13    1    4    4    0    0 -0.24804100254E+02 -0.10519171003E+03 -0.28076934944E+02  0.11166402072E+03  0.00000000000E+00 0.  1.
         14    1    4    4    0    0 -0.29415325653E+02 -0.56869197030E+02 -0.10661913830E+03  0.12436642476E+03  0.00000000000E+00 0. -1.
         -5    1    5    5    0  502 -0.22962685261E+02  0.31107951153E+02 -0.68293933925E-01  0.38949765126E+02  0.47000000000E+01 0.  1.
         13    1    6    6    0    0  0.16140122151E+03  0.17414069540E+03 -0.52461276431E+02  0.24316151345E+03  0.00000000000E+00 0. -1.
        -14    1    6    6    0    0  0.75392235347E+02  0.11764175994E+03  0.28185109900E+02  0.14254112828E+03  0.00000000000E+00 0.  1.
</event>
<event>
12    1  0.8226261E-002  0.2644328E+03  0.7818608E-02  0.1104625E+00
         21   -1    0    0  501  502  0.00000000000E+00  0.00000000000E+00  0.15629128460E+04  0.15629128460E+04  0.00000000000E+00 0.  1.
         21   -1    0    0  502  503 -0.00000000000E+00 -0.00000000000E+00 -0.49206713609E+02  0.49206713609E+02  0.00000000000E+00 0. -1.
         -6    2    1    2    0  503 -0.17763106912E+03 -0.93362418127E+02  0.51141273759E+03  0.57573231920E+03  0.17220736734E+03 0.  0.
        -24    2    3    3    0    0 -0.13234623541E+03 -0.11721626018E+03  0.29230959672E+03  0.35068121770E+03  0.79229025227E+02 0.  0.
          6    2    1    2  501    0  0.17763106912E+03  0.93362418127E+02  0.10022933948E+04  0.10363872404E+04  0.17098866918E+03 0.  0.
         24    2    5    5    0    0  0.31276626604E+02  0.81925979880E+02  0.46472893369E+03  0.47911885371E+03  0.76758065519E+02 0.  0.
          5    1    5    5  501    0  0.14635444252E+03  0.11436438246E+02  0.53756446111E+03  0.55726838669E+03  0.47000000000E+01 0. -1.
        -11    1    6    6    0    0 -0.67027504563E+01 -0.12615356878E+02  0.70863009295E+02  0.72288589550E+02  0.00000000000E+00 0.  1.
         12    1    6    6    0    0  0.37979377060E+02  0.94541336758E+02  0.39386592439E+03  0.40683026416E+03  0.00000000000E+00 0. -1.
         -5    1    3    3    0  503 -0.45284833716E+02  0.23853842051E+02  0.21910314088E+03  0.22505110150E+03  0.47000000000E+01 0.  1.
         11    1    4    4    0    0 -0.11390429988E+03 -0.69888279485E+02  0.15712455885E+03  0.20626848556E+03  0.00000000000E+00 0. -1.
        -12    1    4    4    0    0 -0.18441935531E+02 -0.47327980693E+02  0.13518503786E+03  0.14441273214E+03  0.00000000000E+00 0.  1.
</event>
<event>
12    1  0.8226261E-002  0.1760915E+03  0.7818608E-02  0.1171720E+00
         21   -1    0    0  501  502  0.00000000000E+00  0.00000000000E+00  0.23912870961E+03  0.23912870961E+03  0.00000000000E+00 0.  1.
         21   -1    0    0  502  503 -0.00000000000E+00 -0.00000000000E+00 -0.29649485786E+03  0.29649485786E+03  0.00000000000E+00 0.  1.
         -6    2    1    2    0  503  0.65326365420E+01 -0.37561308654E+02 -0.22969959976E+03  0.28923562631E+03  0.17158617120E+03 0.  0.
        -24    2    3    3    0    0  0.37973359919E+02 -0.83885169821E+01 -0.44152222761E+02  0.98737621142E+02  0.79292848186E+02 0.  0.
          6    2    1    2  501    0 -0.65326365420E+01  0.37561308654E+02  0.17233345151E+03  0.24638794116E+03  0.17191472244E+03 0.  0.
         24    2    5    5    0    0 -0.44608118085E+02  0.69381482461E+02  0.15667777773E+03  0.19414374648E+03  0.79625334892E+02 0.  0.
          5    1    5    5  501    0  0.38075481543E+02 -0.31820173808E+02  0.15655673784E+02  0.52244194677E+02  0.47000000000E+01 0. -1.
        -11    1    6    6    0    0 -0.51361061242E+02  0.14011882540E+02  0.46652130934E+02  0.70786388415E+02  0.00000000000E+00 0.  1.
         12    1    6    6    0    0  0.67529431569E+01  0.55369599922E+02  0.11002564679E+03  0.12335735807E+03  0.00000000000E+00 0. -1.
         -5    1    3    3    0  503 -0.31440723377E+02 -0.29172791672E+02 -0.18554737700E+03  0.19049800516E+03  0.47000000000E+01 0.  1.
         13    1    4    4    0    0  0.26947712947E+02  0.33119689119E+02 -0.34064332738E+02  0.54621166276E+02  0.00000000000E+00 0. -1.
        -14    1    4    4    0    0  0.11025646972E+02 -0.41508206101E+02 -0.10087890023E+02  0.44116454867E+02  0.00000000000E+00 0.  1.
</event>
<event>
12    1  0.8226261E-002  0.1722931E+03  0.7818608E-02  0.1175854E+00
         21   -1    0    0  501  502  0.00000000000E+00  0.00000000000E+00  0.16705167237E+03  0.16705167237E+03  0.00000000000E+00 0. -1.
         21   -1    0    0  502  503 -0.00000000000E+00 -0.00000000000E+00 -0.18399691295E+03  0.18399691295E+03  0.00000000000E+00 0. -1.
         -6    2    1    2    0  503 -0.10622320130E+02  0.11777107483E+02  0.27639245451E+02  0.17449600935E+03  0.17156163745E+03 0.  0.
        -24    2    3    3    0    0 -0.35767601755E+02 -0.15070576048E+02  0.59973708007E+02  0.12529549342E+03  0.10293527782E+03 0.  0.
          6    2    1    2  501    0  0.10622320130E+02 -0.11777107483E+02 -0.44584486032E+02  0.17655257598E+03  0.17009262695E+03 0.  0.
         24    2    5    5    0    0  0.38305640041E+02  0.38811129555E+02  0.87179720294E+01  0.97883789517E+02  0.80818360399E+02 0.  0.
          5    1    5    5  501    0 -0.27683319911E+02 -0.50588237038E+02 -0.53302458061E+02  0.78668786461E+02  0.47000000000E+01 0. -1.
        -11    1    6    6    0    0 -0.79532681007E+01  0.40875218751E+02 -0.16928153825E+02  0.44951088678E+02  0.00000000000E+00 0.  1.
         12    1    6    6    0    0  0.46258908142E+02 -0.20640891959E+01  0.25646125855E+02  0.52932700839E+02  0.00000000000E+00 0. -1.
         -5    1    3    3    0  503  0.25145281625E+02  0.26847683531E+02 -0.32334462557E+02  0.49200515930E+02  0.47000000000E+01 0.  1.
         11    1    4    4    0    0  0.31714145646E+02 -0.19409422810E+02  0.40383451377E+02  0.54893860067E+02  0.00000000000E+00 0. -1.
        -12    1    4    4    0    0 -0.67481747401E+02  0.43388467625E+01  0.19590256630E+02  0.70401633350E+02  0.00000000000E+00 0.  1.
</event>
<event>
12    1  0.8226261E-002  0.3085771E+03  0.7818608E-02  0.1081086E+00
         21   -1    0    0  501  502  0.00000000000E+00  0.00000000000E+00  0.27587643680E+03  0.27587643680E+03  0.00000000000E+00 0.  1.
         21   -1    0    0  502  503 -0.00000000000E+00 -0.00000000000E+00 -0.35619728693E+03  0.35619728693E+03  0.00000000000E+00 0. -1.
         -6    2    1    2    0  503  0.78920376216E+02 -0.24384820844E+03  0.16741703089E+02  0.30903092441E+03  0.17184136021E+03 0.  0.
        -24    2    3    3    0    0  0.10934496682E+03 -0.17974028735E+03 -0.25458753168E+02  0.22633600457E+03  0.79479218569E+02 0.  0.
          6    2    1    2  501    0 -0.78920376216E+02  0.24384820844E+03 -0.97062553219E+02  0.32304279933E+03  0.17101209437E+03 0.  0.
         24    2    5    5    0    0  0.14889387462E+02  0.84306860052E+02 -0.62368676404E+02  0.13468285482E+03  0.83188214768E+02 0.  0.
          5    1    5    5  501    0 -0.93809763678E+02  0.15954134838E+03 -0.34693876815E+02  0.18835994451E+03  0.47000000000E+01 0. -1.
        -13    1    6    6    0    0 -0.11307939331E+02  0.19930501622E+01 -0.45168367957E+02  0.46604969743E+02  0.00000000000E+00 0.  1.
         14    1    6    6    0    0  0.26197326793E+02  0.82313809889E+02 -0.17200308447E+02  0.88077885081E+02  0.00000000000E+00 0. -1.
         -5    1    3    3    0  503 -0.30424590607E+02 -0.64107921086E+02  0.42200456257E+02  0.82694919843E+02  0.47000000000E+01 0.  1.
         11    1    4    4    0    0  0.10012669060E+01 -0.68383659524E+02 -0.18337361602E+02  0.70806682282E+02  0.00000000000E+00 0. -1.
        -12    1    4    4    0    0  0.10834369992E+03 -0.11135662783E+03 -0.71213915662E+01  0.15552932229E+03  0.00000000000E+00 0.  1.
</event>
<event>
12    1  0.8226261E-002  0.3877059E+03  0.7818608E-02  0.1048192E+00
         21   -1    0    0  501  502  0.00000000000E+00  0.00000000000E+00  0.20009352095E+04  0.20009352095E+04  0.00000000000E+00 0.  1.
         21   -1    0    0  502  503 -0.00000000000E+00 -0.00000000000E+00 -0.77787038617E+02  0.77787038617E+02  0.00000000000E+00 0. -1.
         -6    2    1    2    0  503  0.34628390931E+03  0.26012202249E+02  0.11583420997E+04  0.12212584162E+04  0.17066493117E+03 0.  0.
        -24    2    3    3    0    0  0.15187531270E+03  0.30795095700E+01  0.34974262906E+03  0.38928738021E+03  0.78416604269E+02 0.  0.
          6    2    1    2  501    0 -0.34628390931E+03 -0.26012202249E+02  0.76480607121E+03  0.85746383193E+03  0.17241437291E+03 0.  0.
         24    2    5    5    0    0 -0.30216756701E+03 -0.65319250092E+02  0.54348169024E+03  0.62833970120E+03  0.62181906493E+02 0.  0.
          5    1    5    5  501    0 -0.44116342304E+02  0.39307047843E+02  0.22132438097E+03  0.22912413073E+03  0.47000000000E+01 0. -1.
        -11    1    6    6    0    0 -0.87957866309E+02 -0.40402382227E+02  0.13093691396E+03  0.16282940205E+03  0.00000000000E+00 0.  1.
         12    1    6    6    0    0 -0.21420970070E+03 -0.24916867865E+02  0.41254477628E+03  0.46551029915E+03  0.00000000000E+00 0. -1.
         -5    1    3    3    0  503  0.19440859661E+03  0.22932692679E+02  0.80859947065E+03  0.83197103601E+03  0.47000000000E+01 0.  1.
         13    1    4    4    0    0  0.17943798734E+02  0.90701777797E+01  0.70535423589E+01  0.21307287433E+02  0.00000000000E+00 0. -1.
        -14    1    4    4    0    0  0.13393151397E+03 -0.59906682097E+01  0.34268908670E+03  0.36798009278E+03  0.00000000000E+00 0.  1.
</event>
<event>
12    1  0.8226261E-002  0.2514362E+03  0.7818608E-02  0.1112592E+00
         21   -1    0    0  503  502  0.00000000000E+00  0.00000000000E+00  0.10017243537E+04  0.10017243537E+04  0.00000000000E+00 0.  1.
         21   -1    0    0  501  503 -0.00000000000E+00 -0.00000000000E+00 -0.69841407248E+02  0.69841407248E+02  0.00000000000E+00 0. -1.
          6    2    1    2  501    0 -0.37273943017E+00  0.18298072273E+03  0.63700240123E+03  0.68483005033E+03  0.17244725230E+03 0.  0.
         24    2    3    3    0    0 -0.42742917112E+02  0.17366122585E+03  0.58506677926E+03  0.61699581259E+03  0.79971984093E+02 0.  0.
         -6    2    1    2    0  502  0.37273943017E+00 -0.18298072273E+03  0.29488054519E+03  0.38673571060E+03  0.17066894882E+03 0.  0.
        -24    2    5    5    0    0 -0.58056418629E+02 -0.99734327971E+02  0.12003536461E+03  0.18440712654E+03  0.79246549719E+02 0.  0.
          5    1    3    3  501    0  0.42370177682E+02  0.93194968833E+01  0.51935621977E+02  0.67834237735E+02  0.47000000000E+01 0. -1.
        -11    1    4    4    0    0  0.11991713383E+02  0.10089706086E+03  0.36391522510E+03  0.37783370567E+03  0.00000000000E+00 0.  1.
         12    1    4    4    0    0 -0.54734630495E+02  0.72764164988E+02  0.22115155416E+03  0.23916210692E+03  0.00000000000E+00 0. -1.
         -5    1    5    5    0  502  0.58429158060E+02 -0.83246394762E+02  0.17484518058E+03  0.20232858406E+03  0.47000000000E+01 0.  1.
         13    1    6    6    0    0 -0.20955283709E+02 -0.58543132826E+02  0.12501656401E+02  0.63424866804E+02  0.00000000000E+00 0. -1.
        -14    1    6    6    0    0 -0.37101134921E+02 -0.41191195145E+02  0.10753370821E+03  0.12098225974E+03  0.00000000000E+00 0.  1.
</event>
<event>
12    1  0.8226261E-002  0.2016269E+03  0.7818608E-02  0.1148679E+00
         21   -1    0    0  501  502  0.00000000000E+00  0.00000000000E+00  0.84717643595E+02  0.84717643595E+02  0.00000000000E+00 0.  1.
         21   -1    0    0  502  503 -0.00000000000E+00 -0.00000000000E+00 -0.66674314651E+03  0.66674314651E+03  0.00000000000E+00 0.  1.
         -6    2    1    2    0  503  0.70168674175E+02  0.78723881267E+02 -0.49251949071E+03  0.53219248277E+03  0.17184963682E+03 0.  0.
        -24    2    3    3    0    0  0.77007223430E+02  0.43371078776E+02 -0.47958731356E+03  0.49364488096E+03  0.76616670751E+02 0.  0.
          6    2    1    2  501    0 -0.70168674175E+02 -0.78723881267E+02 -0.89506012202E+02  0.21926830733E+03  0.17013574598E+03 0.  0.
         24    2    5    5    0    0 -0.40350685663E+02 -0.28069380460E+02  0.19189084034E+02  0.95608674316E+02  0.79729101998E+02 0.  0.
          5    1    5    5  501    0 -0.29817988512E+02 -0.50654500807E+02 -0.10869509624E+03  0.12365963301E+03  0.47000000000E+01 0. -1.
        -11    1    6    6    0    0  0.13809356055E+02 -0.35076061795E+02  0.15856539881E+02  0.40895700051E+02  0.00000000000E+00 0.  1.
         12    1    6    6    0    0 -0.54160041719E+02  0.70066813351E+01  0.33325441536E+01  0.54712974264E+02  0.00000000000E+00 0. -1.
         -5    1    3    3    0  503 -0.68385492543E+01  0.35352802491E+02 -0.12932177153E+02  0.38547601816E+02  0.47000000000E+01 0.  1.
         13    1    4    4    0    0  0.87211788975E+01 -0.19596929185E+02 -0.55420355773E+02  0.59426546499E+02  0.00000000000E+00 0. -1.
        -14    1    4    4    0    0  0.68286044532E+02  0.62968007961E+02 -0.42416695778E+03  0.43421833446E+03  0.00000000000E+00 0.  1.
</event>
<event>
12    1  0.8226261E-002  0.1854437E+03  0.7818608E-02  0.1162886E+00
         21   -1    0    0  501  502  0.00000000000E+00  0.00000000000E+00  0.63604160350E+02  0.63604160350E+02  0.00000000000E+00 0. -1.
         21   -1    0    0  502  503 -0.00000000000E+00 -0.00000000000E+00 -0.67478340786E+03  0.67478340786E+03  0.00000000000E+00 0. -1.
         -6    2    1    2    0  503  0.34234593966E+02  0.58383600432E+02 -0.47278394010E+03  0.50785235396E+03  0.17265198284E+03 0.  0.
        -24    2    3    3    0    0  0.23164891943E+02 -0.35012770604E+02 -0.25170608088E+03  0.26755476707E+03  0.80418256046E+02 0.  0.
          6    2    1    2  501    0 -0.34234593966E+02 -0.58383600432E+02 -0.13839530740E+03  0.23053521425E+03  0.17150093782E+03 0.  0.
         24    2    5    5    0    0 -0.73385391984E+02 -0.43160358514E+02 -0.14628878952E+03  0.18753603821E+03  0.80753472896E+02 0.  0.
          5    1    5    5  501    0  0.39150798019E+02 -0.15223241917E+02  0.78934821173E+01  0.42999176038E+02  0.47000000000E+01 0. -1.
        -13    1    6    6    0    0 -0.15413126658E+02  0.24005896130E+02 -0.38803609613E+02  0.48161889928E+02  0.00000000000E+00 0.  1.
         14    1    6    6    0    0 -0.57972265327E+02 -0.67166254645E+02 -0.10748517991E+03  0.13937414828E+03  0.00000000000E+00 0. -1.
         -5    1    3    3    0  503  0.11069702023E+02  0.93396371035E+02 -0.22107785922E+03  0.24029758689E+03  0.47000000000E+01 0.  1.
         13    1    4    4    0    0 -0.21743883809E+02 -0.39482190077E+02 -0.13997870199E+03  0.14705671296E+03  0.00000000000E+00 0. -1.
        -14    1    4    4    0    0  0.44908775752E+02  0.44694194738E+01 -0.11172737889E+03  0.12049805410E+03  0.00000000000E+00 0.  1.
</event>
<event>
12    1  0.8226261E-002  0.2239752E+03  0.7818608E-02  0.1131520E+00
         21   -1    0    0  503  502  0.00000000000E+00  0.00000000000E+00  0.22113551026E+03  0.22113551026E+03  0.00000000000E+00 0.  1.
         21   -1    0    0  501  503 -0.00000000000E+00 -0.00000000000E+00 -0.25491656677E+03  0.25491656677E+03  0.00000000000E+00 0.  1.
          6    2    1    2  501    0  0.11482292211E+03  0.79865825138E+02 -0.10003172657E+03  0.24248403905E+03  0.17096581356E+03 0.  0.
         24    2    3    3    0    0  0.13224138561E+03  0.95788646850E+02 -0.11634591797E+03  0.21341202565E+03  0.73109993387E+02 0.  0.
         -6    2    1    2    0  502 -0.11482292211E+03 -0.79865825138E+02  0.66250670065E+02  0.23356803798E+03  0.17493434087E+03 0.  0.
        -24    2    5    5    0    0 -0.12448755321E+03 -0.14293779497E+02  0.77565291153E+02  0.16616470784E+03  0.76765048707E+02 0.  0.
          5    1    3    3  501    0 -0.17418463499E+02 -0.15922821712E+02  0.16314191397E+02  0.29072013396E+02  0.47000000000E+01 0. -1.
        -11    1    4    4    0    0  0.13264457949E+03  0.64302450673E+02 -0.96763657524E+02  0.17633092482E+03  0.00000000000E+00 0.  1.
         12    1    4    4    0    0 -0.40319388035E+00  0.31486196178E+02 -0.19582260445E+02  0.37081100836E+02  0.00000000000E+00 0. -1.
         -5    1    5    5    0  502  0.96646311009E+01 -0.65572045641E+02 -0.11314621088E+02  0.67403330142E+02  0.47000000000E+01 0.  1.
         13    1    6    6    0    0 -0.11989467188E+02  0.77655862508E+01  0.44669476022E+02  0.46897907643E+02  0.00000000000E+00 0. -1.
        -14    1    6    6    0    0 -0.11249808602E+03 -0.22059365748E+02  0.32895815131E+02  0.11926680019E+03  0.00000000000E+00 0.  1.
</event>
<event>
12    1  0.8226261E-002  0.2675210E+03  0.7818608E-02  0.1102831E+00
         21   -1    0    0  503  502  0.00000000000E+00  0.00000000000E+00  0.54712879567E+03  0.54712879567E+03  0.00000000000E+00 0.  1.
         21   -1    0    0  501  503 -0.00000000000E+00 -0.00000000000E+00 -0.41498510927E+03  0.41498510927E+03  0.00000000000E+00 0.  1.
          6    2    1    2  501    0 -0.80531028683E+02  0.18556538585E+03 -0.33234079250E+03  0.42609772683E+03  0.17375014086E+03 0.  0.
         24    2    3    3    0    0 -0.11252790755E+03  0.89176524666E+02 -0.21406115811E+03  0.27012729782E+03  0.80818284349E+02 0.  0.
         -6    2    1    2    0  502  0.80531028683E+02 -0.18556538585E+03  0.46448447889E+03  0.53601617811E+03  0.17506499666E+03 0.  0.
        -24    2    5    5    0    0  0.59681652055E+02 -0.27030383902E+02  0.13478889533E+03  0.16956111788E+03  0.79311948313E+02 0.  0.
          5    1    3    3  501    0  0.31996878869E+02  0.96388861179E+02 -0.11827963438E+03  0.15597042901E+03  0.47000000000E+01 0. -1.
        -13    1    4    4    0    0 -0.25787490686E+02 -0.13957676377E+02 -0.29409810655E+02  0.41530089917E+02  0.00000000000E+00 0.  1.
         14    1    4    4    0    0 -0.86740416865E+02  0.10313420104E+03 -0.18465134746E+03  0.22859720790E+03  0.00000000000E+00 0. -1.
         -5    1    5    5    0  502  0.20849376628E+02 -0.15853500194E+03  0.32969558356E+03  0.36645506023E+03  0.47000000000E+01 0.  1.
         13    1    6    6    0    0 -0.16496148652E+02  0.14646092166E+01  0.47259181942E+02  0.50076923611E+02  0.00000000000E+00 0. -1.
        -14    1    6    6    0    0  0.76177800707E+02 -0.28494993119E+02  0.87529713388E+02  0.11948419427E+03  0.00000000000E+00 0.  1.
</event>
<event>
12    1  0.8226261E-002  0.2420292E+03  0.7818608E-02  0.1118592E+00
         21   -1    0    0  503  502  0.00000000000E+00  0.00000000000E+00  0.20680972901E+03  0.20680972901E+03  0.00000000000E+00 0. -1.
         21   -1    0    0  501  503 -0.00000000000E+00 -0.00000000000E+00 -0.35766779085E+03  0.35766779085E+03  0.00000000000E+00 0.  1.
          6    2    1    2  501    0  0.91955759706E+02  0.14177602818E+03 -0.20515397791E+03  0.31727949848E+03  0.17326806281E+03 0.  0.
         24    2    3    3    0    0  0.34052160187E+02  0.15455055498E+03 -0.18065202404E+03  0.25294870402E+03  0.79388093676E+02 0.  0.
         -6    2    1    2    0  502 -0.91955759706E+02 -0.14177602818E+03  0.54295916069E+02  0.24719802139E+03  0.17205380369E+03 0.  0.
        -24    2    5    5    0    0  0.59556650279E+01 -0.67307731183E+02  0.64113119076E+02  0.12370453238E+03  0.81403431571E+02 0.  0.
          5    1    3    3  501    0  0.57903599519E+02 -0.12774526797E+02 -0.24501953875E+02  0.64330794460E+02  0.47000000000E+01 0. -1.
        -13    1    4    4    0    0 -0.13659684625E+02 -0.16163723288E+01 -0.14578612128E+02  0.20043342415E+02  0.00000000000E+00 0.  1.
         14    1    4    4    0    0  0.47711844812E+02  0.15616692731E+03 -0.16607341191E+03  0.23290536160E+03  0.00000000000E+00 0. -1.
         -5    1    5    5    0  502 -0.97911424734E+02 -0.74468296997E+02 -0.98172030071E+01  0.12349348900E+03  0.47000000000E+01 0.  1.
         13    1    6    6    0    0 -0.98651730022E+01 -0.76574075692E+02  0.70236051028E+02  0.10437439135E+03  0.00000000000E+00 0. -1.
        -14    1    6    6    0    0  0.15820838030E+02  0.92663445092E+01 -0.61229319518E+01  0.19330141030E+02  0.00000000000E+00 0.  1.
</event>
<event>
12    1  0.8226261E-002  0.2330117E+03  0.7818608E-02  0.1126693E+00
         21   -1    0    0  501  502  0.00000000000E+00  0.00000000000E+00  0.10118183506E+04  0.10118183506E+04  0.00000000000E+00 0.  1.
         21   -1    0    0  502  503 -0.00000000000E+00 -0.00000000000E+00 -0.54809726860E+02  0.54809726860E+02  0.00000000000E+00 0.  1.
         -6    2    1    2    0  503  0.13968995259E+03  0.10607201082E+02  0.60888395484E+03  0.64771850723E+03  0.17080339157E+03 0.  0.
        -24    2    3    3    0    0  0.12205335124E+03 -0.52645480623E+02  0.42751303902E+03  0.45476916011E+03  0.79868787829E+02 0.  0.
          6    2    1    2  501    0 -0.13968995259E+03 -0.10607201082E+02  0.34812466893E+03  0.41890957026E+03  0.18619518622E+03 0.  0.
         24    2    5    5    0    0  0.96248478536E+00 -0.14657736518E+02  0.16923672882E+03  0.19126401223E+03  0.87892413637E+02 0.  0.
          5    1    5    5  501    0 -0.14065243738E+03  0.40505354365E+01  0.17888794011E+03  0.22764555804E+03  0.47000000000E+01 0. -1.
        -13    1    6    6    0    0  0.19576975282E+02 -0.27103166600E+02  0.17222018357E+02  0.37609008459E+02  0.00000000000E+00 0.  1.
         14    1    6    6    0    0 -0.18614490497E+02  0.12445430081E+02  0.15201471046E+03  0.15365500377E+03  0.00000000000E+00 0. -1.
         -5    1    3    3    0  503  0.17636601347E+02  0.63252681705E+02  0.18137091582E+03  0.19294934712E+03  0.47000000000E+01 0. -1.
         13    1    4    4    0    0  0.72868819934E+02 -0.71786715467E+02  0.28023810155E+03  0.29832296425E+03  0.00000000000E+00 0. -1.
        -14    1    4    4    0    0  0.49184531309E+02  0.19141234844E+02  0.14727493747E+03  0.15644619586E+03  0.00000000000E+00 0.  1.
</event>
<event>
12    1  0.8226261E-002  0.1943830E+03  0.7818608E-02  0.1154825E+00
         21   -1    0    0  501  502  0.00000000000E+00  0.00000000000E+00  0.11208160634E+03  0.11208160634E+03  0.00000000000E+00 0. -1.
         21   -1    0    0  502  503 -0.00000000000E+00 -0.00000000000E+00 -0.33562613928E+03  0.33562613928E+03  0.00000000000E+00 0. -1.
         -6    2    1    2    0  503  0.14507751743E+02  0.86113610059E+02 -0.10242003600E+03  0.21867521468E+03  0.17234545843E+03 0.  0.
        -24    2    3    3    0    0 -0.49154856900E+02  0.87048000913E+02 -0.76975597173E+02  0.14994887116E+03  0.81030037535E+02 0.  0.
          6    2    1    2  501    0 -0.14507751743E+02 -0.86113610059E+02 -0.12112449694E+03  0.22903253095E+03  0.17366268389E+03 0.  0.
         24    2    5    5    0    0  0.29784366897E+02 -0.26111820407E+02 -0.12615464731E+03  0.15413661018E+03  0.79209619889E+02 0.  0.
          5    1    5    5  501    0 -0.44292118640E+02 -0.60001789652E+02  0.50301503678E+01  0.74895920769E+02  0.47000000000E+01 0. -1.
        -11    1    6    6    0    0  0.22366667398E+02 -0.54658594630E+02 -0.85147908263E+02  0.10362430245E+03  0.00000000000E+00 0.  1.
         12    1    6    6    0    0  0.74176994986E+01  0.28546774223E+02 -0.41006739045E+02  0.50512307723E+02  0.00000000000E+00 0. -1.
         -5    1    3    3    0  503  0.63662608644E+02 -0.93439085413E+00 -0.25444438830E+02  0.68726343515E+02  0.47000000000E+01 0.  1.
         11    1    4    4    0    0 -0.19990466983E+01  0.42548617262E+02 -0.73583455905E+02  0.85022973375E+02  0.00000000000E+00 0. -1.
        -12    1    4    4    0    0 -0.47155810202E+02  0.44499383651E+02 -0.33921412682E+01  0.64925897787E+02  0.00000000000E+00 0.  1.
</event>
<event>
12    1  0.8226261E-002  0.2179952E+03  0.7818608E-02  0.1135956E+00
         21   -1    0    0  503  502  0.00000000000E+00  0.00000000000E+00  0.77903419430E+03  0.77903419430E+03  0.00000000000E+00 0.  1.
         21   -1    0    0  501  503 -0.00000000000E+00 -0.00000000000E+00 -0.61070250840E+02  0.61070250840E+02  0.00000000000E+00 0.  1.
          6    2    1    2  501    0  0.42483811252E+02  0.11971378130E+03  0.31028273964E+03  0.37920613776E+03  0.17715996371E+03 0.  0.
         24    2    3    3    0    0  0.35801393218E+02  0.15871848943E+03  0.26538663881E+03  0.31917471401E+03  0.70492065972E+02 0.  0.
         -6    2    1    2    0  502 -0.42483811252E+02 -0.11971378130E+03  0.40768120382E+03  0.46089830738E+03  0.17345611016E+03 0.  0.
        -24    2    5    5    0    0  0.20162654361E+02 -0.12121934716E+03  0.32975176258E+03  0.36078869649E+03  0.79571325424E+02 0.  0.
          5    1    3    3  501    0  0.66824180346E+01 -0.39004708125E+02  0.44896100836E+02  0.60031423747E+02  0.47000000000E+01 0. -1.
        -13    1    4    4    0    0  0.32124152894E+02  0.35941028814E+02  0.11701989977E+03  0.12655977123E+03  0.00000000000E+00 0.  1.
         14    1    4    4    0    0  0.36772403241E+01  0.12277746061E+03  0.14836673904E+03  0.19261494278E+03  0.00000000000E+00 0. -1.
         -5    1    5    5    0  502 -0.62646465613E+02  0.15055658631E+01  0.77929441236E+02  0.10010961090E+03  0.47000000000E+01 0.  1.
         13    1    6    6    0    0  0.10571772314E+02  0.96189640859E+01  0.21922679698E+02  0.26170416983E+02  0.00000000000E+00 0. -1.
        -14    1    6    6    0    0  0.95908820466E+01 -0.13083831125E+03  0.30782908288E+03  0.33461827950E+03  0.00000000000E+00 0.  1.
</event>
<event>
12    1  0.8226261E-002  0.2764693E+03  0.7818608E-02  0.1097638E+00
         21   -1    0    0  501  502  0.00000000000E+00  0.00000000000E+00  0.83513502442E+02  0.83513502442E+02  0.00000000000E+00 0.  1.
         21   -1    0    0  502  503 -0.00000000000E+00 -0.00000000000E+00 -0.91869114110E+03  0.91869114110E+03  0.00000000000E+00 0. -1.
         -6    2    1    2    0  503 -0.19849699466E+03 -0.82006814275E+02 -0.38636755876E+03  0.47509492639E+03  0.17409515831E+03 0.  0.
        -24    2    3    3    0    0 -0.96554160009E+02 -0.54075714844E+02 -0.32590101320E+03  0.35323114595E+03  0.79459947848E+02 0.  0.
          6    2    1    2  501    0  0.19849699466E+03  0.82006814275E+02 -0.44881007990E+03  0.52710971714E+03  0.17403445525E+03 0.  0.
         24    2    5    5    0    0  0.11502017714E+03 -0.17136773226E+02 -0.15718506391E+03  0.20794663978E+03  0.70790893003E+02 0.  0.
          5    1    5    5  501    0  0.83476817524E+02  0.99143587501E+02 -0.29162501598E+03  0.31916307737E+03  0.47000000000E+01 0. -1.
        -11    1    6    6    0    0  0.87662342959E+02 -0.43744893371E+02 -0.11211910427E+03  0.14889256399E+03  0.00000000000E+00 0.  1.
         12    1    6    6    0    0  0.27357834179E+02  0.26608120146E+02 -0.45065959642E+02  0.59054075788E+02  0.00000000000E+00 0. -1.
         -5    1    3    3    0  503 -0.10194283465E+03 -0.27931099432E+02 -0.60466545556E+02  0.12186378044E+03  0.47000000000E+01 0.  1.
         13    1    4    4    0    0  0.11914245128E+02 -0.14576263363E+01 -0.61245040047E+02  0.62410166174E+02  0.00000000000E+00 0. -1.
        -14    1    4    4    0    0 -0.10846840514E+03 -0.52618088507E+02 -0.26465597316E+03  0.29082097978E+03  0.00000000000E+00 0.  1.
</event>
<event>
12    1  0.8226261E-002  0.1839543E+03  0.7818608E-02  0.1164336E+00
         21   -1    0    0  503  502  0.00000000000E+00  0.00000000000E+00  0.11921543433E+03  0.11921543433E+03  0.00000000000E+00 0.  1.
         21   -1    0    0  501  503 -0.00000000000E+00 -0.00000000000E+00 -0.47371995843E+03  0.47371995843E+03  0.00000000000E+00 0.  1.
          6    2    1    2  501    0  0.55631859586E+02  0.24042060495E+02 -0.36630084522E+03  0.40989691838E+03  0.17368434016E+03 0.  0.
         24    2    3    3    0    0  0.50904309679E+02 -0.37560074374E+02 -0.31855507784E+03  0.33167338579E+03  0.67289592746E+02 0.  0.
         -6    2    1    2    0  502 -0.55631859586E+02 -0.24042060495E+02  0.11796321126E+02  0.18303847437E+03  0.17231078154E+03 0.  0.
        -24    2    5    5    0    0 -0.17552182647E+02 -0.26888816043E+02 -0.54573133829E+02  0.10632367551E+03  0.85413169331E+02 0.  0.
          5    1    3    3  501    0  0.47275499067E+01  0.61602134869E+02 -0.47745767376E+02  0.78223532591E+02  0.47000000000E+01 0. -1.
        -13    1    4    4    0    0  0.27437379633E+02  0.16835123493E+02 -0.90701613479E+02  0.96244552427E+02  0.00000000000E+00 0.  1.
         14    1    4    4    0    0  0.23466930046E+02 -0.54395197867E+02 -0.22785346437E+03  0.23542883337E+03  0.00000000000E+00 0. -1.
         -5    1    5    5    0  502 -0.38079676938E+02  0.28467555484E+01  0.66369454954E+02  0.76714798858E+02  0.47000000000E+01 0.  1.
         13    1    6    6    0    0 -0.36909972704E+02 -0.40008773152E+02 -0.61310052523E+02  0.81987624399E+02  0.00000000000E+00 0. -1.
        -14    1    6    6    0    0  0.19357790057E+02  0.13119957109E+02  0.67369186946E+01  0.24336051116E+02  0.00000000000E+00 0.  1.
</event>
<event>
12    1  0.8226261E-002  0.2781095E+03  0.7818608E-02  0.1097109E+00
         21   -1    0    0  501  502  0.00000000000E+00  0.00000000000E+00  0.19657934318E+03  0.19657934318E+03  0.00000000000E+00 0.  1.
         21   -1    0    0  502  503 -0.00000000000E+00 -0.00000000000E+00 -0.51002134285E+03  0.51002134285E+03  0.00000000000E+00 0. -1.
         -6    2    1    2    0  503  0.19881330425E+03 -0.89139971807E+02 -0.32782765080E+03  0.42811934462E+03  0.16835242823E+03 0.  0.
        -24    2    3    3    0    0  0.21092700708E+03 -0.56329452340E+02 -0.24912697815E+03  0.34186879182E+03  0.84538808017E+02 0.  0.
          6    2    1    2  501    0 -0.19881330425E+03  0.89139971807E+02  0.14385651135E+02  0.27848134141E+03  0.17283589335E+03 0.  0.
         24    2    5    5    0    0 -0.94357747475E+02  0.84955704040E+02  0.62307009228E+02  0.16338565078E+03  0.81803736624E+02 0.  0.
          5    1    5    5  501    0 -0.10445555678E+03  0.41842677669E+01 -0.47921358093E+02  0.11509569062E+03  0.47000000000E+01 0. -1.
        -13    1    6    6    0    0 -0.61927750278E+02  0.79582748479E+02  0.96354573256E+01  0.10129808561E+03  0.00000000000E+00 0.  1.
         14    1    6    6    0    0 -0.32429997196E+02  0.53729555606E+01  0.52671551902E+02  0.62087565175E+02  0.00000000000E+00 0. -1.
         -5    1    3    3    0  503 -0.12113702826E+02 -0.32810519466E+02 -0.78700672648E+02  0.86250552804E+02  0.47000000000E+01 0.  1.
         11    1    4    4    0    0  0.70781099461E+02  0.18539617133E+02 -0.10038831266E+03  0.12422356766E+03  0.00000000000E+00 0. -1.
        -12    1    4    4    0    0  0.14014590762E+03 -0.74869069474E+02 -0.14873866550E+03  0.21764522416E+03  0.00000000000E+00 0.  1.
</event>
<event>
12    1  0.8226261E-002  0.2006536E+03  0.7818608E-02  0.1149668E+00
         21   -1    0    0  503  502  0.00000000000E+00  0.00000000000E+00  0.10824999175E+03  0.10824999175E+03  0.00000000000E+00 0.  1.
         21   -1    0    0  501  503 -0.00000000000E+00 -0.00000000000E+00 -0.36807965128E+03  0.36807965128E+03  0.00000000000E+00 0. -1.
          6    2    1    2  501    0  0.98365500809E+02 -0.10268165330E+02 -0.13784323708E+03  0.24343914669E+03  0.17458709335E+03 0.  0.
         24    2    3    3    0    0  0.40005524646E+02 -0.70691832109E+02 -0.57598144526E+02  0.12717104614E+03  0.79102159235E+02 0.  0.
         -6    2    1    2    0  502 -0.98365500809E+02  0.10268165330E+02 -0.12198642245E+03  0.23289049634E+03  0.17197700153E+03 0.  0.
        -24    2    5    5    0    0  0.66950579888E+01  0.22025342851E+02 -0.19147703653E+02  0.85330866624E+02  0.79904835363E+02 0.  0.
          5    1    3    3  501    0  0.58359976164E+02  0.60423666779E+02 -0.80245092558E+02  0.11626810055E+03  0.47000000000E+01 0. -1.
        -11    1    4    4    0    0  0.62685159529E+02 -0.38860686862E+02 -0.31652382877E+02  0.80258678972E+02  0.00000000000E+00 0.  1.
         12    1    4    4    0    0 -0.22679634883E+02 -0.31831145248E+02 -0.25945761649E+02  0.46912367173E+02  0.00000000000E+00 0. -1.
         -5    1    5    5    0  502 -0.10506055880E+03 -0.11757177521E+02 -0.10283871880E+03  0.14755962972E+03  0.47000000000E+01 0.  1.
         11    1    6    6    0    0 -0.13728290600E+02  0.43450986912E+02  0.66695356278E+01  0.46053631040E+02  0.00000000000E+00 0. -1.
        -12    1    6    6    0    0  0.20423348589E+02 -0.21425644061E+02 -0.25817239281E+02  0.39277235584E+02  0.00000000000E+00 0.  1.
</event>
<event>
12    1  0.8226261E-002  0.1848114E+03  0.7818608E-02  0.1163683E+00
         21   -1    0    0  501  502  0.00000000000E+00  0.00000000000E+00  0.42844466628E+03  0.42844466628E+03  0.00000000000E+00 0.  1.
         21   -1    0    0  502  503 -0.00000000000E+00 -0.00000000000E+00 -0.81367748507E+02  0.81367748507E+02  0.00000000000E+00 0.  1.
         -6    2    1    2    0  503 -0.84787598409E+01  0.62548333971E+02  0.12989081784E+03  0.22589132996E+03  0.17369825831E+03 0.  0.
        -24    2    3    3    0    0 -0.71434074452E+02  0.18512624534E+02  0.75113515839E+02  0.13141827476E+03  0.78633189049E+02 0.  0.
          6    2    1    2  501    0  0.84787598409E+01 -0.62548333971E+02  0.21718609993E+03  0.28392108483E+03  0.17163099066E+03 0.  0.
         24    2    5    5    0    0  0.21508096402E+02 -0.53900427319E+02  0.23790700979E+03  0.25753934861E+03  0.79742814717E+02 0.  0.
          5    1    5    5  501    0 -0.13029336561E+02 -0.86479066515E+01 -0.20720909857E+02  0.26381736220E+02  0.47000000000E+01 0. -1.
        -11    1    6    6    0    0 -0.22570520156E+02 -0.44005012024E+02  0.16014222793E+03  0.16760490037E+03  0.00000000000E+00 0.  1.
         12    1    6    6    0    0  0.44078616558E+02 -0.98954152953E+01  0.77764781862E+02  0.89934448236E+02  0.00000000000E+00 0. -1.
         -5    1    3    3    0  503  0.62955314611E+02  0.44035709437E+02  0.54777302001E+02  0.94473055195E+02  0.47000000000E+01 0.  1.
         13    1    4    4    0    0 -0.37311886913E+02  0.49295433406E+02  0.40967374285E+02  0.74165641745E+02  0.00000000000E+00 0. -1.
        -14    1    4    4    0    0 -0.34122187539E+02 -0.30782808872E+02  0.34146141554E+02  0.57252633018E+02  0.00000000000E+00 0.  1.
</event>
<event>
12    1  0.8226261E-002  0.2077052E+03  0.7818608E-02  0.1144842E+00
         21   -1    0    0  503  502  0.00000000000E+00  0.00000000000E+00  0.17801326259E+03  0.17801326259E+03  0.00000000000E+00 0. -1.
         21   -1    0    0  501  503 -0.00000000000E+00 -0.00000000000E+00 -0.35252210052E+03  0.35252210052E+03  0.00000000000E+00 0.  1.
          6    2    1    2  501    0  0.23194892171E+02  0.10924016402E+03 -0.24194348321E+03  0.31887001495E+03  0.17512858393E+03 0.  0.
         24    2    3    3    0    0 -0.44041958957E+02  0.41374361465E+02 -0.17390741876E+03  0.20149217474E+03  0.81876579352E+02 0.  0.
         -6    2    1    2    0  502 -0.23194892171E+02 -0.10924016402E+03  0.67434645274E+02  0.21166534816E+03  0.16668344781E+03 0.  0.
        -24    2    5    5    0    0 -0.13456146796E+02 -0.51854091652E+01  0.66177666069E+02  0.10704266819E+03  0.82889643332E+02 0.  0.
          5    1    3    3  501    0  0.67236851129E+02  0.67865802552E+02 -0.68036064446E+02  0.11737784020E+03  0.47000000000E+01 0. -1.
        -11    1    4    4    0    0 -0.29641850921E+02  0.50748780654E+02 -0.52286786005E+02  0.78663753118E+02  0.00000000000E+00 0.  1.
         12    1    4    4    0    0 -0.14400108037E+02 -0.93744191881E+01 -0.12162063276E+03  0.12282842163E+03  0.00000000000E+00 0. -1.
         -5    1    5    5    0  502 -0.97387453750E+01 -0.10405475485E+03  0.12569792052E+01  0.10462267998E+03  0.47000000000E+01 0.  1.
         11    1    6    6    0    0  0.17475236858E+02 -0.31856106371E+02  0.52744360839E+02  0.64048130470E+02  0.00000000000E+00 0. -1.
        -12    1    6    6    0    0 -0.30931383655E+02  0.26670697205E+02  0.13433305229E+02  0.42994537718E+02  0.00000000000E+00 0.  1.
</event>
<event>
12    1  0.8226261E-002  0.2015003E+03  0.7818608E-02  0.1148637E+00
         21   -1    0    0  501  502  0.00000000000E+00  0.00000000000E+00  0.27450681401E+03  0.27450681401E+03  0.00000000000E+00 0.  1.
         21   -1    0    0  502  503 -0.00000000000E+00 -0.00000000000E+00 -0.17557849533E+03  0.17557849533E+03  0.00000000000E+00 0. -1.
         -6    2    1    2    0  503 -0.52324502701E+02  0.90200003040E+02 -0.40678705585E+02  0.20556542821E+03  0.17241952922E+03 0.  0.
        -24    2    3    3    0    0 -0.85150900750E+02  0.72667286262E+02  0.14419334161E+02  0.13891070182E+03  0.80975647513E+02 0.  0.
          6    2    1    2  501    0  0.52324502701E+02 -0.90200003040E+02  0.13960702426E+03  0.24451988113E+03  0.17153995719E+03 0.  0.
         24    2    5    5    0    0  0.20175857080E+02 -0.89985298188E+02  0.31033784645E+02  0.13118930329E+03  0.87994990815E+02 0.  0.
          5    1    5    5  501    0  0.32148645621E+02 -0.21470485172E+00  0.10857323962E+03  0.11333057785E+03  0.47000000000E+01 0. -1.
        -13    1    6    6    0    0 -0.48944063220E+01 -0.59214104910E+02  0.58136762269E+02  0.83127303340E+02  0.00000000000E+00 0.  1.
         14    1    6    6    0    0  0.25070263402E+02 -0.30771193278E+02 -0.27102977623E+02  0.48061999947E+02  0.00000000000E+00 0. -1.
         -5    1    3    3    0  503  0.32826398049E+02  0.17532716778E+02 -0.55098039746E+02  0.66654726392E+02  0.47000000000E+01 0.  1.
         11    1    4    4    0    0 -0.49730630243E+02  0.44785227435E+01  0.33006638376E+02  0.59855082718E+02  0.00000000000E+00 0. -1.
        -12    1    4    4    0    0 -0.35420270507E+02  0.68188763518E+02 -0.18587304215E+02  0.79055619098E+02  0.00000000000E+00 0.  1.
</event>
<event>
12    1  0.8226261E-002  0.2281304E+03  0.7818608E-02  0.1128562E+00
         21   -1    0    0  503  502  0.00000000000E+00  0.00000000000E+00  0.18245761314E+04  0.18245761314E+04  0.00000000000E+00 0. -1.
         21   -1    0    0  501  503 -0.00000000000E+00 -0.00000000000E+00 -0.30726651381E+02  0.30726651381E+02  0.00000000000E+00 0.  1.
          6    2    1    2  501    0  0.26648913479E+01  0.14541460785E+03  0.63211596535E+03  0.67202236878E+03  0.17575824495E+03 0.  0.
         24    2    3    3    0    0 -0.23139622705E+02  0.10688640397E+03  0.60142500393E+03  0.61621627097E+03  0.77783749958E+02 0.  0.
         -6    2    1    2    0  502 -0.26648913479E+01 -0.14541460785E+03  0.11617335146E+04  0.11832804140E+04  0.17139215043E+03 0.  0.
        -24    2    5    5    0    0 -0.27632493467E+02 -0.13989569771E+02  0.32676993334E+03  0.33765508684E+03  0.79202939186E+02 0.  0.
          5    1    3    3  501    0  0.25804514053E+02  0.38528203886E+02  0.30690961413E+02  0.55806097809E+02  0.47000000000E+01 0. -1.
        -11    1    4    4    0    0 -0.76312494071E+00  0.57885441000E+02  0.13771484001E+03  0.14938769628E+03  0.00000000000E+00 0.  1.
         12    1    4    4    0    0 -0.22376497765E+02  0.49000962965E+02  0.46371016392E+03  0.46682857469E+03  0.00000000000E+00 0. -1.
         -5    1    5    5    0  502  0.24967602119E+02 -0.13142503808E+03  0.83496358130E+03  0.84562532713E+03  0.47000000000E+01 0.  1.
         11    1    6    6    0    0  0.44891558567E+01 -0.19162745437E+02  0.27994695955E+03  0.28063795804E+03  0.00000000000E+00 0. -1.
        -12    1    6    6    0    0 -0.32121649324E+02  0.51731756666E+01  0.46822973795E+02  0.57017128802E+02  0.00000000000E+00 0.  1.
</event>
<event>
12    1  0.8226261E-002  0.2195985E+03  0.7818608E-02  0.1134513E+00
         21   -1    0    0  501  502  0.00000000000E+00  0.00000000000E+00  0.98243478301E+02  0.98243478301E+02  0.00000000000E+00 0.  1.
         21   -1    0    0  502  503 -0.00000000000E+00 -0.00000000000E+00 -0.49463334530E+03  0.49463334530E+03  0.00000000000E+00 0. -1.
         -6    2    1    2    0  503 -0.10306937232E+03  0.88126191695E+02 -0.23438945601E+03  0.31998926316E+03  0.17048516145E+03 0.  0.
        -24    2    3    3    0    0 -0.10499201383E+02  0.64705421704E+02 -0.18598426626E+03  0.21283086913E+03  0.80061268618E+02 0.  0.
          6    2    1    2  501    0  0.10306937232E+03 -0.88126191695E+02 -0.16200041099E+03  0.27288756044E+03  0.17272511777E+03 0.  0.
         24    2    5    5    0    0  0.73017087608E+02 -0.63059582348E+02 -0.35338257560E+02  0.14023438169E+03  0.95440470206E+02 0.  0.
          5    1    5    5  501    0  0.30052284716E+02 -0.25066609347E+02 -0.12666215343E+03  0.13265317875E+03  0.47000000000E+01 0. -1.
        -13    1    6    6    0    0  0.29699419581E+02 -0.82426271820E+02 -0.29397573955E+02  0.92414085311E+02  0.00000000000E+00 0.  1.
         14    1    6    6    0    0  0.43317668028E+02  0.19366689472E+02 -0.59406836053E+01  0.47820296383E+02  0.00000000000E+00 0. -1.
         -5    1    3    3    0  503 -0.92570170941E+02  0.23420769990E+02 -0.48405189750E+02  0.10715839402E+03  0.47000000000E+01 0.  1.
         11    1    4    4    0    0 -0.31194407816E+02 -0.33147858390E+01 -0.71295967844E+02  0.77892194186E+02  0.00000000000E+00 0. -1.
        -12    1    4    4    0    0  0.20695206433E+02  0.68020207543E+02 -0.11468829841E+03  0.13493867495E+03  0.00000000000E+00 0.  1.
</event>
<event>
12    1  0.8226261E-002  0.2194785E+03  0.7818608E-02  0.1135314E+00
         21   -1    0    0  501  502  0.00000000000E+00  0.00000000000E+00  0.95069266988E+02  0.95069266988E+02  0.00000000000E+00 0.  1.
         21   -1    0    0  502  503 -0.00000000000E+00 -0.00000000000E+00 -0.80466607290E+03  0.80466607290E+03  0.00000000000E+00 0. -1.
         -6    2    1    2    0  503  0.60787884435E+02 -0.11216404630E+03 -0.63151264650E+03  0.66678049265E+03  0.17179075211E+03 0.  0.
        -24    2    3    3    0    0  0.31811421113E+02 -0.58324275291E+01 -0.15288447312E+03  0.17560530299E+03  0.80109778397E+02 0.  0.
          6    2    1    2  501    0 -0.60787884435E+02  0.11216404630E+03 -0.78084159413E+02  0.23295484724E+03  0.17859139040E+03 0.  0.
         24    2    5    5    0    0 -0.83305337870E+02  0.12991272961E+02 -0.58031956112E+02  0.12919331517E+03  0.78833065804E+02 0.  0.
          5    1    5    5  501    0  0.22517453435E+02  0.99172773336E+02 -0.20052203301E+02  0.10376153207E+03  0.47000000000E+01 0. -1.
        -11    1    6    6    0    0 -0.53707427238E+02  0.36562378537E+02 -0.65475025928E+01  0.65300574691E+02  0.00000000000E+00 0.  1.
         12    1    6    6    0    0 -0.29597910632E+02 -0.23571105576E+02 -0.51484453519E+02  0.63892740480E+02  0.00000000000E+00 0. -1.
         -5    1    3    3    0  503  0.28976463322E+02 -0.10633161877E+03 -0.47862817339E+03  0.49117518966E+03  0.47000000000E+01 0.  1.
         11    1    4    4    0    0 -0.11739573712E+02 -0.24438770320E+02 -0.10426494530E+03  0.10773230669E+03  0.00000000000E+00 0. -1.
        -12    1    4    4    0    0  0.43550994825E+02  0.18606342791E+02 -0.48619527815E+02  0.67872996304E+02  0.00000000000E+00 0.  1.
</event>
<event>
12    1  0.8226261E-002  0.2435940E+03  0.7818608E-02  0.1117821E+00
         21   -1    0    0  503  502  0.00000000000E+00  0.00000000000E+00  0.12150687140E+03  0.12150687140E+03  0.00000000000E+00 0.  1.
         21   -1    0    0  501  503 -0.00000000000E+00 -0.00000000000E+00 -0.50929527175E+03  0.50929527175E+03  0.00000000000E+00 0. -1.
          6    2    1    2  501    0 -0.54217360178E+02  0.16132654205E+03 -0.12197604643E+03  0.27025496899E+03  0.17086198245E+03 0.  0.
         24    2    3    3    0    0 -0.41511349223E+01  0.16431552292E+03 -0.12278203841E+03  0.21987341938E+03  0.79070023390E+02 0.  0.
         -6    2    1    2    0  502  0.54217360178E+02 -0.16132654205E+03 -0.26581235392E+03  0.36054717416E+03  0.17427645274E+03 0.  0.
        -24    2    5    5    0    0  0.51631621232E+02 -0.21008900603E+02 -0.15189254308E+03  0.17972809372E+03  0.78253720768E+02 0.  0.
          5    1    3    3  501    0 -0.50066225255E+02 -0.29889808679E+01  0.80599198374E+00  0.50381549609E+02  0.47000000000E+01 0. -1.
        -13    1    4    4    0    0  0.29551900093E+02  0.11181096783E+03 -0.56046016164E+02  0.12851522576E+03  0.00000000000E+00 0.  1.
         14    1    4    4    0    0 -0.33703035015E+02  0.52504555090E+02 -0.66736022250E+02  0.91358193612E+02  0.00000000000E+00 0. -1.
         -5    1    5    5    0  502  0.25857389459E+01 -0.14031764145E+03 -0.11391981084E+03  0.18081908044E+03  0.47000000000E+01 0.  1.
         13    1    6    6    0    0  0.28539292207E+02 -0.45707906573E+01 -0.40412308857E+01  0.29184154502E+02  0.00000000000E+00 0. -1.
        -14    1    6    6    0    0  0.23092329025E+02 -0.16438109946E+02 -0.14785131219E+03  0.15054393922E+03  0.00000000000E+00 0.  1.
</event>
<event>
12    1  0.8226261E-002  0.1760920E+03  0.7818608E-02  0.1172222E+00
         21   -1    0    0  503  502  0.00000000000E+00  0.00000000000E+00  0.26509917786E+03  0.26509917786E+03  0.00000000000E+00 0. -1.
         21   -1    0    0  501  503 -0.00000000000E+00 -0.00000000000E+00 -0.11674520992E+03  0.11674520992E+03  0.00000000000E+00 0. -1.
          6    2    1    2  501    0 -0.18364500369E+02  0.18127211584E+02  0.54403538214E+02  0.18430447789E+03  0.17419111610E+03 0.  0.
         24    2    3    3    0    0  0.41964124108E+02 -0.37867728812E+02  0.35589366532E+02  0.99740659759E+02  0.74071881315E+02 0.  0.
         -6    2    1    2    0  502  0.18364500369E+02 -0.18127211584E+02  0.93950429728E+02  0.19753990989E+03  0.17184144459E+03 0.  0.
        -24    2    5    5    0    0  0.25714819536E+02  0.20289970895E+02  0.12145480495E+03  0.14949318515E+03  0.80771330912E+02 0.  0.
          5    1    3    3  501    0 -0.60328624477E+02  0.55994940395E+02  0.18814171682E+02  0.84563818133E+02  0.47000000000E+01 0. -1.
        -11    1    4    4    0    0  0.62877930808E+02 -0.22927815601E+02  0.30454110276E+02  0.73530753727E+02  0.00000000000E+00 0.  1.
         12    1    4    4    0    0 -0.20913806700E+02 -0.14939913210E+02  0.51352562560E+01  0.26209906032E+02  0.00000000000E+00 0. -1.
         -5    1    5    5    0  502 -0.73503191675E+01 -0.38417182479E+02 -0.27504375224E+02  0.48046724737E+02  0.47000000000E+01 0.  1.
         11    1    6    6    0    0  0.25545678657E+02  0.65405225565E+01 -0.88356664644E+00  0.26384480730E+02  0.00000000000E+00 0. -1.
        -12    1    6    6    0    0  0.16914087907E+00  0.13749448339E+02  0.12233837160E+03  0.12310870442E+03  0.00000000000E+00 0.  1.
</event>
<event>
12    1  0.8226261E-002  0.1813964E+03  0.7818608E-02  0.1166983E+00
         21   -1    0    0  503  502  0.00000000000E+00  0.00000000000E+00  0.11850986370E+03  0.11850986370E+03  0.00000000000E+00 0. -1.
         21   -1    0    0  501  503 -0.00000000000E+00 -0.00000000000E+00 -0.51586036382E+03  0.51586036382E+03  0.00000000000E+00 0. -1.
          6    2    1    2  501    0 -0.27874267828E+02  0.48275513860E+02  0.17720510022E+02  0.18225990639E+03  0.17261853016E+03 0.  0.
         24    2    3    3    0    0 -0.50689569809E+01 -0.39187247839E+02 -0.25756278741E+01  0.89503019308E+02  0.80267190608E+02 0.  0.
         -6    2    1    2    0  502  0.27874267828E+02 -0.48275513860E+02 -0.41507101013E+03  0.45211032114E+03  0.17032997087E+03 0.  0.
        -24    2    5    5    0    0  0.34744341657E+02 -0.32879492946E+02 -0.10304458819E+03  0.13959342021E+03  0.81116616524E+02 0.  0.
          5    1    3    3  501    0 -0.22805310847E+02  0.87462761699E+02  0.20296137897E+02  0.92756887078E+02  0.47000000000E+01 0. -1.
        -11    1    4    4    0    0  0.21547666598E+01 -0.57238056694E-01 -0.36894015057E+02  0.36956929561E+02  0.00000000000E+00 0.  1.
         12    1    4    4    0    0 -0.72237236407E+01 -0.39130009783E+02  0.34318387183E+02  0.52546089747E+02  0.00000000000E+00 0. -1.
         -5    1    5    5    0  502 -0.68700738286E+01 -0.15396020914E+02 -0.31202642195E+03  0.31251690093E+03  0.47000000000E+01 0.  1.
         13    1    6    6    0    0  0.25431600787E+02 -0.12605855909E+01 -0.10354292180E+03  0.10662782024E+03  0.00000000000E+00 0. -1.
        -14    1    6    6    0    0  0.93127408701E+01 -0.31618907355E+02  0.49833360796E+00  0.32965599968E+02  0.00000000000E+00 0.  1.
</event>
<event>
12    1  0.8226261E-002  0.2148967E+03  0.7818608E-02  0.1137798E+00
         21   -1    0    0  503  502  0.00000000000E+00  0.00000000000E+00  0.45265928995E+02  0.45265928995E+02  0.00000000000E+00 0. -1.
         21   -1    0    0  501  503 -0.00000000000E+00 -0.00000000000E+00 -0.19546106135E+04  0.19546106135E+04  0.00000000000E+00 0.  1.
          6    2    1    2  501    0  0.10897551021E+03  0.69501899544E+02 -0.16462027622E+04  0.16601350476E+04  0.17134370750E+03 0.  0.
         24    2    3    3    0    0  0.98914452910E+02  0.73085599542E+02 -0.16404590202E+04  0.16471293430E+04  0.82484554261E+02 0.  0.
         -6    2    1    2    0  502 -0.10897551021E+03 -0.69501899544E+02 -0.26314192237E+03  0.33974149497E+03  0.17168120523E+03 0.  0.
        -24    2    5    5    0    0 -0.11541709693E+03 -0.77821156445E+02 -0.27795089594E+03  0.32097717315E+03  0.79952526399E+02 0.  0.
          5    1    3    3  501    0  0.10061057297E+02 -0.35836999984E+01 -0.57437419531E+01  0.13005704565E+02  0.47000000000E+01 0. -1.
        -13    1    4    4    0    0  0.42279584032E+02  0.67089005419E+02 -0.12530299194E+04  0.12555367285E+04  0.00000000000E+00 0.  1.
         14    1    4    4    0    0  0.56634868879E+02  0.59965941227E+01 -0.38742910083E+03  0.39159261444E+03  0.00000000000E+00 0. -1.
         -5    1    5    5    0  502  0.64415867252E+01  0.83192569015E+01  0.14808973570E+02  0.18764321814E+02  0.47000000000E+01 0.  1.
         13    1    6    6    0    0 -0.51752738600E+02 -0.76427597774E+02 -0.12572727216E+03  0.15597073642E+03  0.00000000000E+00 0. -1.
        -14    1    6    6    0    0 -0.63664358333E+02 -0.13935586714E+01 -0.15222362378E+03  0.16500643673E+03  0.00000000000E+00 0.  1.
</event>
<event>
12    1  0.8226261E-002  0.2159770E+03  0.7818608E-02  0.1136955E+00
         21   -1    0    0  503  502  0.00000000000E+00  0.00000000000E+00  0.41978333435E+03  0.41978333435E+03  0.00000000000E+00 0. -1.
         21   -1    0    0  501  503 -0.00000000000E+00 -0.00000000000E+00 -0.16567007179E+03  0.16567007179E+03  0.00000000000E+00 0. -1.
          6    2    1    2  501    0  0.11790195545E+03  0.49921460558E+02 -0.41104156066E+02  0.21966742661E+03  0.17369859915E+03 0.  0.
         24    2    3    3    0    0  0.14445742361E+03  0.40808523034E+02 -0.12324338203E+01  0.17067678716E+03  0.81214309044E+02 0.  0.
         -6    2    1    2    0  502 -0.11790195545E+03 -0.49921460558E+02  0.29521741863E+03  0.36578597953E+03  0.17393399679E+03 0.  0.
        -24    2    5    5    0    0 -0.10189577797E+03  0.20478345874E+02  0.12621049815E+03  0.18194430952E+03  0.79828126035E+02 0.  0.
          5    1    3    3  501    0 -0.26555468158E+02  0.91129375238E+01 -0.39871722246E+02  0.48990639456E+02  0.47000000000E+01 0. -1.
        -11    1    4    4    0    0  0.66898491784E+02  0.12569726906E+02  0.39429871488E+02  0.78664610868E+02  0.00000000000E+00 0.  1.
         12    1    4    4    0    0  0.77558931826E+02  0.28238796128E+02 -0.40662305308E+02  0.92012176290E+02  0.00000000000E+00 0. -1.
         -5    1    5    5    0  502 -0.16006177481E+02 -0.70399806432E+02  0.16900692047E+03  0.18384167001E+03  0.47000000000E+01 0.  1.
         11    1    6    6    0    0 -0.59418122519E+02 -0.69933303722E+01  0.11573460205E+03  0.13028399006E+03  0.00000000000E+00 0. -1.
        -12    1    6    6    0    0 -0.42477655451E+02  0.27471676246E+02  0.10475896104E+02  0.51660319468E+02  0.00000000000E+00 0.  1.
</event>
<event>
12    1  0.8226261E-002  0.3327608E+03  0.7818608E-02  0.1070103E+00
         21   -1    0    0  501  502  0.00000000000E+00  0.00000000000E+00  0.67527110318E+03  0.67527110318E+03  0.00000000000E+00 0.  1.
         21   -1    0    0  502  503 -0.00000000000E+00 -0.00000000000E+00 -0.38142534562E+03  0.38142534562E+03  0.00000000000E+00 0.  1.
         -6    2    1    2    0  503  0.12328979372E+03 -0.25511117930E+03 -0.25290176470E+03  0.41664752583E+03  0.17132942291E+03 0.  0.
        -24    2    3    3    0    0  0.11422770464E+03 -0.25716952218E+03 -0.18109242821E+03  0.34408700599E+03  0.80107855330E+02 0.  0.
          6    2    1    2  501    0 -0.12328979372E+03  0.25511117930E+03  0.54674752226E+03  0.64004892298E+03  0.17449264646E+03 0.  0.
         24    2    5    5    0    0 -0.11331206080E+01  0.53799621801E+02  0.12612657470E+03  0.15797769640E+03  0.78443332705E+02 0.  0.
          5    1    5    5  501    0 -0.12215667311E+03  0.20131155750E+03  0.42062094756E+03  0.48207122658E+03  0.47000000000E+01 0. -1.
        -11    1    6    6    0    0 -0.21627479735E+02  0.23793687347E+02  0.11582989373E+03  0.12021003169E+03  0.00000000000E+00 0.  1.
         12    1    6    6    0    0  0.20494359127E+02  0.30005934454E+02  0.10296680966E+02  0.37767664707E+02  0.00000000000E+00 0. -1.
         -5    1    3    3    0  503  0.90620890792E+01  0.20583428829E+01 -0.71809336486E+02  0.72560519846E+02  0.47000000000E+01 0.  1.
         11    1    4    4    0    0  0.98750914406E+02 -0.15123075048E+03 -0.82590114245E+02  0.19860415393E+03  0.00000000000E+00 0. -1.
        -12    1    4    4    0    0  0.15476790234E+02 -0.10593877171E+03 -0.98502313967E+02  0.14548285206E+03  0.00000000000E+00 0.  1.
</event>
<event>
12    1  0.8226261E-002  0.1750321E+03  0.7818608E-02  0.1172917E+00
         21   -1    0    0  503  502  0.00000000000E+00  0.00000000000E+00  0.73419086741E+02  0.73419086741E+02  0.00000000000E+00 0. -1.
         21   -1    0    0  501  503 -0.00000000000E+00 -0.00000000000E+00 -0.53665408571E+03  0.53665408571E+03  0.00000000000E+00 0. -1.
          6    2    1    2  501    0 -0.20092086966E+02 -0.27192329611E+02 -0.37716037112E+03  0.41579585091E+03  0.17173563795E+03 0.  0.
         24    2    3    3    0    0 -0.28842009923E+02 -0.81995562479E+02 -0.24418509594E+03  0.27162765298E+03  0.81240919384E+02 0.  0.
         -6    2    1    2    0  502  0.20092086966E+02  0.27192329611E+02 -0.86074627847E+02  0.19427732154E+03  0.17085584964E+03 0.  0.
        -24    2    5    5    0    0  0.51892300665E+02 -0.14862147291E+02 -0.15363016300E+01  0.94534395885E+02  0.77593153643E+02 0.  0.
          5    1    3    3  501    0  0.87499229573E+01  0.54803232867E+02 -0.13297527518E+03  0.14416819793E+03  0.47000000000E+01 0. -1.
        -11    1    4    4    0    0 -0.43921352298E+02 -0.10915588547E+02 -0.76647119336E+02  0.89011326041E+02  0.00000000000E+00 0.  1.
         12    1    4    4    0    0  0.15079342376E+02 -0.71079973932E+02 -0.16753797660E+03  0.18261632694E+03  0.00000000000E+00 0. -1.
         -5    1    5    5    0  502 -0.31800213699E+02  0.42054476902E+02 -0.84538326217E+02  0.99742925656E+02  0.47000000000E+01 0.  1.
         11    1    6    6    0    0  0.51354016069E+01  0.29335329952E+02  0.35574808309E+01  0.29993159269E+02  0.00000000000E+00 0. -1.
        -12    1    6    6    0    0  0.46756899058E+02 -0.44197477243E+02 -0.50937824609E+01  0.64541236616E+02  0.00000000000E+00 0.  1.
</event>
<event>
12    1  0.8226261E-002  0.2068684E+03  0.7818608E-02  0.1144633E+00
         21   -1    0    0  501  502  0.00000000000E+00  0.00000000000E+00  0.55681394436E+03  0.55681394436E+03  0.00000000000E+00 0. -1.
         21   -1    0    0  502  503 -0.00000000000E+00 -0.00000000000E+00 -0.30523541052E+03  0.30523541052E+03  0.00000000000E+00 0. -1.
         -6    2    1    2    0  503 -0.60420348363E+02  0.94028061572E+02 -0.24808752141E+03  0.32125299600E+03  0.17077521571E+03 0.  0.
        -24    2    3    3    0    0 -0.14234599817E+02  0.65043024776E+02 -0.48670412935E+02  0.11446196892E+03  0.79369479841E+02 0.  0.
          6    2    1    2  501    0  0.60420348363E+02 -0.94028061572E+02  0.49966605525E+03  0.54079635889E+03  0.17407653535E+03 0.  0.
         24    2    5    5    0    0  0.63451214710E+00 -0.29206647164E+02  0.98255030834E+02  0.12978655061E+03  0.79605695718E+02 0.  0.
          5    1    5    5  501    0  0.59785836216E+02 -0.64821414408E+02  0.40141102442E+03  0.41100980828E+03  0.47000000000E+01 0. -1.
        -11    1    6    6    0    0 -0.36355202494E+01 -0.53250362609E+02  0.40246723631E+02  0.66847714160E+02  0.00000000000E+00 0.  1.
         12    1    6    6    0    0  0.42700323965E+01  0.24043715445E+02  0.58008307203E+02  0.62938836450E+02  0.00000000000E+00 0. -1.
         -5    1    3    3    0  503 -0.46185748546E+02  0.28985036796E+02 -0.19941710848E+03  0.20679102708E+03  0.47000000000E+01 0.  1.
         13    1    4    4    0    0 -0.18377040193E+02  0.45950057436E+02 -0.69877633050E+02  0.85627139303E+02  0.00000000000E+00 0. -1.
        -14    1    4    4    0    0  0.41424403758E+01  0.19092967341E+02  0.21207220115E+02  0.28834829619E+02  0.00000000000E+00 0.  1.
</event>
<event>
12    1  0.8226261E-002  0.1806919E+03  0.7818608E-02  0.1167193E+00
         21   -1    0    0  501  502  0.00000000000E+00  0.00000000000E+00  0.90597934736E+03  0.90597934736E+03  0.00000000000E+00 0.  1.
         21   -1    0    0  502  503 -0.00000000000E+00 -0.00000000000E+00 -0.10633886057E+03  0.10633886057E+03  0.00000000000E+00 0.  1.
         -6    2    1    2    0  503 -0.16897669599E+02  0.48846323674E+02 -0.11958384267E+02  0.18084825734E+03  0.17289185827E+03 0.  0.
        -24    2    3    3    0    0  0.30015765587E+02  0.80713611531E+02 -0.29649672121E+02  0.12125407891E+03  0.80048830886E+02 0.  0.
          6    2    1    2  501    0  0.16897669599E+02 -0.48846323674E+02  0.81159887105E+03  0.83146995059E+03  0.17314172419E+03 0.  0.
         24    2    5    5    0    0  0.65135755054E+02 -0.72306178374E+02  0.60069201764E+03  0.61379802202E+03  0.80288615351E+02 0.  0.
          5    1    5    5  501    0 -0.48238085455E+02  0.23459854700E+02  0.21090685341E+03  0.21767192857E+03  0.47000000000E+01 0. -1.
        -13    1    6    6    0    0  0.44636821002E+02 -0.18364576392E+02  0.44754289730E+03  0.45013814367E+03  0.00000000000E+00 0.  1.
         14    1    6    6    0    0  0.20498934052E+02 -0.53941601982E+02  0.15314912034E+03  0.16365987835E+03  0.00000000000E+00 0. -1.
         -5    1    3    3    0  503 -0.46913435186E+02 -0.31867287857E+02  0.17691287854E+02  0.59594178426E+02  0.47000000000E+01 0.  1.
         13    1    4    4    0    0 -0.91440816630E+01  0.28053357784E+02  0.22764460914E+02  0.37266953096E+02  0.00000000000E+00 0. -1.
        -14    1    4    4    0    0  0.39159847250E+02  0.52660253747E+02 -0.52414133034E+02  0.83987125818E+02  0.00000000000E+00 0.  1.
</event>
<event>
12    1  0.8226261E-002  0.1755648E+03  0.7818608E-02  0.1172564E+00
         21   -1    0    0  503  502  0.00000000000E+00  0.00000000000E+00  0.42002115157E+02  0.42002115157E+02  0.00000000000E+00 0. -1.
         21   -1    0    0  501  503 -0.00000000000E+00 -0.00000000000E+00 -0.81101934201E+03  0.81101934201E+03  0.00000000000E+00 0. -1.
          6    2    1    2  501    0 -0.40119614195E+02  0.29710081073E+00 -0.24585541877E+03  0.30118699570E+03  0.16928983349E+03 0.  0.
         24    2    3    3    0    0 -0.40062006970E+02 -0.50230615438E+02 -0.22592552338E+03  0.24666778662E+03  0.75329779709E+02 0.  0.
         -6    2    1    2    0  502  0.40119614195E+02 -0.29710081073E+00 -0.52316180808E+03  0.55183446147E+03  0.17091905605E+03 0.  0.
        -24    2    5    5    0    0  0.92609028495E+02  0.52030507484E+01 -0.36573457821E+03  0.38572963618E+03  0.80137797782E+02 0.  0.
          5    1    3    3  501    0 -0.57607224750E-01  0.50527716249E+02 -0.19929895392E+02  0.54519209076E+02  0.47000000000E+01 0. -1.
        -13    1    4    4    0    0 -0.59962466298E+01 -0.61802394205E+02 -0.12613711301E+03  0.14059182829E+03  0.00000000000E+00 0.  1.
         14    1    4    4    0    0 -0.34065760340E+02  0.11571778766E+02 -0.99788410372E+02  0.10607595833E+03  0.00000000000E+00 0. -1.
         -5    1    5    5    0  502 -0.52489414300E+02 -0.55001515592E+01 -0.15742722987E+03  0.16610482530E+03  0.47000000000E+01 0.  1.
         13    1    6    6    0    0  0.72664802812E+02  0.22177401485E+02 -0.14737713152E+03  0.16580720611E+03  0.00000000000E+00 0. -1.
        -14    1    6    6    0    0  0.19944225683E+02 -0.16974350737E+02 -0.21835744669E+03  0.21992243007E+03  0.00000000000E+00 0.  1.
</event>
<event>
12    1  0.8226261E-002  0.1973999E+03  0.7818608E-02  0.1157560E+00
         21   -1    0    0  501  502  0.00000000000E+00  0.00000000000E+00  0.28499291645E+02  0.28499291645E+02  0.00000000000E+00 0.  1.
         21   -1    0    0  502  503 -0.00000000000E+00 -0.00000000000E+00 -0.14320324383E+04  0.14320324383E+04  0.00000000000E+00 0.  1.
         -6    2    1    2    0  503  0.26327194769E+02 -0.46749519055E+02 -0.95402907803E+03  0.96959322483E+03  0.16450197930E+03 0.  0.
        -24    2    3    3    0    0 -0.37818074133E+02  0.11726991510E+02 -0.55451751905E+03  0.56073421054E+03  0.73249210728E+02 0.  0.
          6    2    1    2  501    0 -0.26327194769E+02  0.46749519055E+02 -0.44950406867E+03  0.49093850516E+03  0.18996860104E+03 0.  0.
         24    2    5    5    0    0 -0.37246911440E+02  0.10048309124E+03 -0.37299791170E+03  0.39669510196E+03  0.82191105066E+02 0.  0.
          5    1    5    5  501    0  0.10919716671E+02 -0.53733572184E+02 -0.76506156970E+02  0.94243403197E+02  0.47000000000E+01 0. -1.
        -13    1    6    6    0    0 -0.27234938288E+02  0.54336479617E+02 -0.82981906744E+02  0.10286005895E+03  0.00000000000E+00 0.  1.
         14    1    6    6    0    0 -0.10011973153E+02  0.46146611621E+02 -0.29001600495E+03  0.29383504301E+03  0.00000000000E+00 0. -1.
         -5    1    3    3    0  503  0.64145268903E+02 -0.58476510565E+02 -0.39951155898E+03  0.40885901429E+03  0.47000000000E+01 0.  1.
         11    1    4    4    0    0 -0.13901576621E+02  0.39669811155E+02 -0.38407114978E+03  0.38636458927E+03  0.00000000000E+00 0. -1.
        -12    1    4    4    0    0 -0.23916497512E+02 -0.27942819645E+02 -0.17044636927E+03  0.17436962126E+03  0.00000000000E+00 0.  1.
</event>
<event>
12    1  0.8226261E-002  0.1976937E+03  0.7818608E-02  0.1154435E+00
         21   -1    0    0  503  502  0.00000000000E+00  0.00000000000E+00  0.39247113885E+03  0.39247113885E+03  0.00000000000E+00 0. -1.
         21   -1    0    0  501  503 -0.00000000000E+00 -0.00000000000E+00 -0.11790230556E+03  0.11790230556E+03  0.00000000000E+00 0.  1.
          6    2    1    2  501    0 -0.89582838052E+02 -0.30883164936E+02  0.25692964877E+03  0.32418458453E+03  0.17350488662E+03 0.  0.
         24    2    3    3    0    0 -0.60109089481E+02  0.48952466489E+02  0.12091831908E+03  0.16367414342E+03  0.78476357732E+02 0.  0.
         -6    2    1    2    0  502  0.89582838052E+02  0.30883164936E+02  0.17639184520E+02  0.18618885989E+03  0.15929939098E+03 0.  0.
        -24    2    5    5    0    0  0.12379039954E+03  0.24225363146E+02  0.21005942136E+02  0.15086310945E+03  0.80046842222E+02 0.  0.
          5    1    3    3  501    0 -0.29473748571E+02 -0.79835631424E+02  0.13601132969E+03  0.16051044111E+03  0.47000000000E+01 0. -1.
        -11    1    4    4    0    0 -0.68261114277E+02  0.14547412004E+02  0.54957283930E+02  0.88834171214E+02  0.00000000000E+00 0.  1.
         12    1    4    4    0    0  0.81520247954E+01  0.34405054484E+02  0.65961035151E+02  0.74839972211E+02  0.00000000000E+00 0. -1.
         -5    1    5    5    0  502 -0.34207561484E+02  0.66578017896E+01 -0.33667576153E+01  0.35325750441E+02  0.47000000000E+01 0.  1.
         11    1    6    6    0    0  0.33305654082E+02  0.27754911396E+01  0.43822542990E+02  0.55112477889E+02  0.00000000000E+00 0. -1.
        -12    1    6    6    0    0  0.90484745455E+02  0.21449872006E+02 -0.22816600854E+02  0.95750631557E+02  0.00000000000E+00 0.  1.
</event>
<event>
12    1  0.8226261E-002  0.2102905E+03  0.7818608E-02  0.1141433E+00
         21   -1    0    0  501  502  0.00000000000E+00  0.00000000000E+00  0.53236265224E+02  0.53236265224E+02  0.00000000000E+00 0. -1.
         21   -1    0    0  502  503 -0.00000000000E+00 -0.00000000000E+00 -0.10181145901E+04  0.10181145901E+04  0.00000000000E+00 0.  1.
         -6    2    1    2    0  503  0.10898721960E+03  0.49080789088E+02 -0.71391955030E+03  0.74424674367E+03  0.17301720512E+03 0.  0.
        -24    2    3    3    0    0  0.12326519792E+03  0.86015872537E+02 -0.59813163437E+03  0.62178453509E+03  0.79129745989E+02 0.  0.
          6    2    1    2  501    0 -0.10898721960E+03 -0.49080789088E+02 -0.25095877455E+03  0.32710411163E+03  0.17242289705E+03 0.  0.
         24    2    5    5    0    0 -0.47194010467E+02 -0.42139814635E+02 -0.24330000858E+03  0.26427637478E+03  0.81511161765E+02 0.  0.
          5    1    5    5  501    0 -0.61793209132E+02 -0.69409744527E+01 -0.76587659721E+01  0.62827736848E+02  0.47000000000E+01 0. -1.
        -11    1    6    6    0    0  0.18839609669E+02 -0.23148090030E+02 -0.11413640226E+03  0.11797407887E+03  0.00000000000E+00 0.  1.
         12    1    6    6    0    0 -0.66033620136E+02 -0.18991724606E+02 -0.12916360632E+03  0.14630229591E+03  0.00000000000E+00 0. -1.
         -5    1    3    3    0  503 -0.14277978316E+02 -0.36935083448E+02 -0.11578791593E+03  0.12246220858E+03  0.47000000000E+01 0.  1.
         11    1    4    4    0    0  0.15880804704E+02  0.42980446697E+02 -0.26991194107E+03  0.27377358289E+03  0.00000000000E+00 0. -1.
        -12    1    4    4    0    0  0.10738439321E+03  0.43035425840E+02 -0.32821969330E+03  0.34801095220E+03  0.00000000000E+00 0.  1.
</event>
<event>
12    1  0.8226261E-002  0.1875433E+03  0.7818608E-02  0.1160757E+00
         21   -1    0    0  501  502  0.00000000000E+00  0.00000000000E+00  0.10402937293E+04  0.10402937293E+04  0.00000000000E+00 0.  1.
         21   -1    0    0  502  503 -0.00000000000E+00 -0.00000000000E+00 -0.35083890177E+02  0.35083890177E+02  0.00000000000E+00 0.  1.
         -6    2    1    2    0  503  0.37668923312E+02 -0.64375734504E+02  0.39791627030E+03  0.43978499937E+03  0.17178563538E+03 0.  0.
        -24    2    3    3    0    0  0.31005395075E+02 -0.10359488086E+03  0.22513247710E+03  0.26241850523E+03  0.80533258844E+02 0.  0.
          6    2    1    2  501    0 -0.37668923312E+02  0.64375734504E+02  0.60729356878E+03  0.63559262006E+03  0.17207358025E+03 0.  0.
         24    2    5    5    0    0 -0.75254029992E+02  0.41800532002E+02  0.55434328236E+03  0.56668614109E+03  0.80163921469E+02 0.  0.
          5    1    5    5  501    0  0.37585106679E+02  0.22575202502E+02  0.52950286425E+02  0.68906478974E+02  0.47000000000E+01 0. -1.
        -11    1    6    6    0    0 -0.50391054379E+02  0.22177216982E+02  0.13019810299E+03  0.14135994247E+03  0.00000000000E+00 0.  1.
         12    1    6    6    0    0 -0.24862975613E+02  0.19623315020E+02  0.42414517937E+03  0.42532619862E+03  0.00000000000E+00 0. -1.
         -5    1    3    3    0  503  0.66635282373E+01  0.39219146354E+02  0.17278379321E+03  0.17736649414E+03  0.47000000000E+01 0.  1.
         11    1    4    4    0    0 -0.17189363195E+01 -0.34411209816E+02  0.12868529147E+02  0.36778868192E+02  0.00000000000E+00 0. -1.
        -12    1    4    4    0    0  0.32724331394E+02 -0.69183671042E+02  0.21226394795E+03  0.22563963704E+03  0.00000000000E+00 0.  1.
</event>
<event>
12    1  0.8226261E-002  0.2436715E+03  0.7818608E-02  0.1117745E+00
         21   -1    0    0  501  502  0.00000000000E+00  0.00000000000E+00  0.79608224826E+03  0.79608224826E+03  0.00000000000E+00 0.  1.
         21   -1    0    0  502  503 -0.00000000000E+00 -0.00000000000E+00 -0.33796210641E+03  0.33796210641E+03  0.00000000000E+00 0. -1.
         -6    2    1    2    0  503 -0.10237733589E+03 -0.13666144790E+03 -0.27192275674E+03  0.36512708056E+03  0.17383419996E+03 0.  0.
        -24    2    3    3    0    0 -0.12529466216E+03 -0.97656311898E+02 -0.26528673668E+03  0.31916262429E+03  0.79070983695E+02 0.  0.
          6    2    1    2  501    0  0.10237733589E+03  0.13666144790E+03  0.73004289860E+03  0.76891727412E+03  0.17062728502E+03 0.  0.
         24    2    5    5    0    0  0.74299887703E+02  0.15514667629E+03  0.47160945570E+03  0.50826428416E+03  0.79537031450E+02 0.  0.
          5    1    5    5  501    0  0.28077448189E+02 -0.18485228382E+02  0.25843344290E+03  0.26065298995E+03  0.47000000000E+01 0. -1.
        -11    1    6    6    0    0 -0.11519463549E+02  0.26633755154E+02  0.13195331617E+03  0.13510637513E+03  0.00000000000E+00 0.  1.
         12    1    6    6    0    0  0.85819351252E+02  0.12851292113E+03  0.33965613953E+03  0.37315790903E+03  0.00000000000E+00 0. -1.
         -5    1    3    3    0  503  0.22917326270E+02 -0.39005136006E+02 -0.66360200615E+01  0.45964456273E+02  0.47000000000E+01 0.  1.
         11    1    4    4    0    0 -0.41282153274E+02  0.28892297528E+01 -0.34948744028E+02  0.54166212131E+02  0.00000000000E+00 0. -1.
        -12    1    4    4    0    0 -0.84012508888E+02 -0.10054554165E+03 -0.23033799266E+03  0.26499641216E+03  0.00000000000E+00 0.  1.
</event>
<event>
12    1  0.8226261E-002  0.1730908E+03  0.7818608E-02  0.1174669E+00
         21   -1    0    0  501  502  0.00000000000E+00  0.00000000000E+00  0.36597372056E+02  0.36597372056E+02  0.00000000000E+00 0. -1.
         21   -1    0    0  502  503 -0.00000000000E+00 -0.00000000000E+00 -0.10714880569E+04  0.10714880569E+04  0.00000000000E+00 0. -1.
         -6    2    1    2    0  503  0.10617353134E+02  0.15523969187E+01 -0.78661527922E+03  0.80542871723E+03  0.17273298156E+03 0.  0.
        -24    2    3    3    0    0  0.65962272841E+02  0.16429553819E+02 -0.62516784165E+03  0.63404681903E+03  0.80991276132E+02 0.  0.
          6    2    1    2  501    0 -0.10617353134E+02 -0.15523969187E+01 -0.24827540560E+03  0.30265671169E+03  0.17275783625E+03 0.  0.
         24    2    5    5    0    0  0.48115137173E+02  0.39574221737E+02 -0.15032298956E+03  0.18117556094E+03  0.79664278334E+02 0.  0.
          5    1    5    5  501    0 -0.58732490307E+02 -0.41126618655E+02 -0.97952416038E+02  0.12148115075E+03  0.47000000000E+01 0. -1.
        -13    1    6    6    0    0  0.27418181138E+02  0.28097760615E+02 -0.15244105101E+03  0.15741510360E+03  0.00000000000E+00 0.  1.
         14    1    6    6    0    0  0.20696956035E+02  0.11476461122E+02  0.21180614495E+01  0.23760457346E+02  0.00000000000E+00 0. -1.
         -5    1    3    3    0  503 -0.55344919707E+02 -0.14877156900E+02 -0.16144743757E+03  0.17138189820E+03  0.47000000000E+01 0.  1.
         11    1    4    4    0    0  0.51191813159E+02 -0.15716765631E+02 -0.18880497150E+03  0.19625222476E+03  0.00000000000E+00 0. -1.
        -12    1    4    4    0    0  0.14770459682E+02  0.32146319450E+02 -0.43636287015E+03  0.43779459427E+03  0.00000000000E+00 0.  1.
</event>
<event>
12    1  0.8226261E-002  0.2618916E+03  0.7818608E-02  0.1106015E+00
         21   -1    0    0  503  502  0.00000000000E+00  0.00000000000E+00  0.11836611585E+03  0.11836611585E+03  0.00000000000E+00 0. -1.
         21   -1    0    0  501  503 -0.00000000000E+00 -0.00000000000E+00 -0.58363423425E+03  0.58363423425E+03  0.00000000000E+00 0. -1.
          6    2    1    2  501    0  0.19510365964E+03 -0.40613201552E+02 -0.20277570791E+03  0.33121773358E+03  0.16991859572E+03 0.  0.
         24    2    3    3    0    0  0.85980467206E+02 -0.78892497975E+02 -0.78856850393E+02  0.16165609608E+03  0.79357567813E+02 0.  0.
         -6    2    1    2    0  502 -0.19510365964E+03  0.40613201552E+02 -0.26249241049E+03  0.37078261652E+03  0.16989000267E+03 0.  0.
        -24    2    5    5    0    0 -0.11593982996E+03  0.76635659062E+02 -0.22523123278E+03  0.27604606213E+03  0.78468157776E+02 0.  0.
          5    1    3    3  501    0  0.10912319243E+03  0.38279296423E+02 -0.12391885752E+03  0.16956163750E+03  0.47000000000E+01 0. -1.
        -11    1    4    4    0    0  0.41226576308E+01 -0.26127650706E+01 -0.44276360594E+02  0.44544572674E+02  0.00000000000E+00 0.  1.
         12    1    4    4    0    0  0.81857809575E+02 -0.76279732905E+02 -0.34580489799E+02  0.11711152341E+03  0.00000000000E+00 0. -1.
         -5    1    5    5    0  502 -0.79163829682E+02 -0.36022457510E+02 -0.37261177701E+02  0.94736554395E+02  0.47000000000E+01 0.  1.
         13    1    6    6    0    0 -0.67426707200E+02  0.85803464238E+02 -0.13947252834E+03  0.17709088480E+03  0.00000000000E+00 0. -1.
        -14    1    6    6    0    0 -0.48513122757E+02 -0.91678051757E+01 -0.85758704446E+02  0.98955177326E+02  0.00000000000E+00 0.  1.
</event>
<event>
12    1  0.8226261E-002  0.1917207E+03  0.7818608E-02  0.1156995E+00
         21   -1    0    0  503  502  0.00000000000E+00  0.00000000000E+00  0.23863501449E+03  0.23863501449E+03  0.00000000000E+00 0. -1.
         21   -1    0    0  501  503 -0.00000000000E+00 -0.00000000000E+00 -0.22708763227E+03  0.22708763227E+03  0.00000000000E+00 0. -1.
          6    2    1    2  501    0 -0.50115704028E+02 -0.65011376260E+02 -0.12655707151E+03  0.22943964004E+03  0.17288086429E+03 0.  0.
         24    2    3    3    0    0  0.20753155104E+02 -0.71425475077E+02 -0.31530264704E+02  0.11063004501E+03  0.75581461552E+02 0.  0.
         -6    2    1    2    0  502  0.50115704028E+02  0.65011376260E+02  0.13810445373E+03  0.23628300672E+03  0.17325921704E+03 0.  0.
        -24    2    5    5    0    0  0.23395149590E+02  0.67719962182E+02  0.16558814982E+03  0.19756908135E+03  0.80503293356E+02 0.  0.
          5    1    3    3  501    0 -0.70868859132E+02  0.64140988176E+01 -0.95026806809E+02  0.11880959503E+03  0.47000000000E+01 0. -1.
        -13    1    4    4    0    0 -0.20016609717E+02 -0.14976118206E+02  0.12798444848E+02  0.28084675031E+02  0.00000000000E+00 0.  1.
         14    1    4    4    0    0  0.40769764821E+02 -0.56449356871E+02 -0.44328709552E+02  0.82545369981E+02  0.00000000000E+00 0. -1.
         -5    1    5    5    0  502  0.26720554438E+02 -0.27085859220E+01 -0.27483696087E+02  0.38713925372E+02  0.47000000000E+01 0.  1.
         11    1    6    6    0    0  0.30996772603E+02  0.55512674710E+02  0.49456977570E+02  0.80550913065E+02  0.00000000000E+00 0. -1.
        -12    1    6    6    0    0 -0.76016230131E+01  0.12207287472E+02  0.11613117225E+03  0.11701816828E+03  0.00000000000E+00 0.  1.
</event>
<event>
12    1  0.8226261E-002  0.2034983E+03  0.7818608E-02  0.1146991E+00
         21   -1    0    0  503  502  0.00000000000E+00  0.00000000000E+00  0.14567844694E+03  0.14567844694E+03  0.00000000000E+00 0. -1.
         21   -1    0    0  501  503 -0.00000000000E+00 -0.00000000000E+00 -0.38824581601E+03  0.38824581601E+03  0.00000000000E+00 0.  1.
          6    2    1    2  501    0  0.60398403923E+02 -0.88039375293E+02 -0.26037860609E+03  0.33046719183E+03  0.17324158730E+03 0.  0.
         24    2    3    3    0    0 -0.92054012292E+01 -0.80771046500E+02 -0.22506263993E+03  0.25193805227E+03  0.78809193142E+02 0.  0.
         -6    2    1    2    0  502 -0.60398403923E+02  0.88039375293E+02  0.17811237019E+02  0.20345707111E+03  0.17227489899E+03 0.  0.
        -24    2    5    5    0    0 -0.43589390974E+02  0.10983734819E+03  0.59147657402E+02  0.15357236214E+03  0.78241593623E+02 0.  0.
          5    1    3    3  501    0  0.69603805153E+02 -0.72683287927E+01 -0.35315966159E+02  0.78529139566E+02  0.47000000000E+01 0. -1.
        -13    1    4    4    0    0  0.31185802375E+02 -0.60256342779E+02 -0.13935899085E+03  0.15499777239E+03  0.00000000000E+00 0.  1.
         14    1    4    4    0    0 -0.40391203604E+02 -0.20514703721E+02 -0.85703649081E+02  0.96940279879E+02  0.00000000000E+00 0. -1.
         -5    1    5    5    0  502 -0.16809012950E+02 -0.21797972900E+02 -0.41336420384E+02  0.49884708970E+02  0.47000000000E+01 0.  1.
         11    1    6    6    0    0  0.13230565216E+01  0.79575246627E+02  0.95874953935E+01  0.80161651818E+02  0.00000000000E+00 0. -1.
        -12    1    6    6    0    0 -0.44912447495E+02  0.30262101567E+02  0.49560162009E+02  0.73410710319E+02  0.00000000000E+00 0.  1.
</event>
<event>
12    1  0.8226261E-002  0.1882088E+03  0.7818608E-02  0.1160333E+00
         21   -1    0    0  501  502  0.00000000000E+00  0.00000000000E+00  0.19891479696E+03  0.19891479696E+03  0.00000000000E+00 0.  1.
         21   -1    0    0  502  503 -0.00000000000E+00 -0.00000000000E+00 -0.18883522370E+03  0.18883522370E+03  0.00000000000E+00 0.  1.
         -6    2    1    2    0  503 -0.71570092625E+02 -0.20737319607E+02 -0.43378488272E+02  0.19209643755E+03  0.17165964433E+03 0.  0.
        -24    2    3    3    0    0 -0.10254336935E+03  0.18139172127E+02 -0.53265695565E+02  0.14119877210E+03  0.79092899533E+02 0.  0.
          6    2    1    2  501    0  0.71570092625E+02  0.20737319607E+02  0.53458061531E+02  0.19565358311E+03  0.17283010634E+03 0.  0.
         24    2    5    5    0    0  0.22591100613E+02  0.73935899029E+02  0.51848984270E+02  0.12317110495E+03  0.80659338776E+02 0.  0.
          5    1    5    5  501    0  0.48978992011E+02 -0.53198579421E+02  0.16090772616E+01  0.72482478162E+02  0.47000000000E+01 0. -1.
        -11    1    6    6    0    0 -0.15462753170E+02 -0.10535498596E+02  0.50786290168E+01  0.19387778082E+02  0.00000000000E+00 0.  1.
         12    1    6    6    0    0  0.38053853783E+02  0.84471397625E+02  0.46770355253E+02  0.10378332686E+03  0.00000000000E+00 0. -1.
         -5    1    3    3    0  503  0.30973276722E+02 -0.38876491734E+02  0.98872072924E+01  0.50897665452E+02  0.47000000000E+01 0.  1.
         11    1    4    4    0    0 -0.40165857451E+02  0.17254624187E+02  0.17297783645E+02  0.47013099021E+02  0.00000000000E+00 0. -1.
        -12    1    4    4    0    0 -0.62377511896E+02  0.88454794013E+00 -0.70563479210E+02  0.94185673080E+02  0.00000000000E+00 0.  1.
</event>
<event>
12    1  0.8226261E-002  0.2450242E+03  0.7818608E-02  0.1116494E+00
         21   -1    0    0  501  502  0.00000000000E+00  0.00000000000E+00  0.94745117978E+02  0.94745117978E+02  0.00000000000E+00 0. -1.
         21   -1    0    0  502  503 -0.00000000000E+00 -0.00000000000E+00 -0.79379270024E+03  0.79379270024E+03  0.00000000000E+00 0. -1.
         -6    2    1    2    0  503 -0.17184709595E+03 -0.31279712510E+02 -0.54910544763E+03  0.60129331606E+03  0.17183426468E+03 0.  0.
        -24    2    3    3    0    0 -0.15660768739E+03 -0.43740557331E+02 -0.29706420124E+03  0.34844080547E+03  0.82003970365E+02 0.  0.
          6    2    1    2  501    0  0.17184709595E+03  0.31279712510E+02 -0.14994213462E+03  0.28724450215E+03  0.17180487618E+03 0.  0.
         24    2    5    5    0    0  0.13024563676E+03 -0.39750940806E+01 -0.16974422791E+03  0.22903972836E+03  0.81647822913E+02 0.  0.
          5    1    5    5  501    0  0.41601459185E+02  0.35254806590E+02  0.19802093290E+02  0.58204773797E+02  0.47000000000E+01 0. -1.
        -13    1    6    6    0    0  0.11137599041E+03 -0.35391069887E+02 -0.13476920951E+03  0.17838127396E+03  0.00000000000E+00 0.  1.
         14    1    6    6    0    0  0.18869646350E+02  0.31415975807E+02 -0.34975018404E+02  0.50658454394E+02  0.00000000000E+00 0. -1.
         -5    1    3    3    0  503 -0.15239408557E+02  0.12460844821E+02 -0.25204124640E+03  0.25285251059E+03  0.47000000000E+01 0.  1.
         13    1    4    4    0    0 -0.63070970423E+02 -0.80144965616E+01 -0.46966249273E+02  0.79044342214E+02  0.00000000000E+00 0. -1.
        -14    1    4    4    0    0 -0.93536716967E+02 -0.35726060769E+02 -0.25009795196E+03  0.26939646326E+03  0.00000000000E+00 0.  1.
</event>
<event>
12    1  0.8226261E-002  0.1935986E+03  0.7818608E-02  0.1155452E+00
         21   -1    0    0  503  502  0.00000000000E+00  0.00000000000E+00  0.44870445111E+03  0.44870445111E+03  0.00000000000E+00 0.  1.
         21   -1    0    0  501  503 -0.00000000000E+00 -0.00000000000E+00 -0.87728660526E+02  0.87728660526E+02  0.00000000000E+00 0.  1.
          6    2    1    2  501    0 -0.18071438834E+02  0.84637331965E+02  0.24139412645E+03  0.30888047551E+03  0.17218004822E+03 0.  0.
         24    2    3    3    0    0 -0.44423467691E+02 -0.15738690215E+02  0.76342323639E+02  0.11385749516E+03  0.70101554726E+02 0.  0.
         -6    2    1    2    0  502  0.18071438834E+02 -0.84637331965E+02  0.11958166413E+03  0.22755263612E+03  0.17317728761E+03 0.  0.
        -24    2    5    5    0    0 -0.12413820779E+02 -0.84643168931E+02  0.81464892457E+01  0.11192720946E+03  0.71713080661E+02 0.  0.
          5    1    3    3  501    0  0.26352028857E+02  0.10037602218E+03  0.16505180281E+03  0.19502298035E+03  0.47000000000E+01 0. -1.
        -11    1    4    4    0    0 -0.63140507040E+01  0.23379147019E+02  0.62671312023E+01  0.25014569458E+02  0.00000000000E+00 0.  1.
         12    1    4    4    0    0 -0.38109416987E+02 -0.39117837234E+02  0.70075192437E+02  0.88842925706E+02  0.00000000000E+00 0. -1.
         -5    1    5    5    0  502  0.30485259613E+02  0.58369656422E-02  0.11143517489E+03  0.11562542666E+03  0.47000000000E+01 0.  1.
         13    1    6    6    0    0 -0.35876429979E+02 -0.20025728576E+02 -0.66117604361E+01  0.41615663026E+02  0.00000000000E+00 0. -1.
        -14    1    6    6    0    0  0.23462609200E+02 -0.64617440355E+02  0.14758249682E+02  0.70311546436E+02  0.00000000000E+00 0.  1.
</event>
<event>
12    1  0.8226261E-002  0.2423050E+03  0.7818608E-02  0.1118277E+00
         21   -1    0    0  501  502  0.00000000000E+00  0.00000000000E+00  0.10043902851E+03  0.10043902851E+03  0.00000000000E+00 0. -1.
         21   -1    0    0  502  503 -0.00000000000E+00 -0.00000000000E+00 -0.66533760019E+03  0.66533760019E+03  0.00000000000E+00 0. -1.
         -6    2    1    2    0  503 -0.17042371671E+03  0.12293816943E+02 -0.14893884256E+03  0.28441954036E+03  0.17180312850E+03 0.  0.
        -24    2    3    3    0    0 -0.12117676074E+03  0.73571501995E+02 -0.81240444787E+02  0.18056685422E+03  0.76862251619E+02 0.  0.
          6    2    1    2  501    0  0.17042371671E+03 -0.12293816943E+02 -0.41595972912E+03  0.48135708834E+03  0.17171711942E+03 0.  0.
         24    2    5    5    0    0  0.18618224214E+03 -0.37615726804E+02 -0.38888592519E+03  0.44080328332E+03  0.83645093022E+02 0.  0.
          5    1    5    5  501    0 -0.15758525430E+02  0.25321909861E+02 -0.27073803929E+02  0.40553805024E+02  0.47000000000E+01 0. -1.
        -13    1    6    6    0    0  0.22076433847E+02 -0.36092214739E+02 -0.99496804004E+02  0.10811859647E+03  0.00000000000E+00 0.  1.
         14    1    6    6    0    0  0.16410580829E+03 -0.15235120644E+01 -0.28938912119E+03  0.33268468685E+03  0.00000000000E+00 0. -1.
         -5    1    3    3    0  503 -0.49246955968E+02 -0.61277685053E+02 -0.67698397776E+02  0.10385268614E+03  0.47000000000E+01 0.  1.
         11    1    4    4    0    0 -0.66878985634E+02 -0.21411842137E+01 -0.23318757236E+02  0.70860058060E+02  0.00000000000E+00 0. -1.
        -12    1    4    4    0    0 -0.54297775104E+02  0.75712686209E+02 -0.57921687551E+02  0.10970679616E+03  0.00000000000E+00 0.  1.
</event>
<event>
12    1  0.8226261E-002  0.2216822E+03  0.7818608E-02  0.1133119E+00
         21   -1    0    0  503  502  0.00000000000E+00  0.00000000000E+00  0.57095653360E+03  0.57095653360E+03  0.00000000000E+00 0.  1.
         21   -1    0    0  501  503 -0.00000000000E+00 -0.00000000000E+00 -0.16284305005E+03  0.16284305005E+03  0.00000000000E+00 0.  1.
          6    2    1    2  501    0 -0.79326640907E+02 -0.11316030361E+03 -0.48880995620E+02  0.22700741631E+03  0.17333506586E+03 0.  0.
         24    2    3    3    0    0 -0.10383778467E+03 -0.69129759813E+02 -0.78158303915E+02  0.16853746047E+03  0.82066716116E+02 0.  0.
         -6    2    1    2    0  502  0.79326640907E+02  0.11316030361E+03  0.45699447917E+03  0.50679216735E+03  0.16998934268E+03 0.  0.
        -24    2    5    5    0    0 -0.39745417703E+01  0.96193352073E+02  0.23729007688E+03  0.27116729840E+03  0.89197338372E+02 0.  0.
          5    1    3    3  501    0  0.24511143759E+02 -0.44030543793E+02  0.29277308295E+02  0.58469955841E+02  0.47000000000E+01 0. -1.
        -11    1    4    4    0    0 -0.53373648291E+02 -0.27207344600E+02  0.77888907466E+01  0.60412355948E+02  0.00000000000E+00 0.  1.
         12    1    4    4    0    0 -0.50464136374E+02 -0.41922415213E+02 -0.85947194662E+02  0.10812510452E+03  0.00000000000E+00 0. -1.
         -5    1    5    5    0  502  0.83301182677E+02  0.16966951532E+02  0.21970440229E+03  0.23562486895E+03  0.47000000000E+01 0.  1.
         11    1    6    6    0    0 -0.44944734768E+02  0.50925323559E+02  0.14980273301E+03  0.16448184270E+03  0.00000000000E+00 0. -1.
        -12    1    6    6    0    0  0.40970192998E+02  0.45268028515E+02  0.87487343868E+02  0.10668545570E+03  0.00000000000E+00 0.  1.
</event>
<event>
12    1  0.8226261E-002  0.2275459E+03  0.7818608E-02  0.1130050E+00
         21   -1    0    0  501  502  0.00000000000E+00  0.00000000000E+00  0.14781476427E+03  0.14781476427E+03  0.00000000000E+00 0.  1.
         21   -1    0    0  502  503 -0.00000000000E+00 -0.00000000000E+00 -0.42779757872E+03  0.42779757872E+03  0.00000000000E+00 0.  1.
         -6    2    1    2    0  503  0.12290543238E+03 -0.84543385460E+02 -0.27531551013E+03  0.35717747770E+03  0.17182488504E+03 0.  0.
        -24    2    3    3    0    0  0.11379526119E+02 -0.65733746284E+01 -0.32092438937E+02  0.78435836173E+02  0.70353058856E+02 0.  0.
          6    2    1    2  501    0 -0.12290543238E+03  0.84543385460E+02 -0.46673043191E+01  0.21843486529E+03  0.15949506987E+03 0.  0.
         24    2    5    5    0    0 -0.81294095027E+02  0.76625368111E+02 -0.52502206868E+02  0.15436875649E+03  0.92698728847E+02 0.  0.
          5    1    5    5  501    0 -0.41611337358E+02  0.79180173489E+01  0.47834902549E+02  0.64066108804E+02  0.47000000000E+01 0. -1.
        -11    1    6    6    0    0 -0.25265311276E+02  0.29604347913E+02  0.26206012525E+02  0.46920235098E+02  0.00000000000E+00 0.  1.
         12    1    6    6    0    0 -0.56028783751E+02  0.47021020198E+02 -0.78708219393E+02  0.10744852139E+03  0.00000000000E+00 0. -1.
         -5    1    3    3    0  503  0.11152590627E+03 -0.77970010832E+02 -0.24322307120E+03  0.27874164152E+03  0.47000000000E+01 0.  1.
         11    1    4    4    0    0  0.26980293808E+02  0.24468073084E+02 -0.20590499821E+02  0.41840070953E+02  0.00000000000E+00 0. -1.
        -12    1    4    4    0    0 -0.15600767689E+02 -0.31041447713E+02 -0.11501939116E+02  0.36595765220E+02  0.00000000000E+00 0.  1.
</event>
<event>
12    1  0.8226261E-002  0.1760669E+03  0.7818608E-02  0.1171879E+00
         21   -1    0    0  503  502  0.00000000000E+00  0.00000000000E+00  0.35881382781E+03  0.35881382781E+03  0.00000000000E+00 0.  1.
         21   -1    0    0  501  503 -0.00000000000E+00 -0.00000000000E+00 -0.97679167336E+02  0.97679167336E+02  0.00000000000E+00 0.  1.
          6    2    1    2  501    0  0.15759385722E+02 -0.30963502880E+02  0.51837389648E+02  0.18353927301E+03  0.17260490440E+03 0.  0.
         24    2    3    3    0    0  0.58415569218E+02 -0.67141840593E+02  0.40198317535E+02  0.12621580391E+03  0.79963234923E+02 0.  0.
         -6    2    1    2    0  502 -0.15759385722E+02  0.30963502880E+02  0.20929727083E+03  0.27295372213E+03  0.17173028301E+03 0.  0.
        -24    2    5    5    0    0 -0.18736045787E+02 -0.23036973853E+02  0.20090942461E+03  0.21802323919E+03  0.79295613711E+02 0.  0.
          5    1    3    3  501    0 -0.42656183497E+02  0.36178337713E+02  0.11639072113E+02  0.57323469102E+02  0.47000000000E+01 0. -1.
        -11    1    4    4    0    0  0.11354704792E+02 -0.70825735172E+02  0.17483464322E+02  0.73830113154E+02  0.00000000000E+00 0.  1.
         12    1    4    4    0    0  0.47060864426E+02  0.36838945792E+01  0.22714853213E+02  0.52385690759E+02  0.00000000000E+00 0. -1.
         -5    1    5    5    0  502  0.29766600650E+01  0.54000476733E+02  0.83878462231E+01  0.54930482947E+02  0.47000000000E+01 0.  1.
         13    1    6    6    0    0 -0.34156904574E+02  0.71498093724E+01  0.37869286347E+02  0.51496570299E+02  0.00000000000E+00 0. -1.
        -14    1    6    6    0    0  0.15420858787E+02 -0.30186783226E+02  0.16304013826E+03  0.16652666889E+03  0.00000000000E+00 0.  1.
</event>
<event>
12    1  0.8226261E-002  0.1890287E+03  0.7818608E-02  0.1160469E+00
         21   -1    0    0  501  502  0.00000000000E+00  0.00000000000E+00  0.37232265018E+03  0.37232265018E+03  0.00000000000E+00 0. -1.
         21   -1    0    0  502  503 -0.00000000000E+00 -0.00000000000E+00 -0.13679294508E+03  0.13679294508E+03  0.00000000000E+00 0. -1.
         -6    2    1    2    0  503  0.17902336079E+02 -0.77293843066E+02 -0.24380438446E+02  0.19059450993E+03  0.17157222859E+03 0.  0.
        -24    2    3    3    0    0 -0.50461229197E+02 -0.25060248927E+02  0.89051561815E+01  0.98225975119E+02  0.79966797192E+02 0.  0.
          6    2    1    2  501    0 -0.17902336079E+02  0.77293843066E+02  0.25991014355E+03  0.31852108533E+03  0.16615525050E+03 0.  0.
         24    2    5    5    0    0  0.47576287745E+02  0.57470307277E+02  0.19775601184E+03  0.22597029475E+03  0.79929935040E+02 0.  0.
          5    1    5    5  501    0 -0.65478623824E+02  0.19823535789E+02  0.62154131711E+02  0.92550790584E+02  0.47000000000E+01 0. -1.
        -13    1    6    6    0    0  0.10477953691E+02  0.42775416030E+02  0.29403753975E+02  0.52953795689E+02  0.00000000000E+00 0.  1.
         14    1    6    6    0    0  0.37098334054E+02  0.14694891247E+02  0.16835225786E+03  0.17301649906E+03  0.00000000000E+00 0. -1.
         -5    1    3    3    0  503  0.68363565276E+02 -0.52233594139E+02 -0.33285594627E+02  0.92368534813E+02  0.47000000000E+01 0.  1.
         13    1    4    4    0    0 -0.17300253821E+02 -0.47608168755E+02 -0.13322830259E+02  0.52376849090E+02  0.00000000000E+00 0. -1.
        -14    1    4    4    0    0 -0.33160975376E+02  0.22547919828E+02  0.22227986440E+02  0.45849126029E+02  0.00000000000E+00 0.  1.
</event>
<event>
12    1  0.8226261E-002  0.2067647E+03  0.7818608E-02  0.1144250E+00
         21   -1    0    0  501  502  0.00000000000E+00  0.00000000000E+00  0.12998769073E+03  0.12998769073E+03  0.00000000000E+00 0. -1.
         21   -1    0    0  502  503 -0.00000000000E+00 -0.00000000000E+00 -0.42038033020E+03  0.42038033020E+03  0.00000000000E+00 0.  1.
         -6    2    1    2    0  503 -0.86507849178E+02 -0.72602011327E+02 -0.16420904375E+02  0.20741573808E+03  0.17319636914E+03 0.  0.
        -24    2    3    3    0    0 -0.90870445636E+02 -0.10015191465E+03 -0.49056663178E+02  0.16422763586E+03  0.79223205442E+02 0.  0.
          6    2    1    2  501    0  0.86507849178E+02  0.72602011327E+02 -0.27397173510E+03  0.34295228286E+03  0.17262994140E+03 0.  0.
         24    2    5    5    0    0  0.11733540206E+03  0.84793715308E+02 -0.25393645625E+03  0.30393333796E+03  0.83271720135E+02 0.  0.
          5    1    5    5  501    0 -0.30827552885E+02 -0.12191703981E+02 -0.20035278843E+02  0.39018944901E+02  0.47000000000E+01 0. -1.
        -13    1    6    6    0    0  0.88838547418E+02  0.25959586399E+02 -0.19528191798E+03  0.21610463929E+03  0.00000000000E+00 0.  1.
         14    1    6    6    0    0  0.28496854645E+02  0.58834128910E+02 -0.58654538272E+02  0.87828698665E+02  0.00000000000E+00 0. -1.
         -5    1    3    3    0  503  0.43625964578E+01  0.27549903318E+02  0.32635758803E+02  0.43188102220E+02  0.47000000000E+01 0.  1.
         11    1    4    4    0    0 -0.55269716000E+02 -0.26517438191E+02  0.11614345567E+02  0.62392379806E+02  0.00000000000E+00 0. -1.
        -12    1    4    4    0    0 -0.35600729636E+02 -0.73634476454E+02 -0.60671008745E+02  0.10183525605E+03  0.00000000000E+00 0.  1.
</event>
<event>
12    1  0.8226261E-002  0.1926301E+03  0.7818608E-02  0.1156282E+00
         21   -1    0    0  501  502  0.00000000000E+00  0.00000000000E+00  0.88688399559E+03  0.88688399559E+03  0.00000000000E+00 0.  1.
         21   -1    0    0  502  503 -0.00000000000E+00 -0.00000000000E+00 -0.90785427148E+02  0.90785427148E+02  0.00000000000E+00 0.  1.
         -6    2    1    2    0  503  0.19103603961E+02  0.82427773761E+02  0.38869179650E+02  0.19651252381E+03  0.17305222714E+03 0.  0.
        -24    2    3    3    0    0  0.22150959646E+02  0.11933641624E+03  0.49028751393E+01  0.14604140228E+03  0.81069154063E+02 0.  0.
          6    2    1    2  501    0 -0.19103603961E+02 -0.82427773761E+02  0.75722938879E+03  0.78115689892E+03  0.17219311228E+03 0.  0.
         24    2    5    5    0    0  0.21711514272E+01 -0.48611496719E+02  0.72102849860E+03  0.72703896973E+03  0.79597589127E+02 0.  0.
          5    1    5    5  501    0 -0.21274755388E+02 -0.33816277041E+02  0.36200890184E+02  0.54117929190E+02  0.47000000000E+01 0. -1.
        -13    1    6    6    0    0 -0.27116189379E+02 -0.55335693935E+02  0.41691136028E+03  0.42144087258E+03  0.00000000000E+00 0.  1.
         14    1    6    6    0    0  0.29287340806E+02  0.67241972163E+01  0.30411713833E+03  0.30559809715E+03  0.00000000000E+00 0. -1.
         -5    1    3    3    0  503 -0.30473556848E+01 -0.36908642483E+02  0.33966304511E+02  0.50471121532E+02  0.47000000000E+01 0.  1.
         13    1    4    4    0    0  0.14356789647E+01  0.45702382620E+02  0.41040906999E+02  0.61442045853E+02  0.00000000000E+00 0. -1.
        -14    1    4    4    0    0  0.20715280681E+02  0.73634033623E+02 -0.36138031860E+02  0.84599356428E+02  0.00000000000E+00 0.  1.
</event>
<event>
12    1  0.8226261E-002  0.1786436E+03  0.7818608E-02  0.1169761E+00
         21   -1    0    0  503  502  0.00000000000E+00  0.00000000000E+00  0.85174512243E+02  0.85174512243E+02  0.00000000000E+00 0.  1.
         21   -1    0    0  501  503 -0.00000000000E+00 -0.00000000000E+00 -0.52242177441E+03  0.52242177441E+03  0.00000000000E+00 0.  1.
          6    2    1    2  501    0 -0.33756328723E+02 -0.71416017693E+01 -0.38424441256E+03  0.42374203456E+03  0.17527992202E+03 0.  0.
         24    2    3    3    0    0 -0.35016870827E+01  0.41495355380E+02 -0.33876680209E+03  0.35045356346E+03  0.79502374915E+02 0.  0.
         -6    2    1    2    0  502  0.33756328723E+02  0.71416017693E+01 -0.53002849602E+02  0.18385425209E+03  0.17263427163E+03 0.  0.
        -24    2    5    5    0    0  0.42422117459E+02 -0.30599155837E+02  0.23240765672E+02  0.98211741913E+02  0.79808951082E+02 0.  0.
          5    1    3    3  501    0 -0.30254641640E+02 -0.48636957149E+02 -0.45477610476E+02  0.73288471100E+02  0.47000000000E+01 0. -1.
        -11    1    4    4    0    0 -0.17257238826E+02  0.56971563631E+02 -0.16409308581E+03  0.17455690237E+03  0.00000000000E+00 0.  1.
         12    1    4    4    0    0  0.13755551743E+02 -0.15476208251E+02 -0.17467371627E+03  0.17589666109E+03  0.00000000000E+00 0. -1.
         -5    1    5    5    0  502 -0.86657887367E+01  0.37740757606E+02 -0.76243615274E+02  0.85642510176E+02  0.47000000000E+01 0.  1.
         11    1    6    6    0    0  0.54711397145E+01 -0.21739043169E+02 -0.27080746121E+02  0.35155172850E+02  0.00000000000E+00 0. -1.
        -12    1    6    6    0    0  0.36950977745E+02 -0.88601126679E+01  0.50321511793E+02  0.63056569062E+02  0.00000000000E+00 0.  1.
</event>
<event>
12    1  0.8226261E-002  0.1840271E+03  0.7818608E-02  0.1164239E+00
         21   -1    0    0  501  502  0.00000000000E+00  0.00000000000E+00  0.10298629660E+03  0.10298629660E+03  0.00000000000E+00 0. -1.
         21   -1    0    0  502  503 -0.00000000000E+00 -0.00000000000E+00 -0.36427377687E+03  0.36427377687E+03  0.00000000000E+00 0. -1.
         -6    2    1    2    0  503  0.40830063798E+02  0.49741804135E+02 -0.20525780199E+03  0.27489249455E+03  0.17115424942E+03 0.  0.
        -24    2    3    3    0    0 -0.21460638496E+02  0.31579641793E+02 -0.18652816631E+03  0.20719548586E+03  0.81727472455E+02 0.  0.
          6    2    1    2  501    0 -0.40830063798E+02 -0.49741804135E+02 -0.56029678270E+02  0.19236757891E+03  0.17240829267E+03 0.  0.
         24    2    5    5    0    0 -0.56358171735E+02 -0.72249742030E+02  0.97267076087E+01  0.12099726514E+03  0.78418496453E+02 0.  0.
          5    1    5    5  501    0  0.15528107937E+02  0.22507937894E+02 -0.65756385879E+02  0.71370313774E+02  0.47000000000E+01 0. -1.
        -11    1    6    6    0    0 -0.30404405206E+02 -0.83761104616E+02 -0.45361509564E+01  0.89224027974E+02  0.00000000000E+00 0.  1.
         12    1    6    6    0    0 -0.25953766529E+02  0.11511362586E+02  0.14262858565E+02  0.31773237167E+02  0.00000000000E+00 0. -1.
         -5    1    3    3    0  503  0.62290702294E+02  0.18162162342E+02 -0.18729635686E+02  0.67697008694E+02  0.47000000000E+01 0.  1.
         11    1    4    4    0    0 -0.26059891589E+02 -0.22186873932E+02 -0.52050382974E+02  0.62294604038E+02  0.00000000000E+00 0. -1.
        -12    1    4    4    0    0  0.45992530926E+01  0.53766515725E+02 -0.13447778333E+03  0.14490088182E+03  0.00000000000E+00 0.  1.
</event>
<event>
12    1  0.8226261E-002  0.1802374E+03  0.7818608E-02  0.1168338E+00
         21   -1    0    0  503  502  0.00000000000E+00  0.00000000000E+00  0.48496532855E+02  0.48496532855E+02  0.00000000000E+00 0.  1.
         21   -1    0    0  501  503 -0.00000000000E+00 -0.00000000000E+00 -0.74008055667E+03  0.74008055667E+03  0.00000000000E+00 0.  1.
          6    2    1    2  501    0 -0.22716900952E+02  0.45742686760E+02 -0.21738303419E+03  0.28238429270E+03  0.17284980250E+03 0.  0.
         24    2    3    3    0    0 -0.18398827269E+02 -0.39932741024E+02 -0.10872599336E+03  0.14386582025E+03  0.83324017863E+02 0.  0.
         -6    2    1    2    0  502  0.22716900952E+02 -0.45742686760E+02 -0.47420098962E+03  0.50619279683E+03  0.16957628968E+03 0.  0.
        -24    2    5    5    0    0 -0.43448955908E+02  0.53211489667E+00 -0.31230150658E+03  0.32521542120E+03  0.79653902952E+02 0.  0.
          5    1    3    3  501    0 -0.43180736822E+01  0.85675427784E+02 -0.10865704084E+03  0.13851847245E+03  0.47000000000E+01 0. -1.
        -13    1    4    4    0    0 -0.17603842900E+02  0.23166372990E+02 -0.48950416984E+02  0.56944880764E+02  0.00000000000E+00 0.  1.
         14    1    4    4    0    0 -0.79498436913E+00 -0.63099114014E+02 -0.59775576373E+02  0.86920939481E+02  0.00000000000E+00 0. -1.
         -5    1    5    5    0  502  0.66165856859E+02 -0.46274801656E+02 -0.16189948304E+03  0.18097737563E+03  0.47000000000E+01 0.  1.
         13    1    6    6    0    0 -0.39049229277E+02  0.37011417637E+02 -0.19575036054E+03  0.20300958350E+03  0.00000000000E+00 0. -1.
        -14    1    6    6    0    0 -0.43997266306E+01 -0.36479302740E+02 -0.11655114604E+03  0.12220583769E+03  0.00000000000E+00 0.  1.
</event>
<event>
12    1  0.8226261E-002  0.1899563E+03  0.7818608E-02  0.1158609E+00
         21   -1    0    0  501  502  0.00000000000E+00  0.00000000000E+00  0.10256542490E+03  0.10256542490E+03  0.00000000000E+00 0.  1.
         21   -1    0    0  502  503 -0.00000000000E+00 -0.00000000000E+00 -0.35143638627E+03  0.35143638627E+03  0.00000000000E+00 0.  1.
         -6    2    1    2    0  503 -0.52115105411E+02  0.60320106836E+02 -0.13330219654E+03  0.23206218734E+03  0.17242065911E+03 0.  0.
        -24    2    3    3    0    0 -0.66001334708E+01 -0.32396151776E+02 -0.64778039636E+02  0.10802361527E+03  0.79873866968E+02 0.  0.
          6    2    1    2  501    0  0.52115105411E+02 -0.60320106836E+02 -0.11556876483E+03  0.22193962384E+03  0.17189112172E+03 0.  0.
         24    2    5    5    0    0 -0.28639643573E+01 -0.79764888185E+02 -0.34060167083E+02  0.12160747974E+03  0.85191809857E+02 0.  0.
          5    1    5    5  501    0  0.54979069769E+02  0.19444781349E+02 -0.81508597743E+02  0.10033214410E+03  0.47000000000E+01 0. -1.
        -11    1    6    6    0    0 -0.22119322110E+02 -0.40920297880E+02  0.21408016875E+02  0.51205843179E+02  0.00000000000E+00 0.  1.
         12    1    6    6    0    0  0.19255357752E+02 -0.38844590305E+02 -0.55468183958E+02  0.70401636556E+02  0.00000000000E+00 0. -1.
         -5    1    3    3    0  503 -0.45514971941E+02  0.92716258612E+02 -0.68524156906E+02  0.12403857207E+03  0.47000000000E+01 0.  1.
         11    1    4    4    0    0 -0.33173264640E+02 -0.16558916547E+02 -0.94350500514E+00  0.37088453806E+02  0.00000000000E+00 0. -1.
        -12    1    4    4    0    0  0.26573131169E+02 -0.15837235229E+02 -0.63834534630E+02  0.70935161460E+02  0.00000000000E+00 0.  1.
</event>
<event>
12    1  0.8226261E-002  0.2216999E+03  0.7818608E-02  0.1132801E+00
         21   -1    0    0  501  502  0.00000000000E+00  0.00000000000E+00  0.11599606029E+04  0.11599606029E+04  0.00000000000E+00 0.  1.
         21   -1    0    0  502  503 -0.00000000000E+00 -0.00000000000E+00 -0.63534587627E+02  0.63534587627E+02  0.00000000000E+00 0.  1.
         -6    2    1    2    0  503 -0.11662000380E+03  0.73404292446E+02  0.19441703612E+03  0.29487084789E+03  0.17367330701E+03 0.  0.
        -24    2    3    3    0    0 -0.31798329546E+02  0.91540912196E+01  0.16080912697E+03  0.18318205553E+03  0.81247516924E+02 0.  0.
          6    2    1    2  501    0  0.11662000380E+03 -0.73404292446E+02  0.90200897919E+03  0.92862434268E+03  0.17243710688E+03 0.  0.
         24    2    5    5    0    0  0.11276601509E+03 -0.10415608584E+03  0.58160275093E+03  0.60668837523E+03  0.79021265322E+02 0.  0.
          5    1    5    5  501    0  0.38539887105E+01  0.30751793395E+02  0.32040622826E+03  0.32193596745E+03  0.47000000000E+01 0. -1.
        -13    1    6    6    0    0 -0.69886640785E+01 -0.30635711890E+02  0.12907049687E+03  0.13284043598E+03  0.00000000000E+00 0.  1.
         14    1    6    6    0    0  0.11975467917E+03 -0.73520373951E+02  0.45253225406E+03  0.47384793925E+03  0.00000000000E+00 0. -1.
         -5    1    3    3    0  503 -0.84821674254E+02  0.64250201226E+02  0.33607909158E+02  0.11168879236E+03  0.47000000000E+01 0.  1.
         13    1    4    4    0    0 -0.30524781146E+02  0.41505264863E+02  0.12330711622E+03  0.13363792196E+03  0.00000000000E+00 0. -1.
        -14    1    4    4    0    0 -0.12735483998E+01 -0.32351173644E+02  0.37502010747E+02  0.49544133575E+02  0.00000000000E+00 0.  1.
</event>
<event>
12    1  0.8226261E-002  0.1800363E+03  0.7818608E-02  0.1167828E+00
         21   -1    0    0  501  502  0.00000000000E+00  0.00000000000E+00  0.15708786844E+03  0.15708786844E+03  0.00000000000E+00 0.  1.
         21   -1    0    0  502  503 -0.00000000000E+00 -0.00000000000E+00 -0.24644096548E+03  0.24644096548E+03  0.00000000000E+00 0.  1.
         -6    2    1    2    0  503  0.81010985030E+01 -0.52863542735E+02  0.37027122793E+02  0.18356285860E+03  0.17165119659E+03 0.  0.
        -24    2    3    3    0    0 -0.56155022834E+02 -0.96856332404E+01  0.37660749880E+02  0.10600209223E+03  0.81061170695E+02 0.  0.
          6    2    1    2  501    0 -0.81010985030E+01  0.52863542735E+02 -0.12638021983E+03  0.21996597531E+03  0.17190953546E+03 0.  0.
         24    2    5    5    0    0 -0.46271600191E+02  0.87990752172E+02 -0.77166764300E+02  0.14830732442E+03  0.78466040508E+02 0.  0.
          5    1    5    5  501    0  0.38170501688E+02 -0.35127209437E+02 -0.49213455533E+02  0.71658650891E+02  0.47000000000E+01 0. -1.
        -11    1    6    6    0    0 -0.31968418167E+02  0.12831150534E+02 -0.61082799563E+02  0.70126504166E+02  0.00000000000E+00 0.  1.
         12    1    6    6    0    0 -0.14303182024E+02  0.75159601639E+02 -0.16083964737E+02  0.78180820258E+02  0.00000000000E+00 0. -1.
         -5    1    3    3    0  503  0.64256121337E+02 -0.43177909495E+02 -0.63362708729E+00  0.77560766377E+02  0.47000000000E+01 0.  1.
         11    1    4    4    0    0 -0.27821985403E+02  0.33166892894E+01 -0.24010567736E+02  0.36899466969E+02  0.00000000000E+00 0. -1.
        -12    1    4    4    0    0 -0.28333037431E+02 -0.13002322530E+02  0.61671317616E+02  0.69102625259E+02  0.00000000000E+00 0.  1.
</event>
<event>
12    1  0.8226261E-002  0.2262494E+03  0.7818608E-02  0.1129383E+00
         21   -1    0    0  503  502  0.00000000000E+00  0.00000000000E+00  0.63004069464E+03  0.63004069464E+03  0.00000000000E+00 0.  1.
         21   -1    0    0  501  503 -0.00000000000E+00 -0.00000000000E+00 -0.92483157892E+02  0.92483157892E+02  0.00000000000E+00 0. -1.
          6    2    1    2  501    0  0.14651624596E+03 -0.12823369442E+01  0.39532296741E+03  0.45527963463E+03  0.17184482079E+03 0.  0.
         24    2    3    3    0    0  0.40381498769E+02  0.51766229503E+02  0.14972579954E+03  0.18248155211E+03  0.81063517393E+02 0.  0.
         -6    2    1    2    0  502 -0.14651624596E+03  0.12823369442E+01  0.14223456934E+03  0.26724421790E+03  0.17239531481E+03 0.  0.
        -24    2    5    5    0    0 -0.84896325281E+02 -0.38848161929E+02  0.14921022083E+03  0.19322921079E+03  0.79732503841E+02 0.  0.
          5    1    3    3  501    0  0.10613474719E+03 -0.53048566447E+02  0.24559716787E+03  0.27279808253E+03  0.47000000000E+01 0. -1.
        -13    1    4    4    0    0  0.80821895914E+00 -0.20535046922E+02  0.42774740570E+02  0.47455450696E+02  0.00000000000E+00 0.  1.
         14    1    4    4    0    0  0.39573279810E+02  0.72301276425E+02  0.10695105897E+03  0.13502610141E+03  0.00000000000E+00 0. -1.
         -5    1    5    5    0  502 -0.61619920675E+02  0.40130498873E+02 -0.69756514984E+01  0.74015007111E+02  0.47000000000E+01 0.  1.
         13    1    6    6    0    0 -0.49660489305E+01 -0.13283077568E+01 -0.99597465997E+01  0.11208148634E+02  0.00000000000E+00 0. -1.
        -14    1    6    6    0    0 -0.79930276351E+02 -0.37519854172E+02  0.15916996743E+03  0.18202106215E+03  0.00000000000E+00 0.  1.
</event>
<event>
12    1  0.8226261E-002  0.2054006E+03  0.7818608E-02  0.1145522E+00
         21   -1    0    0  501  502  0.00000000000E+00  0.00000000000E+00  0.58976630073E+03  0.58976630073E+03  0.00000000000E+00 0. -1.
         21   -1    0    0  502  503 -0.00000000000E+00 -0.00000000000E+00 -0.10709852001E+03  0.10709852001E+03  0.00000000000E+00 0. -1.
         -6    2    1    2    0  503 -0.88025772944E+02  0.66028455804E+02  0.39801340820E+02  0.20922133726E+03  0.17343911772E+03 0.  0.
        -24    2    3    3    0    0 -0.10104423824E+03  0.43274311868E+02 -0.26848722473E+02  0.13744702122E+03  0.78027082451E+02 0.  0.
          6    2    1    2  501    0  0.88025772944E+02 -0.66028455804E+02  0.44286643990E+03  0.48764348349E+03  0.17192204546E+03 0.  0.
         24    2    5    5    0    0  0.13165839215E+02 -0.55951482280E+01  0.32855283013E+03  0.33815808045E+03  0.78735507743E+02 0.  0.
          5    1    5    5  501    0  0.74859933728E+02 -0.60433307576E+02  0.11431360977E+03  0.14948540304E+03  0.47000000000E+01 0. -1.
        -11    1    6    6    0    0  0.92299415856E+01  0.25898951366E+02  0.44299020251E+02  0.52137804890E+02  0.00000000000E+00 0.  1.
         12    1    6    6    0    0  0.39358976297E+01 -0.31494099594E+02  0.28425380988E+03  0.28602027556E+03  0.00000000000E+00 0. -1.
         -5    1    3    3    0  503  0.13018465297E+02  0.22754143935E+02  0.66650063293E+02  0.71774316032E+02  0.47000000000E+01 0.  1.
         13    1    4    4    0    0 -0.26598458880E+02  0.10888500201E+02 -0.45807749439E+02  0.54077604977E+02  0.00000000000E+00 0. -1.
        -14    1    4    4    0    0 -0.74445779361E+02  0.32385811668E+02  0.18959026966E+02  0.83369416248E+02  0.00000000000E+00 0.  1.
</event>
<event>
12    1  0.8226261E-002  0.1809053E+03  0.7818608E-02  0.1169122E+00
         21   -1    0    0  501  502  0.00000000000E+00  0.00000000000E+00  0.21295914921E+03  0.21295914921E+03  0.00000000000E+00 0. -1.
         21   -1    0    0  502  503 -0.00000000000E+00 -0.00000000000E+00 -0.53229528701E+03  0.53229528701E+03  0.00000000000E+00 0. -1.
         -6    2    1    2    0  503 -0.12854256444E+02 -0.17789722307E+02 -0.47588085754E+03  0.50602030089E+03  0.17062311745E+03 0.  0.
        -24    2    3    3    0    0 -0.16728965377E+02  0.92315475841E+01 -0.10134477777E+03  0.13046134753E+03  0.79901936552E+02 0.  0.
          6    2    1    2  501    0  0.12854256444E+02  0.17789722307E+02  0.15654471974E+03  0.23923413534E+03  0.17956897311E+03 0.  0.
         24    2    5    5    0    0 -0.42055798501E+02 -0.33606859691E+02  0.45214723199E+02  0.10479760419E+03  0.77717793620E+02 0.  0.
          5    1    5    5  501    0  0.54910054945E+02  0.51396581998E+02  0.11132999654E+03  0.13443653114E+03  0.47000000000E+01 0. -1.
        -11    1    6    6    0    0 -0.56026152148E+02 -0.26607339682E+02  0.57764422029E+02  0.84756172058E+02  0.00000000000E+00 0.  1.
         12    1    6    6    0    0  0.13970353647E+02 -0.69995200088E+01 -0.12549698830E+02  0.20041432137E+02  0.00000000000E+00 0. -1.
         -5    1    3    3    0  503  0.38747089328E+01 -0.27021269891E+02 -0.37453607977E+03  0.37555895336E+03  0.47000000000E+01 0.  1.
         11    1    4    4    0    0 -0.43053670391E+02  0.13640833166E+02 -0.91451488143E+02  0.10199541925E+03  0.00000000000E+00 0. -1.
        -12    1    4    4    0    0  0.26324705014E+02 -0.44092855815E+01 -0.98932896248E+01  0.28465928283E+02  0.00000000000E+00 0.  1.
</event>
<event>
12    1  0.8226261E-002  0.1963371E+03  0.7818608E-02  0.1154025E+00
         21   -1    0    0  501  502  0.00000000000E+00  0.00000000000E+00  0.85596664541E+03  0.85596664541E+03  0.00000000000E+00 0.  1.
         21   -1    0    0  502  503 -0.00000000000E+00 -0.00000000000E+00 -0.50046464998E+02  0.50046464998E+02  0.00000000000E+00 0.  1.
         -6    2    1    2    0  503 -0.66855601357E+02  0.50150558554E+02  0.24813944504E+03  0.31641974338E+03  0.17766125031E+03 0.  0.
        -24    2    3    3    0    0 -0.63006608572E+02  0.31824639502E+01  0.54137622111E+02  0.11672093528E+03  0.81932495416E+02 0.  0.
          6    2    1    2  501    0  0.66855601357E+02 -0.50150558554E+02  0.55778073538E+03  0.58959336703E+03  0.17180290956E+03 0.  0.
         24    2    5    5    0    0 -0.38704377840E+01 -0.83044494661E+02  0.37783292898E+03  0.39341108783E+03  0.71436639226E+02 0.  0.
          5    1    5    5  501    0  0.70726039141E+02  0.32893936107E+02  0.17994780640E+03  0.19618227920E+03  0.47000000000E+01 0. -1.
        -13    1    6    6    0    0  0.24824410748E+02 -0.39717795110E+02  0.95874759168E+02  0.10670390838E+03  0.00000000000E+00 0.  1.
         14    1    6    6    0    0 -0.28694848532E+02 -0.43326699551E+02  0.28195816981E+03  0.28670717945E+03  0.00000000000E+00 0. -1.
         -5    1    3    3    0  503 -0.38489927850E+01  0.46968094604E+02  0.19400182293E+03  0.19969880810E+03  0.47000000000E+01 0.  1.
         13    1    4    4    0    0  0.67410462081E+01 -0.85634071065E+01 -0.14515503157E+02  0.18151404275E+02  0.00000000000E+00 0. -1.
        -14    1    4    4    0    0 -0.69747654780E+02  0.11745871057E+02  0.68653125269E+02  0.98569531009E+02  0.00000000000E+00 0.  1.
</event>
<event>
12    1  0.8226261E-002  0.2217805E+03  0.7818608E-02  0.1132635E+00
         21   -1    0    0  501  502  0.00000000000E+00  0.00000000000E+00  0.54347243949E+03  0.54347243949E+03  0.00000000000E+00 0. -1.
         21   -1    0    0  502  503 -0.00000000000E+00 -0.00000000000E+00 -0.90597812467E+02  0.90597812467E+02  0.00000000000E+00 0. -1.
         -6    2    1    2    0  503 -0.13177068115E+03 -0.45854155482E+02  0.24303548551E+03  0.32875231548E+03  0.17188868994E+03 0.  0.
        -24    2    3    3    0    0 -0.95709327978E+02 -0.85588401004E+01  0.24705333220E+03  0.27650679095E+03  0.78658294424E+02 0.  0.
          6    2    1    2  501    0  0.13177068115E+03  0.45854155482E+02  0.20983914151E+03  0.30531793648E+03  0.17239623267E+03 0.  0.
         24    2    5    5    0    0  0.15319855696E+02 -0.26550149036E+02  0.81730599747E+02  0.11760254943E+03  0.78809011571E+02 0.  0.
          5    1    5    5  501    0  0.11645082545E+03  0.72404304518E+02  0.12810854177E+03  0.18771538705E+03  0.47000000000E+01 0. -1.
        -11    1    6    6    0    0  0.13286532298E+02 -0.70415655062E+01 -0.13600029838E+02  0.20275019036E+02  0.00000000000E+00 0.  1.
         12    1    6    6    0    0  0.20333233978E+01 -0.19508583529E+02  0.95330629585E+02  0.97327530393E+02  0.00000000000E+00 0. -1.
         -5    1    3    3    0  503 -0.36061353171E+02 -0.37295315381E+02 -0.40178466893E+01  0.52245524535E+02  0.47000000000E+01 0.  1.
         11    1    4    4    0    0 -0.34080263980E+02 -0.41975555068E+02  0.10627401085E+03  0.11923748152E+03  0.00000000000E+00 0. -1.
        -12    1    4    4    0    0 -0.61629063998E+02  0.33416714967E+02  0.14077932135E+03  0.15726930943E+03  0.00000000000E+00 0.  1.
</event>
<event>
12    1  0.8226261E-002  0.2765884E+03  0.7818608E-02  0.1097981E+00
         21   -1    0    0  501  502  0.00000000000E+00  0.00000000000E+00  0.20819015049E+04  0.20819015049E+04  0.00000000000E+00 0. -1.
         21   -1    0    0  502  503 -0.00000000000E+00 -0.00000000000E+00 -0.37957609239E+02  0.37957609239E+02  0.00000000000E+00 0.  1.
         -6    2    1    2    0  503  0.63315215936E+02  0.20707505205E+03  0.12346221065E+04  0.12645796723E+04  0.16727554532E+03 0.  0.
        -24    2    3    3    0    0  0.45820531902E+02  0.22651477597E+03  0.10381758655E+04  0.10663445028E+04  0.76635540506E+02 0.  0.
          6    2    1    2  501    0 -0.63315215936E+02 -0.20707505205E+03  0.80932178922E+03  0.85527944187E+03  0.17208216474E+03 0.  0.
         24    2    5    5    0    0 -0.77517446194E+02 -0.20741371577E+03  0.80541210391E+03  0.83981355435E+03  0.86998534460E+02 0.  0.
          5    1    5    5  501    0  0.14202230257E+02  0.33866371708E+00  0.39096853133E+01  0.15465887516E+02  0.47000000000E+01 0. -1.
        -13    1    6    6    0    0 -0.25347274981E+02 -0.44410904930E+02  0.83685989687E+02  0.98072206539E+02  0.00000000000E+00 0.  1.
         14    1    6    6    0    0 -0.52170171212E+02 -0.16300281084E+03  0.72172611422E+03  0.74174134781E+03  0.00000000000E+00 0. -1.
         -5    1    3    3    0  503  0.17494684034E+02 -0.19439723918E+02  0.19644624102E+03  0.19823516955E+03  0.47000000000E+01 0.  1.
         11    1    4    4    0    0  0.83243958269E+00  0.12440330224E+03  0.67662524109E+03  0.68796699880E+03  0.00000000000E+00 0. -1.
        -12    1    4    4    0    0  0.44988092319E+02  0.10211147373E+03  0.36155062437E+03  0.37837750395E+03  0.00000000000E+00 0.  1.
</event>
<event>
12    1  0.8226261E-002  0.1898264E+03  0.7818608E-02  0.1158939E+00
         21   -1    0    0  503  502  0.00000000000E+00  0.00000000000E+00  0.14639760825E+02  0.14639760825E+02  0.00000000000E+00 0.  1.
         21   -1    0    0  501  503 -0.00000000000E+00 -0.00000000000E+00 -0.28525575518E+04  0.28525575518E+04  0.00000000000E+00 0.  1.
          6    2    1    2  501    0 -0.71146871413E+02  0.31425723477E+02 -0.19666758326E+04  0.19758157566E+04  0.17316067670E+03 0.  0.
         24    2    3    3    0    0 -0.48245627634E+02  0.69895583065E+02 -0.81245190264E+03  0.82071430321E+03  0.79251752442E+02 0.  0.
         -6    2    1    2    0  502  0.71146871413E+02 -0.31425723477E+02 -0.87124195835E+03  0.89138155604E+03  0.17160732805E+03 0.  0.
        -24    2    5    5    0    0  0.17422009118E+01 -0.23092991312E+02 -0.20440308995E+03  0.22087233975E+03  0.80421674774E+02 0.  0.
          5    1    3    3  501    0 -0.22901243779E+02 -0.38469859588E+02 -0.11542239299E+04  0.11551014533E+04  0.47000000000E+01 0. -1.
        -13    1    4    4    0    0 -0.26973500756E+02 -0.10045455763E+02 -0.32703306772E+03  0.32829728647E+03  0.00000000000E+00 0.  1.
         14    1    4    4    0    0 -0.21272126878E+02  0.79941038828E+02 -0.48541883492E+03  0.49241701673E+03  0.00000000000E+00 0. -1.
         -5    1    5    5    0  502  0.69404670501E+02 -0.83327321650E+01 -0.66683886841E+03  0.67050921629E+03  0.47000000000E+01 0.  1.
         13    1    6    6    0    0 -0.12783517732E+02  0.27382125566E+02 -0.59305262557E+02  0.66560598653E+02  0.00000000000E+00 0. -1.
        -14    1    6    6    0    0  0.14525718644E+02 -0.50475116878E+02 -0.14509782739E+03  0.15431174109E+03  0.00000000000E+00 0.  1.
</event>
<event>
12    1  0.8226261E-002  0.2000411E+03  0.7818608E-02  0.1151219E+00
         21   -1    0    0  503  502  0.00000000000E+00  0.00000000000E+00  0.38997037091E+03  0.38997037091E+03  0.00000000000E+00 0.  1.
         21   -1    0    0  501  503 -0.00000000000E+00 -0.00000000000E+00 -0.22180434010E+03  0.22180434010E+03  0.00000000000E+00 0.  1.
          6    2    1    2  501    0 -0.80959799823E+02  0.61986366610E+02 -0.14280498306E+03  0.24578382027E+03  0.17210352782E+03 0.  0.
         24    2    3    3    0    0 -0.10593257568E+03  0.33888348592E+01 -0.11498513284E+03  0.17611787215E+03  0.81010674125E+02 0.  0.
         -6    2    1    2    0  502  0.80959799823E+02 -0.61986366610E+02  0.31097101387E+03  0.36599089074E+03  0.16385835897E+03 0.  0.
        -24    2    5    5    0    0  0.73644187222E+02  0.14502897607E+02  0.23331319993E+03  0.25664304305E+03  0.76136731840E+02 0.  0.
          5    1    3    3  501    0  0.24972775862E+02  0.58597531751E+02 -0.27819850212E+02  0.69665948120E+02  0.47000000000E+01 0. -1.
        -13    1    4    4    0    0 -0.34715618312E+02  0.40095301938E+02 -0.40613579056E+02  0.66800226018E+02  0.00000000000E+00 0.  1.
         14    1    4    4    0    0 -0.71216957373E+02 -0.36706467079E+02 -0.74371553787E+02  0.10931764613E+03  0.00000000000E+00 0. -1.
         -5    1    5    5    0  502  0.73156126003E+01 -0.76489264218E+02  0.77657813943E+02  0.10934784769E+03  0.47000000000E+01 0.  1.
         13    1    6    6    0    0  0.14406381753E+02 -0.59834348183E+01  0.15751542287E+03  0.15828598728E+03  0.00000000000E+00 0. -1.
        -14    1    6    6    0    0  0.59237805469E+02  0.20486332426E+02  0.75797777060E+02  0.98357055773E+02  0.00000000000E+00 0.  1.
</event>
<event>
12    1  0.8226261E-002  0.2096192E+03  0.7818608E-02  0.1142015E+00
         21   -1    0    0  503  502  0.00000000000E+00  0.00000000000E+00  0.10776421854E+03  0.10776421854E+03  0.00000000000E+00 0.  1.
         21   -1    0    0  501  503 -0.00000000000E+00 -0.00000000000E+00 -0.85584806199E+03  0.85584806199E+03  0.00000000000E+00 0. -1.
          6    2    1    2  501    0  0.92823907860E+02 -0.74479032347E+02 -0.72354178476E+03  0.75329470832E+03  0.17255955249E+03 0.  0.
         24    2    3    3    0    0  0.41755999031E+01 -0.34662570265E+02 -0.52377858830E+03  0.53109817860E+03  0.80637065578E+02 0.  0.
         -6    2    1    2    0  502 -0.92823907860E+02  0.74479032347E+02 -0.24542058693E+02  0.21031757221E+03  0.17166177327E+03 0.  0.
        -24    2    5    5    0    0 -0.87775382430E+02  0.11542154389E+03 -0.29895026483E+02  0.16845444852E+03  0.80352585919E+02 0.  0.
          5    1    3    3  501    0  0.88648307956E+02 -0.39816462082E+02 -0.19976319646E+03  0.22219652971E+03  0.47000000000E+01 0. -1.
        -11    1    4    4    0    0 -0.11714909859E+02 -0.58037302020E+02 -0.37733238467E+03  0.38194933704E+03  0.00000000000E+00 0.  1.
         12    1    4    4    0    0  0.15890509762E+02  0.23374731754E+02 -0.14644620362E+03  0.14914884157E+03  0.00000000000E+00 0. -1.
         -5    1    5    5    0  502 -0.50485254297E+01 -0.40942511542E+02  0.53529677899E+01  0.41863123684E+02  0.47000000000E+01 0.  1.
         13    1    6    6    0    0 -0.97468452628E+02  0.87119423296E+02 -0.40270437610E+02  0.13679035536E+03  0.00000000000E+00 0. -1.
        -14    1    6    6    0    0  0.96930701978E+01  0.28302120594E+02  0.10375411128E+02  0.31664093166E+02  0.00000000000E+00 0.  1.
</event>
<event>
12    1  0.8226261E-002  0.2140371E+03  0.7818608E-02  0.1138485E+00
         21   -1    0    0  501  502  0.00000000000E+00  0.00000000000E+00  0.21918449745E+03  0.21918449745E+03  0.00000000000E+00 0. -1.
         21   -1    0    0  502  503 -0.00000000000E+00 -0.00000000000E+00 -0.71690803117E+03  0.71690803117E+03  0.00000000000E+00 0. -1.
         -6    2    1    2    0  503  0.11544939389E+03 -0.52870338626E+02 -0.64303243063E+03  0.67771867928E+03  0.17230225230E+03 0.  0.
        -24    2    3    3    0    0  0.40484947910E+01 -0.43230507313E+02 -0.40041405290E+03  0.41053175243E+03  0.79496156632E+02 0.  0.
          6    2    1    2  501    0 -0.11544939389E+03  0.52870338626E+02  0.14530889691E+03  0.25837384934E+03  0.17180959009E+03 0.  0.
         24    2    5    5    0    0  0.57494843155E+01 -0.86355588219E+00  0.58927100318E+02  0.10006906647E+03  0.80669775090E+02 0.  0.
          5    1    5    5  501    0 -0.12119887821E+03  0.53733894508E+02  0.86381796593E+02  0.15830478287E+03  0.47000000000E+01 0. -1.
        -13    1    6    6    0    0  0.20209073774E+02  0.33850541644E+00  0.75432179885E+02  0.78093117564E+02  0.00000000000E+00 0.  1.
         14    1    6    6    0    0 -0.14459589459E+02 -0.12020612986E+01 -0.16505079567E+02  0.21975948903E+02  0.00000000000E+00 0. -1.
         -5    1    3    3    0  503  0.11140089910E+03 -0.96398313130E+01 -0.24261837774E+03  0.26718692686E+03  0.47000000000E+01 0.  1.
         13    1    4    4    0    0  0.16202838041E+02 -0.64133919890E+02 -0.27915843800E+03  0.28688869819E+03  0.00000000000E+00 0. -1.
        -14    1    4    4    0    0 -0.12154343250E+02  0.20903412577E+02 -0.12125561489E+03  0.12364305424E+03  0.00000000000E+00 0.  1.
</event>
<event>
12    1  0.8226261E-002  0.2865546E+03  0.7818608E-02  0.1092232E+00
         21   -1    0    0  503  502  0.00000000000E+00  0.00000000000E+00  0.15851065627E+04  0.15851065627E+04  0.00000000000E+00 0. -1.
         21   -1    0    0  501  503 -0.00000000000E+00 -0.00000000000E+00 -0.53823343757E+02  0.53823343757E+02  0.00000000000E+00 0.  1.
          6    2    1    2  501    0  0.15219868994E+03  0.17133019259E+03  0.60384970950E+03  0.66839212669E+03  0.17203222737E+03 0.  0.
         24    2    3    3    0    0  0.17628398932E+03  0.11720647038E+03  0.49478133411E+03  0.54418472167E+03  0.80715804702E+02 0.  0.
         -6    2    1    2    0  502 -0.15219868994E+03 -0.17133019259E+03  0.92743350947E+03  0.97053777979E+03  0.17114961699E+03 0.  0.
        -24    2    5    5    0    0 -0.25129866857E+02 -0.79195026017E+02  0.24826246392E+03  0.27345042957E+03  0.78977997485E+02 0.  0.
          5    1    3    3  501    0 -0.24085299383E+02  0.54123722212E+02  0.10906837538E+03  0.12420740502E+03  0.47000000000E+01 0. -1.
        -11    1    4    4    0    0  0.97019770519E+02  0.40378703820E+02  0.32592649815E+03  0.34244905868E+03  0.00000000000E+00 0.  1.
         12    1    4    4    0    0  0.79264218802E+02  0.76827766558E+02  0.16885483597E+03  0.20173566300E+03  0.00000000000E+00 0. -1.
         -5    1    5    5    0  502 -0.12706882308E+03 -0.92135166574E+02  0.67917104556E+03  0.69708735022E+03  0.47000000000E+01 0.  1.
         11    1    6    6    0    0 -0.51161854108E+02 -0.59123936749E+02  0.20279356786E+03  0.21734398169E+03  0.00000000000E+00 0. -1.
        -12    1    6    6    0    0  0.26031987251E+02 -0.20071089268E+02  0.45468896059E+02  0.56106447878E+02  0.00000000000E+00 0.  1.
</event>
<event>
12    1  0.8226261E-002  0.2100986E+03  0.7818608E-02  0.1141545E+00
         21   -1    0    0  501  502  0.00000000000E+00  0.00000000000E+00  0.44010425036E+02  0.44010425036E+02  0.00000000000E+00 0.  1.
         21   -1    0    0  502  503 -0.00000000000E+00 -0.00000000000E+00 -0.11218988901E+04  0.11218988901E+04  0.00000000000E+00 0.  1.
         -6    2    1    2    0  503 -0.11226941298E+03  0.44670844929E+02 -0.73015586229E+03  0.75978221060E+03  0.17187646387E+03 0.  0.
        -24    2    3    3    0    0 -0.10655033675E+03  0.26580192412E+02 -0.29617957627E+03  0.32536595127E+03  0.77981920703E+02 0.  0.
          6    2    1    2  501    0  0.11226941298E+03 -0.44670844929E+02 -0.34773260280E+03  0.40612710457E+03  0.17152654761E+03 0.  0.
         24    2    5    5    0    0  0.78139778205E+02  0.20468628904E+01 -0.32533724006E+03  0.34390959525E+03  0.79495127814E+02 0.  0.
          5    1    5    5  501    0  0.34129634772E+02 -0.46717707819E+02 -0.22395362742E+02  0.62217509319E+02  0.47000000000E+01 0. -1.
        -11    1    6    6    0    0  0.41333884071E+02  0.10284536731E+02 -0.48640641222E+02  0.64654262402E+02  0.00000000000E+00 0.  1.
         12    1    6    6    0    0  0.36805894134E+02 -0.82376738408E+01 -0.27669659884E+03  0.27925533284E+03  0.00000000000E+00 0. -1.
         -5    1    3    3    0  503 -0.57190762230E+01  0.18090652517E+02 -0.43397628602E+03  0.43441625933E+03  0.47000000000E+01 0.  1.
         11    1    4    4    0    0 -0.44812854137E+02  0.36023710772E+02 -0.69298257254E+02  0.90045255800E+02  0.00000000000E+00 0. -1.
        -12    1    4    4    0    0 -0.61737482617E+02 -0.94435183599E+01 -0.22688131902E+03  0.23532069547E+03  0.00000000000E+00 0.  1.
</event>
<event>
12    1  0.8226261E-002  0.1804594E+03  0.7818608E-02  0.1167502E+00
         21   -1    0    0  501  502  0.00000000000E+00  0.00000000000E+00  0.98149248632E+02  0.98149248632E+02  0.00000000000E+00 0.  1.
         21   -1    0    0  502  503 -0.00000000000E+00 -0.00000000000E+00 -0.37403309313E+03  0.37403309313E+03  0.00000000000E+00 0.  1.
         -6    2    1    2    0  503  0.48171609141E+02 -0.19224636516E+02 -0.57790200818E+02  0.18948696625E+03  0.17284534270E+03 0.  0.
        -24    2    3    3    0    0  0.34394360933E+02 -0.12468072248E+02 -0.10635666499E+03  0.13833762441E+03  0.80542741766E+02 0.  0.
          6    2    1    2  501    0 -0.48171609141E+02  0.19224636516E+02 -0.21809364368E+03  0.28269537551E+03  0.17222586143E+03 0.  0.
         24    2    5    5    0    0  0.11996548632E+02  0.64452650835E+02 -0.13082021529E+03  0.16735014677E+03  0.81203950137E+02 0.  0.
          5    1    5    5  501    0 -0.60168157773E+02 -0.45228014319E+02 -0.87273428396E+02  0.11534522874E+03  0.47000000000E+01 0. -1.
        -13    1    6    6    0    0 -0.34027645289E+02  0.16470675884E+02 -0.44410446808E+02  0.58321964933E+02  0.00000000000E+00 0.  1.
         14    1    6    6    0    0  0.46024193921E+02  0.47981974951E+02 -0.86409768479E+02  0.10902818184E+03  0.00000000000E+00 0. -1.
         -5    1    3    3    0  503  0.13777248208E+02 -0.67565642680E+01  0.48566464169E+02  0.51149341841E+02  0.47000000000E+01 0.  1.
         11    1    4    4    0    0 -0.18257611328E+02 -0.25593632553E+02 -0.23321699622E+02  0.39144298077E+02  0.00000000000E+00 0. -1.
        -12    1    4    4    0    0  0.52651972261E+02  0.13125560304E+02 -0.83034965365E+02  0.99193326336E+02  0.00000000000E+00 0.  1.
</event>
<event>
12    1  0.8226261E-002  0.2206466E+03  0.7818608E-02  0.1133712E+00
         21   -1    0    0  503  502  0.00000000000E+00  0.00000000000E+00  0.10990548036E+04  0.10990548036E+04  0.00000000000E+00 0.  1.
         21   -1    0    0  501  503 -0.00000000000E+00 -0.00000000000E+00 -0.48025089313E+02  0.48025089313E+02  0.00000000000E+00 0. -1.
          6    2    1    2  501    0  0.11882019789E+03  0.69464549123E+02  0.36054899931E+03  0.42270616087E+03  0.17245681931E+03 0.  0.
         24    2    3    3    0    0  0.14662758217E+03  0.29504961418E+02  0.25431714086E+03  0.30575609880E+03  0.80245829879E+02 0.  0.
         -6    2    1    2    0  502 -0.11882019789E+03 -0.69464549123E+02  0.69048071501E+03  0.72437373207E+03  0.17032358294E+03 0.  0.
        -24    2    5    5    0    0 -0.12082678055E+03 -0.10755918449E+03  0.56383548018E+03  0.59202444751E+03  0.80090003603E+02 0.  0.
          5    1    3    3  501    0 -0.27807384289E+02  0.39959587704E+02  0.10623185844E+03  0.11695006207E+03  0.47000000000E+01 0. -1.
        -13    1    4    4    0    0  0.66519266171E+02 -0.12874931657E+02  0.16563756248E+03  0.17895915383E+03  0.00000000000E+00 0.  1.
         14    1    4    4    0    0  0.80108316004E+02  0.42379893075E+02  0.88679578386E+02  0.12679694497E+03  0.00000000000E+00 0. -1.
         -5    1    5    5    0  502  0.20065826625E+01  0.38094635370E+02  0.12664523482E+03  0.13234928455E+03  0.47000000000E+01 0.  1.
         13    1    6    6    0    0 -0.68929490418E+02 -0.98728137416E+02  0.30536240723E+03  0.32824490783E+03  0.00000000000E+00 0. -1.
        -14    1    6    6    0    0 -0.51897290130E+02 -0.88310470770E+01  0.25847307295E+03  0.26377953969E+03  0.00000000000E+00 0.  1.
</event>
<event>
12    1  0.8226261E-002  0.5758278E+03  0.7818608E-02  0.9958039E-01
         21   -1    0    0  503  502  0.00000000000E+00  0.00000000000E+00  0.98130771401E+03  0.98130771401E+03  0.00000000000E+00 0.  1.
         21   -1    0    0  501  503 -0.00000000000E+00 -0.00000000000E+00 -0.70562023992E+03  0.70562023992E+03  0.00000000000E+00 0. -1.
          6    2    1    2  501    0  0.31548501755E+03 -0.44715978470E+03 -0.47197020741E+03  0.74453577981E+03  0.17915072253E+03 0.  0.
         24    2    3    3    0    0  0.99578926216E+02 -0.19580067314E+03 -0.12582602430E+03  0.26533360042E+03  0.79472416395E+02 0.  0.
         -6    2    1    2    0  502 -0.31548501755E+03  0.44715978470E+03  0.74765768150E+03  0.94239217412E+03  0.17212882322E+03 0.  0.
        -24    2    5    5    0    0 -0.15502703031E+03  0.23100597548E+03  0.28204697219E+03  0.40454028230E+03  0.81885313993E+02 0.  0.
          5    1    3    3  501    0  0.21590609133E+03 -0.25135911155E+03 -0.34614418311E+03  0.47920217939E+03  0.47000000000E+01 0. -1.
        -11    1    4    4    0    0  0.60592619379E+02 -0.12991868005E+03 -0.12273647676E+03  0.18871823356E+03  0.00000000000E+00 0.  1.
         12    1    4    4    0    0  0.38986306837E+02 -0.65881993092E+02 -0.30895475407E+01  0.76615366857E+02  0.00000000000E+00 0. -1.
         -5    1    5    5    0  502 -0.16045798724E+03  0.21615380922E+03  0.46561070931E+03  0.53785189182E+03  0.47000000000E+01 0.  1.
         13    1    6    6    0    0 -0.13107642550E+03  0.16907326014E+03  0.25496571184E+03  0.33282774949E+03  0.00000000000E+00 0. -1.
        -14    1    6    6    0    0 -0.23950604803E+02  0.61932715339E+02  0.27081260355E+02  0.71712532811E+02  0.00000000000E+00 0.  1.
</event>
<event>
12    1  0.8226261E-002  0.2357234E+03  0.7818608E-02  0.1124554E+00
         21   -1    0    0  501  502  0.00000000000E+00  0.00000000000E+00  0.74703926601E+02  0.74703926601E+02  0.00000000000E+00 0. -1.
         21   -1    0    0  502  503 -0.00000000000E+00 -0.00000000000E+00 -0.30557812137E+04  0.30557812137E+04  0.00000000000E+00 0.  1.
         -6    2    1    2    0  503  0.90712331627E+02  0.12401673186E+03 -0.28536873707E+04  0.28625416759E+04  0.16433003344E+03 0.  0.
        -24    2    3    3    0    0  0.15901076373E+02  0.11477456382E+03 -0.22011586216E+04  0.22056566023E+04  0.79973276996E+02 0.  0.
          6    2    1    2  501    0 -0.90712331627E+02 -0.12401673186E+03 -0.12738991647E+03  0.26794346444E+03  0.17876418105E+03 0.  0.
         24    2    5    5    0    0 -0.11846999855E+03 -0.12433321712E+03 -0.67475477380E+02  0.20174362873E+03  0.81569983754E+02 0.  0.
          5    1    5    5  501    0  0.27757666925E+02  0.31648525959E+00 -0.59914439094E+02  0.66199835710E+02  0.47000000000E+01 0. -1.
        -13    1    6    6    0    0 -0.77189099689E+02 -0.11508571628E+03 -0.76786913128E+02  0.15842698391E+03  0.00000000000E+00 0.  1.
         14    1    6    6    0    0 -0.41280898864E+02 -0.92475008336E+01  0.93114357485E+01  0.43316644819E+02  0.00000000000E+00 0. -1.
         -5    1    3    3    0  503  0.74811255255E+02  0.92421680388E+01 -0.65252874902E+03  0.65688507357E+03  0.47000000000E+01 0.  1.
         11    1    4    4    0    0  0.20820901167E+02  0.90392416618E+02 -0.20748332164E+04  0.20769056730E+04  0.00000000000E+00 0. -1.
        -12    1    4    4    0    0 -0.49198247942E+01  0.24382147200E+02 -0.12632540525E+03  0.12875092928E+03  0.00000000000E+00 0.  1.
</event>
<event>
12    1  0.8226261E-002  0.2200329E+03  0.7818608E-02  0.1134113E+00
         21   -1    0    0  501  502  0.00000000000E+00  0.00000000000E+00  0.87574554135E+03  0.87574554135E+03  0.00000000000E+00 0.  1.
         21   -1    0    0  502  503 -0.00000000000E+00 -0.00000000000E+00 -0.13238084714E+03  0.13238084714E+03  0.00000000000E+00 0. -1.
         -6    2    1    2    0  503  0.76486829695E+02 -0.11047108341E+03 -0.13362114303E+02  0.22043829567E+03  0.17424236199E+03 0.  0.
        -24    2    3    3    0    0  0.43619827759E+02 -0.86599932002E+02 -0.74189955190E+02  0.14714308496E+03  0.82126124973E+02 0.  0.
          6    2    1    2  501    0 -0.76486829695E+02  0.11047108341E+03  0.75672680851E+03  0.78768809283E+03  0.17251948725E+03 0.  0.
         24    2    5    5    0    0 -0.36275942835E+02 -0.68901232693E+01  0.40929175645E+03  0.41873853848E+03  0.80366683911E+02 0.  0.
          5    1    5    5  501    0 -0.40210886860E+02  0.11736120668E+03  0.34743505206E+03  0.36894955435E+03  0.47000000000E+01 0. -1.
        -11    1    6    6    0    0 -0.27376003657E+02  0.29672476230E+02  0.30887996416E+03  0.31150719684E+03  0.00000000000E+00 0.  1.
         12    1    6    6    0    0 -0.88999391782E+01 -0.36562599499E+02  0.10041179229E+03  0.10723134164E+03  0.00000000000E+00 0. -1.
         -5    1    3    3    0  503  0.32867001936E+02 -0.23871151410E+02  0.60827840887E+02  0.73295210709E+02  0.47000000000E+01 0.  1.
         13    1    4    4    0    0  0.48916387771E+02 -0.59588565287E+02 -0.10560095015E+02  0.77814688281E+02  0.00000000000E+00 0. -1.
        -14    1    4    4    0    0 -0.52965600118E+01 -0.27011366715E+02 -0.63629860176E+02  0.69328396677E+02  0.00000000000E+00 0.  1.
</event>
<event>
12    1  0.8226261E-002  0.1757040E+03  0.7818608E-02  0.1172055E+00
         21   -1    0    0  503  502  0.00000000000E+00  0.00000000000E+00  0.16599778350E+03  0.16599778350E+03  0.00000000000E+00 0.  1.
         21   -1    0    0  501  503 -0.00000000000E+00 -0.00000000000E+00 -0.26325901988E+03  0.26325901988E+03  0.00000000000E+00 0.  1.
          6    2    1    2  501    0 -0.32374189613E+02 -0.16358784166E+02 -0.16499596895E+03  0.24094885455E+03  0.17180507201E+03 0.  0.
         24    2    3    3    0    0 -0.46091966523E+02 -0.36441592149E+02 -0.18441376123E+03  0.20947446437E+03  0.80116520603E+02 0.  0.
         -6    2    1    2    0  502  0.32374189613E+02  0.16358784166E+02  0.67734732568E+02  0.18830794883E+03  0.17191914269E+03 0.  0.
        -24    2    5    5    0    0 -0.13200099982E+02 -0.86783621781E+01  0.98583000006E+02  0.12766489339E+03  0.79562305800E+02 0.  0.
          5    1    3    3  501    0  0.13717776909E+02  0.20082807983E+02  0.19417792289E+02  0.31474390179E+02  0.47000000000E+01 0. -1.
        -13    1    4    4    0    0  0.78185941551E+01  0.19889058580E+02 -0.38360660606E+02  0.43911790534E+02  0.00000000000E+00 0.  1.
         14    1    4    4    0    0 -0.53910560678E+02 -0.56330650728E+02 -0.14605310063E+03  0.16556267383E+03  0.00000000000E+00 0. -1.
         -5    1    5    5    0  502  0.45574289596E+02  0.25037146344E+02 -0.30848267439E+02  0.60643055440E+02  0.47000000000E+01 0.  1.
         13    1    6    6    0    0 -0.29014632812E+02 -0.33640790140E+02  0.83277940197E+02  0.94386264900E+02  0.00000000000E+00 0. -1.
        -14    1    6    6    0    0  0.15814532830E+02  0.24962427961E+02  0.15305059810E+02  0.33278628489E+02  0.00000000000E+00 0.  1.
</event>
<event>
12    1  0.8226261E-002  0.2292809E+03  0.7818608E-02  0.1127200E+00
         21   -1    0    0  501  502  0.00000000000E+00  0.00000000000E+00  0.13008073094E+03  0.13008073094E+03  0.00000000000E+00 0.  1.
         21   -1    0    0  502  503 -0.00000000000E+00 -0.00000000000E+00 -0.40429523914E+03  0.40429523914E+03  0.00000000000E+00 0. -1.
         -6    2    1    2    0  503  0.64763009935E+02 -0.13715137845E+03 -0.12597712623E+03  0.26134841542E+03  0.17154594090E+03 0.  0.
        -24    2    3    3    0    0  0.56325317671E+01 -0.58971788032E+01 -0.69735434409E+02  0.10672210371E+03  0.80374588493E+02 0.  0.
          6    2    1    2  501    0 -0.64763009935E+02  0.13715137845E+03 -0.14823738196E+03  0.27302755466E+03  0.17194468914E+03 0.  0.
         24    2    5    5    0    0  0.81057452018E+01  0.31220414494E+02 -0.21168659671E+02  0.92196764181E+02  0.83735976657E+02 0.  0.
          5    1    5    5  501    0 -0.72868755137E+02  0.10593096396E+03 -0.12706872229E+03  0.18083079048E+03  0.47000000000E+01 0. -1.
        -13    1    6    6    0    0 -0.59474368009E+01  0.56375338407E+02 -0.27013706718E+02  0.62795629909E+02  0.00000000000E+00 0.  1.
         14    1    6    6    0    0  0.14053182003E+02 -0.25154923913E+02  0.58450470475E+01  0.29401134272E+02  0.00000000000E+00 0. -1.
         -5    1    3    3    0  503  0.59130478168E+02 -0.13125419965E+03 -0.56241691825E+02  0.15462631171E+03  0.47000000000E+01 0.  1.
         13    1    4    4    0    0  0.30963679651E+02  0.16019227179E+02 -0.69322913358E+01  0.35544644605E+02  0.00000000000E+00 0. -1.
        -14    1    4    4    0    0 -0.25331147884E+02 -0.21916405983E+02 -0.62803143073E+02  0.71177459102E+02  0.00000000000E+00 0.  1.
</event>
<event>
12    1  0.8226261E-002  0.2395912E+03  0.7818608E-02  0.1120087E+00
         21   -1    0    0  501  502  0.00000000000E+00  0.00000000000E+00  0.10954209925E+04  0.10954209925E+04  0.00000000000E+00 0. -1.
         21   -1    0    0  502  503 -0.00000000000E+00 -0.00000000000E+00 -0.62946601072E+02  0.62946601072E+02  0.00000000000E+00 0.  1.
         -6    2    1    2    0  503 -0.67358068251E+02 -0.15159910722E+03  0.27877294212E+03  0.36750110605E+03  0.17269427037E+03 0.  0.
        -24    2    3    3    0    0 -0.54868042085E+02 -0.18248722617E+03  0.24252926150E+03  0.31804636884E+03  0.77594847084E+02 0.  0.
          6    2    1    2  501    0  0.67358068251E+02  0.15159910722E+03  0.75370144935E+03  0.79086648757E+03  0.17287141968E+03 0.  0.
         24    2    5    5    0    0  0.39706953141E+02  0.17894042536E+03  0.61064672699E+03  0.64254630879E+03  0.79875001086E+02 0.  0.
          5    1    5    5  501    0  0.27651115110E+02 -0.27341318141E+02  0.14305472236E+03  0.14832017878E+03  0.47000000000E+01 0. -1.
        -11    1    6    6    0    0  0.70955413402E+01 -0.54800883127E+01  0.10247679392E+02  0.13615910097E+02  0.00000000000E+00 0.  1.
         12    1    6    6    0    0  0.32611411800E+02  0.18442051367E+03  0.60039904760E+03  0.62893039869E+03  0.00000000000E+00 0. -1.
         -5    1    3    3    0  503 -0.12490026166E+02  0.30888118958E+02  0.36243680627E+02  0.49454737203E+02  0.47000000000E+01 0.  1.
         13    1    4    4    0    0 -0.55766411229E+02 -0.97315272098E+02  0.18113573851E+03  0.21305001894E+03  0.00000000000E+00 0. -1.
        -14    1    4    4    0    0  0.89836914468E+00 -0.85171954076E+02  0.61393522984E+02  0.10499634990E+03  0.00000000000E+00 0.  1.
</event>
<event>
12    1  0.8226261E-002  0.1758764E+03  0.7818608E-02  0.1172309E+00
         21   -1    0    0  503  502  0.00000000000E+00  0.00000000000E+00  0.39172688182E+03  0.39172688182E+03  0.00000000000E+00 0. -1.
         21   -1    0    0  501  503 -0.00000000000E+00 -0.00000000000E+00 -0.86556992289E+02  0.86556992289E+02  0.00000000000E+00 0. -1.
          6    2    1    2  501    0  0.31150615861E+02 -0.76470904315E+01  0.77354626340E+02  0.19047787987E+03  0.17108256966E+03 0.  0.
         24    2    3    3    0    0  0.35806537235E+02  0.39911624545E+02  0.97557183606E+02  0.13838428819E+03  0.82205603587E+02 0.  0.
         -6    2    1    2    0  502 -0.31150615861E+02  0.76470904315E+01  0.22781526319E+03  0.28780599424E+03  0.17292673974E+03 0.  0.
        -24    2    5    5    0    0 -0.62022134366E+02 -0.42975444435E+02  0.12869139763E+03  0.17220615681E+03  0.86022384547E+02 0.  0.
          5    1    3    3  501    0 -0.46559213731E+01 -0.47558714976E+02 -0.20202557266E+02  0.52093591680E+02  0.47000000000E+01 0. -1.
        -11    1    4    4    0    0  0.58703141827E+02  0.87247822781E+01  0.62227953281E+02  0.85991271974E+02  0.00000000000E+00 0.  1.
         12    1    4    4    0    0 -0.22896604593E+02  0.31186842267E+02  0.35329230324E+02  0.52393016212E+02  0.00000000000E+00 0. -1.
         -5    1    5    5    0  502  0.30871518504E+02  0.50622534866E+02  0.99123865557E+02  0.11559983743E+03  0.47000000000E+01 0.  1.
         11    1    6    6    0    0 -0.11119913990E+02  0.23198137219E+02  0.55528077145E+02  0.61197821930E+02  0.00000000000E+00 0. -1.
        -12    1    6    6    0    0 -0.50902220376E+02 -0.66173581654E+02  0.73163320488E+02  0.11100833488E+03  0.00000000000E+00 0.  1.
</event>
<event>
12    1  0.8226261E-002  0.3336979E+03  0.7818608E-02  0.1069866E+00
         21   -1    0    0  501  502  0.00000000000E+00  0.00000000000E+00  0.78207390531E+03  0.78207390531E+03  0.00000000000E+00 0.  1.
         21   -1    0    0  502  503 -0.00000000000E+00 -0.00000000000E+00 -0.15654446431E+03  0.15654446431E+03  0.00000000000E+00 0.  1.
         -6    2    1    2    0  503  0.21798583665E+03 -0.17945911693E+03  0.46197055386E+03  0.56988692899E+03  0.17785083519E+03 0.  0.
        -24    2    3    3    0    0  0.19185616272E+03 -0.67285156504E+02  0.29937153487E+03  0.37057238303E+03  0.79777789606E+02 0.  0.
          6    2    1    2  501    0 -0.21798583665E+03  0.17945911693E+03  0.16355888713E+03  0.36873144063E+03  0.17172060482E+03 0.  0.
         24    2    5    5    0    0 -0.19029792302E+03  0.10810172092E+03  0.17500765524E+03  0.29119652709E+03  0.79173584143E+02 0.  0.
          5    1    5    5  501    0 -0.27687913637E+02  0.71357396011E+02 -0.11448768105E+02  0.77534913543E+02  0.47000000000E+01 0. -1.
        -11    1    6    6    0    0 -0.13629526557E+03  0.48539422930E+02  0.75270444833E+02  0.16308928493E+03  0.00000000000E+00 0.  1.
         12    1    6    6    0    0 -0.54002657448E+02  0.59562297985E+02  0.99737210406E+02  0.12810724215E+03  0.00000000000E+00 0. -1.
         -5    1    3    3    0  503  0.26129673931E+02 -0.11217396042E+03  0.16259901899E+03  0.19931454596E+03  0.47000000000E+01 0.  1.
         11    1    4    4    0    0 -0.43276269226E+01 -0.14311521620E+02  0.16373595579E+02  0.22173015988E+02  0.00000000000E+00 0. -1.
        -12    1    4    4    0    0  0.19618378964E+03 -0.52973634885E+02  0.28299793929E+03  0.34839936704E+03  0.00000000000E+00 0.  1.
</event>
<event>
12    1  0.8226261E-002  0.2535649E+03  0.7818608E-02  0.1111214E+00
         21   -1    0    0  501  502  0.00000000000E+00  0.00000000000E+00  0.10881956931E+03  0.10881956931E+03  0.00000000000E+00 0.  1.
         21   -1    0    0  502  503 -0.00000000000E+00 -0.00000000000E+00 -0.65583940208E+03  0.65583940208E+03  0.00000000000E+00 0. -1.
         -6    2    1    2    0  503 -0.10907915184E+03 -0.14956582522E+03 -0.15075567795E+03  0.29421190454E+03  0.17194526135E+03 0.  0.
        -24    2    3    3    0    0  0.72480132493E+01 -0.57057619766E+02 -0.31513152563E+02  0.10360590444E+03  0.80205978461E+02 0.  0.
          6    2    1    2  501    0  0.10907915184E+03  0.14956582522E+03 -0.39626415483E+03  0.47044706685E+03  0.17328290414E+03 0.  0.
         24    2    5    5    0    0  0.42755766604E+00  0.57491085424E+02 -0.23726003254E+03  0.25693517601E+03  0.80112133427E+02 0.  0.
          5    1    5    5  501    0  0.10865159418E+03  0.92074739791E+02 -0.15900412229E+03  0.21351189084E+03  0.47000000000E+01 0. -1.
        -13    1    6    6    0    0  0.13245034544E+02  0.18969858893E+02 -0.85745432469E+01  0.24674060841E+02  0.00000000000E+00 0.  1.
         14    1    6    6    0    0 -0.12817476878E+02  0.38521226531E+02 -0.22868548929E+03  0.23226111517E+03  0.00000000000E+00 0. -1.
         -5    1    3    3    0  503 -0.11632716509E+03 -0.92508205450E+02 -0.11924252539E+03  0.19060600010E+03  0.47000000000E+01 0.  1.
         13    1    4    4    0    0  0.19341643085E+00  0.43620972310E+01 -0.40848783781E+02  0.41081485350E+02  0.00000000000E+00 0. -1.
        -14    1    4    4    0    0  0.70545968184E+01 -0.61419716997E+02  0.93356312181E+01  0.62524419089E+02  0.00000000000E+00 0.  1.
</event>
<event>
12    1  0.8226261E-002  0.1829382E+03  0.7818608E-02  0.1165948E+00
         21   -1    0    0  501  502  0.00000000000E+00  0.00000000000E+00  0.30909696637E+03  0.30909696637E+03  0.00000000000E+00 0. -1.
         21   -1    0    0  502  503 -0.00000000000E+00 -0.00000000000E+00 -0.24065938582E+03  0.24065938582E+03  0.00000000000E+00 0. -1.
         -6    2    1    2    0  503 -0.67982134722E+02  0.14064696190E+02 -0.17128813044E+03  0.25061128046E+03  0.16925425827E+03 0.  0.
        -24    2    3    3    0    0 -0.23908151993E+02 -0.43887988231E+02 -0.64452626104E+02  0.12123993675E+03  0.89706332050E+02 0.  0.
          6    2    1    2  501    0  0.67982134722E+02 -0.14064696190E+02  0.23972571099E+03  0.29914507174E+03  0.16492413745E+03 0.  0.
         24    2    5    5    0    0  0.91611966331E+02 -0.46706364056E+02  0.21661199084E+03  0.25245265820E+03  0.78976915843E+02 0.  0.
          5    1    5    5  501    0 -0.23629831609E+02  0.32641667865E+02  0.23113720146E+02  0.46692413537E+02  0.47000000000E+01 0. -1.
        -13    1    6    6    0    0  0.49031110524E+02 -0.40702215932E+02  0.51795714454E+02  0.82118915098E+02  0.00000000000E+00 0.  1.
         14    1    6    6    0    0  0.42580855807E+02 -0.60041481237E+01  0.16481627639E+03  0.17033374310E+03  0.00000000000E+00 0. -1.
         -5    1    3    3    0  503 -0.44073982728E+02  0.57952684422E+02 -0.10683550434E+03  0.12937134370E+03  0.47000000000E+01 0.  1.
         11    1    4    4    0    0 -0.54113652617E+02 -0.63939445200E+01 -0.36126802797E+02  0.65378251785E+02  0.00000000000E+00 0. -1.
        -12    1    4    4    0    0  0.30205500623E+02 -0.37494043711E+02 -0.28325823306E+02  0.55861684970E+02  0.00000000000E+00 0.  1.
</event>
<event>
12    1  0.8226261E-002  0.1854032E+03  0.7818608E-02  0.1162885E+00
         21   -1    0    0  503  502  0.00000000000E+00  0.00000000000E+00  0.79865817651E+02  0.79865817651E+02  0.00000000000E+00 0. -1.
         21   -1    0    0  501  503 -0.00000000000E+00 -0.00000000000E+00 -0.49254487309E+03  0.49254487309E+03  0.00000000000E+00 0. -1.
          6    2    1    2  501    0 -0.59199060082E+02  0.31429798548E+02 -0.30926465793E+03  0.36011636133E+03  0.17189183838E+03 0.  0.
         24    2    3    3    0    0  0.27374829640E+02  0.46748224473E+02 -0.14653012313E+03  0.17509119718E+03  0.79063724643E+02 0.  0.
         -6    2    1    2    0  502  0.59199060082E+02 -0.31429798548E+02 -0.10341439751E+03  0.21229432941E+03  0.17286406144E+03 0.  0.
        -24    2    5    5    0    0  0.94354863999E+02 -0.56295487753E+02 -0.10086917273E+03  0.16890307202E+03  0.79256768969E+02 0.  0.
          5    1    3    3  501    0 -0.86573889722E+02 -0.15318425925E+02 -0.16273453480E+03  0.18502516415E+03  0.47000000000E+01 0. -1.
        -13    1    4    4    0    0 -0.13360068920E+02 -0.36707163177E+01 -0.83631959420E+02  0.84771871728E+02  0.00000000000E+00 0.  1.
         14    1    4    4    0    0  0.40734898560E+02  0.50418940791E+02 -0.62898163711E+02  0.90319325448E+02  0.00000000000E+00 0. -1.
         -5    1    5    5    0  502 -0.35155803917E+02  0.24865689206E+02 -0.25452247727E+01  0.43391257390E+02  0.47000000000E+01 0.  1.
         13    1    6    6    0    0  0.66906307475E+02 -0.43431192537E+02 -0.19564179447E+02  0.82130868635E+02  0.00000000000E+00 0. -1.
        -14    1    6    6    0    0  0.27448556524E+02 -0.12864295216E+02 -0.81304993287E+02  0.86772203384E+02  0.00000000000E+00 0.  1.
</event>
<event>
12    1  0.8226261E-002  0.3240430E+03  0.7818608E-02  0.1073885E+00
         21   -1    0    0  501  502  0.00000000000E+00  0.00000000000E+00  0.12766697903E+03  0.12766697903E+03  0.00000000000E+00 0.  1.
         21   -1    0    0  502  503 -0.00000000000E+00 -0.00000000000E+00 -0.12270599956E+04  0.12270599956E+04  0.00000000000E+00 0. -1.
         -6    2    1    2    0  503  0.22526308007E+03  0.15654775817E+03 -0.16028401572E+03  0.36151742303E+03  0.17249123348E+03 0.  0.
        -24    2    3    3    0    0  0.20162749420E+03  0.10442223280E+03 -0.63830710793E+02  0.24926306300E+03  0.80622985652E+02 0.  0.
          6    2    1    2  501    0 -0.22526308007E+03 -0.15654775817E+03 -0.93910900083E+03  0.99320955158E+03  0.17113983195E+03 0.  0.
         24    2    5    5    0    0 -0.42138944091E+02 -0.44644667982E+02 -0.41500085616E+03  0.42684554488E+03  0.78756406633E+02 0.  0.
          5    1    5    5  501    0 -0.18312413598E+03 -0.11190309019E+03 -0.52410814467E+03  0.56636400670E+03  0.47000000000E+01 0. -1.
        -11    1    6    6    0    0 -0.13834458123E+02 -0.63648897937E+02 -0.29433687272E+03  0.30145774013E+03  0.00000000000E+00 0.  1.
         12    1    6    6    0    0 -0.28304485968E+02  0.19004229955E+02 -0.12066398343E+03  0.12538780475E+03  0.00000000000E+00 0. -1.
         -5    1    3    3    0  503  0.23635585876E+02  0.52125525370E+02 -0.96453304928E+02  0.11225436003E+03  0.47000000000E+01 0.  1.
         11    1    4    4    0    0  0.86752667029E+01 -0.12487871265E+02 -0.19986982016E+01  0.15336296020E+02  0.00000000000E+00 0. -1.
        -12    1    4    4    0    0  0.19295222749E+03  0.11691010407E+03 -0.61832012592E+02  0.23392676698E+03  0.00000000000E+00 0.  1.
</event>
<event>
12    1  0.8226261E-002  0.2177391E+03  0.7818608E-02  0.1135635E+00
         21   -1    0    0  503  502  0.00000000000E+00  0.00000000000E+00  0.33529793435E+02  0.33529793435E+02  0.00000000000E+00 0.  1.
         21   -1    0    0  501  503 -0.00000000000E+00 -0.00000000000E+00 -0.15203861356E+04  0.15203861356E+04  0.00000000000E+00 0. -1.
          6    2    1    2  501    0  0.13220575358E+03  0.16886978577E+02 -0.95032048149E+03  0.97488136213E+03  0.17181711602E+03 0.  0.
         24    2    3    3    0    0  0.15140967418E+03  0.28856494167E+02 -0.63465022499E+03  0.65836617969E+03  0.83111562357E+02 0.  0.
         -6    2    1    2    0  502 -0.13220575358E+03 -0.16886978577E+02 -0.53653586067E+03  0.57903456691E+03  0.17218237007E+03 0.  0.
        -24    2    5    5    0    0 -0.42578128403E+02  0.20137529878E+02 -0.40389760624E+03  0.41466023205E+03  0.81187527304E+02 0.  0.
          5    1    3    3  501    0 -0.19203920597E+02 -0.11969515591E+02 -0.31567025651E+03  0.31651518244E+03  0.47000000000E+01 0. -1.
        -13    1    4    4    0    0  0.12765753031E+03 -0.90062505946E+01 -0.41792204246E+03  0.43707709980E+03  0.00000000000E+00 0.  1.
         14    1    4    4    0    0  0.23752143870E+02  0.37862744762E+02 -0.21672818253E+03  0.22128907989E+03  0.00000000000E+00 0. -1.
         -5    1    5    5    0  502 -0.89627625177E+02 -0.37024508455E+02 -0.13263825444E+03  0.16437433486E+03  0.47000000000E+01 0.  1.
         13    1    6    6    0    0 -0.56578827300E+01 -0.15513690615E+02 -0.28088868873E+03  0.28137366915E+03  0.00000000000E+00 0. -1.
        -14    1    6    6    0    0 -0.36920245673E+02  0.35651220494E+02 -0.12300891751E+03  0.13328656290E+03  0.00000000000E+00 0.  1.
</event>
<event>
12    1  0.8226261E-002  0.1812489E+03  0.7818608E-02  0.1167481E+00
         21   -1    0    0  501  502  0.00000000000E+00  0.00000000000E+00  0.82130075154E+03  0.82130075154E+03  0.00000000000E+00 0. -1.
         21   -1    0    0  502  503 -0.00000000000E+00 -0.00000000000E+00 -0.42852451879E+02  0.42852451879E+02  0.00000000000E+00 0.  1.
         -6    2    1    2    0  503 -0.44476086799E+02  0.18861487815E+01  0.25948439330E+03  0.31444901401E+03  0.17194287479E+03 0.  0.
        -24    2    3    3    0    0 -0.39980489680E+02 -0.43092110184E+02  0.24970738197E+03  0.26796316537E+03  0.77428107763E+02 0.  0.
          6    2    1    2  501    0  0.44476086799E+02 -0.18861487815E+01  0.51896390636E+03  0.54970418941E+03  0.17569712546E+03 0.  0.
         24    2    5    5    0    0  0.80132859468E+02  0.10099683429E+02  0.48075132464E+03  0.49587708645E+03  0.90823840232E+02 0.  0.
          5    1    5    5  501    0 -0.35656772669E+02 -0.11985832210E+02  0.38212581724E+02  0.53827102959E+02  0.47000000000E+01 0. -1.
        -11    1    6    6    0    0  0.54211854215E+02 -0.34696649250E+02  0.19137164499E+03  0.20190564409E+03  0.00000000000E+00 0.  1.
         12    1    6    6    0    0  0.25921005254E+02  0.44796332679E+02  0.28937967964E+03  0.29397144237E+03  0.00000000000E+00 0. -1.
         -5    1    3    3    0  503 -0.44955971188E+01  0.44978258965E+02  0.97770113334E+01  0.46485848638E+02  0.47000000000E+01 0.  1.
         13    1    4    4    0    0  0.19139572489E+02 -0.31604095706E+02  0.91243701800E+02  0.98440617728E+02  0.00000000000E+00 0. -1.
        -14    1    4    4    0    0 -0.59120062169E+02 -0.11488014477E+02  0.15846368017E+03  0.16952254765E+03  0.00000000000E+00 0.  1.
</event>
<event>
12    1  0.8226261E-002  0.2286641E+03  0.7818608E-02  0.1129775E+00
         21   -1    0    0  501  502  0.00000000000E+00  0.00000000000E+00  0.67784594626E+02  0.67784594626E+02  0.00000000000E+00 0. -1.
         21   -1    0    0  502  503 -0.00000000000E+00 -0.00000000000E+00 -0.78886732081E+03  0.78886732081E+03  0.00000000000E+00 0. -1.
         -6    2    1    2    0  503 -0.48952551302E+01  0.13145883569E+03 -0.23595111252E+03  0.32033117753E+03  0.17214455202E+03 0.  0.
        -24    2    3    3    0    0  0.47536973884E+02  0.10199614025E+03 -0.93559069912E+02  0.16568715772E+03  0.77691429125E+02 0.  0.
          6    2    1    2  501    0  0.48952551302E+01 -0.13145883569E+03 -0.48513161366E+03  0.53632073791E+03  0.18703438811E+03 0.  0.
         24    2    5    5    0    0 -0.27091219407E+01  0.11419636401E+02 -0.12884010191E+03  0.15234441613E+03  0.80444402108E+02 0.  0.
          5    1    5    5  501    0  0.76043770709E+01 -0.14287847209E+03 -0.35629151175E+03  0.38397632178E+03  0.47000000000E+01 0. -1.
        -11    1    6    6    0    0  0.68177587731E+01  0.79391945082E+01 -0.13816848846E+03  0.13856422283E+03  0.00000000000E+00 0.  1.
         12    1    6    6    0    0 -0.95268807138E+01  0.34804418930E+01  0.93283865530E+01  0.13780193307E+02  0.00000000000E+00 0. -1.
         -5    1    3    3    0  503 -0.52432229015E+02  0.29462695444E+02 -0.14239204261E+03  0.15464401981E+03  0.47000000000E+01 0.  1.
         13    1    4    4    0    0  0.59435202992E+01  0.89373838427E+02 -0.80159520749E+02  0.12020215138E+03  0.00000000000E+00 0. -1.
        -14    1    4    4    0    0  0.41593453585E+02  0.12622301819E+02 -0.13399549163E+02  0.45485006344E+02  0.00000000000E+00 0.  1.
</event>
<event>
12    1  0.8226261E-002  0.2158412E+03  0.7818608E-02  0.1137293E+00
         21   -1    0    0  501  502  0.00000000000E+00  0.00000000000E+00  0.48497872269E+02  0.48497872269E+02  0.00000000000E+00 0. -1.
         21   -1    0    0  502  503 -0.00000000000E+00 -0.00000000000E+00 -0.97218939337E+03  0.97218939337E+03  0.00000000000E+00 0.  1.
         -6    2    1    2    0  503 -0.11407911761E+02  0.12881959613E+03 -0.39416462426E+03  0.44939201935E+03  0.17280858554E+03 0.  0.
        -24    2    3    3    0    0  0.40078006808E+02  0.66202530964E+02 -0.88952272938E+02  0.13356237213E+03  0.62748535059E+02 0.  0.
          6    2    1    2  501    0  0.11407911761E+02 -0.12881959613E+03 -0.52952689684E+03  0.57129524629E+03  0.17104062431E+03 0.  0.
         24    2    5    5    0    0  0.17606038031E+01 -0.16156289457E+03 -0.44766404058E+03  0.48247626533E+03  0.79212276561E+02 0.  0.
          5    1    5    5  501    0  0.96473079575E+01  0.32743298439E+02 -0.81862856264E+02  0.88818980962E+02  0.47000000000E+01 0. -1.
        -13    1    6    6    0    0 -0.33986251323E+02 -0.38050795978E+02 -0.14101569613E+03  0.14996117800E+03  0.00000000000E+00 0.  1.
         14    1    6    6    0    0  0.35746855126E+02 -0.12351209859E+03 -0.30664834445E+03  0.33251508733E+03  0.00000000000E+00 0. -1.
         -5    1    3    3    0  503 -0.51485918568E+02  0.62617065164E+02 -0.30521235133E+03  0.31582964722E+03  0.47000000000E+01 0.  1.
         11    1    4    4    0    0  0.45970501155E+02  0.16684233570E+02 -0.35299050579E+02  0.60313129566E+02  0.00000000000E+00 0. -1.
        -12    1    4    4    0    0 -0.58924943477E+01  0.49518297394E+02 -0.53653222359E+02  0.73249242562E+02  0.00000000000E+00 0.  1.
</event>
<event>
12    1  0.8226261E-002  0.2145083E+03  0.7818608E-02  0.1138188E+00
         21   -1    0    0  503  502  0.00000000000E+00  0.00000000000E+00  0.31516232444E+02  0.31516232444E+02  0.00000000000E+00 0.  1.
         21   -1    0    0  501  503 -0.00000000000E+00 -0.00000000000E+00 -0.17027980183E+04  0.17027980183E+04  0.00000000000E+00 0. -1.
          6    2    1    2  501    0  0.71481564925E+02 -0.10229644002E+03 -0.11652345852E+04  0.11846802218E+04  0.17355521754E+03 0.  0.
         24    2    3    3    0    0  0.97123156025E+02 -0.81887868805E+02 -0.59109832171E+03  0.60959019401E+03  0.77874567151E+02 0.  0.
         -6    2    1    2    0  502 -0.71481564925E+02  0.10229644002E+03 -0.50604720062E+03  0.54963402894E+03  0.17446954103E+03 0.  0.
        -24    2    5    5    0    0 -0.10881974052E+03  0.43507281891E+02 -0.37604963270E+03  0.40208145479E+03  0.80756117625E+02 0.  0.
          5    1    3    3  501    0 -0.25641591100E+02 -0.20408571219E+02 -0.57413626353E+03  0.57509002780E+03  0.47000000000E+01 0. -1.
        -11    1    4    4    0    0  0.85457945210E+02 -0.24253749906E+02 -0.31416268247E+03  0.32648046778E+03  0.00000000000E+00 0.  1.
         12    1    4    4    0    0  0.11665210815E+02 -0.57634118899E+02 -0.27693563924E+03  0.28310972623E+03  0.00000000000E+00 0. -1.
         -5    1    5    5    0  502  0.37338175598E+02  0.58789158133E+02 -0.12999756792E+03  0.14755257415E+03  0.47000000000E+01 0.  1.
         13    1    6    6    0    0 -0.24137410988E+01  0.10932870543E+02 -0.14704947991E+03  0.14747509398E+03  0.00000000000E+00 0. -1.
        -14    1    6    6    0    0 -0.10640599942E+03  0.32574411348E+02 -0.22900015279E+03  0.25460636081E+03  0.00000000000E+00 0.  1.
</event>
<event>
12    1  0.8226261E-002  0.1767545E+03  0.7818608E-02  0.1171474E+00
         21   -1    0    0  501  502  0.00000000000E+00  0.00000000000E+00  0.14796279696E+04  0.14796279696E+04  0.00000000000E+00 0. -1.
         21   -1    0    0  502  503 -0.00000000000E+00 -0.00000000000E+00 -0.38584575717E+02  0.38584575717E+02  0.00000000000E+00 0. -1.
         -6    2    1    2    0  503  0.21473773060E+02 -0.35592427295E+02  0.20850221908E+03  0.27334104130E+03  0.17179698975E+03 0.  0.
        -24    2    3    3    0    0 -0.54894381650E+01 -0.76168095624E+02  0.15776537291E+03  0.20284482027E+03  0.10209992899E+03 0.  0.
          6    2    1    2  501    0 -0.21473773060E+02  0.35592427295E+02  0.12325411748E+04  0.12448715040E+04  0.16976268766E+03 0.  0.
         24    2    5    5    0    0  0.65257456150E+01 -0.14986245677E+02  0.10500850499E+04  0.10534178471E+04  0.82118060138E+02 0.  0.
          5    1    5    5  501    0 -0.27999518675E+02  0.50578672971E+02  0.18245612492E+03  0.19145365687E+03  0.47000000000E+01 0. -1.
        -11    1    6    6    0    0 -0.16817263467E+02 -0.19222523763E+02  0.10595797716E+03  0.10899274606E+03  0.00000000000E+00 0.  1.
         12    1    6    6    0    0  0.23343009082E+02  0.42362780863E+01  0.94412707271E+03  0.94442510108E+03  0.00000000000E+00 0. -1.
         -5    1    3    3    0  503  0.26963211225E+02  0.40575668329E+02  0.50736846173E+02  0.70496221030E+02  0.47000000000E+01 0.  1.
         11    1    4    4    0    0  0.80400873882E+01  0.15786347036E+02  0.79158822485E+02  0.81117020009E+02  0.00000000000E+00 0. -1.
        -12    1    4    4    0    0 -0.13529525553E+02 -0.91954442661E+02  0.78606550422E+02  0.12172780026E+03  0.00000000000E+00 0.  1.
</event>
<event>
12    1  0.8226261E-002  0.2192278E+03  0.7818608E-02  0.1134777E+00
         21   -1    0    0  501  502  0.00000000000E+00  0.00000000000E+00  0.28538829393E+03  0.28538829393E+03  0.00000000000E+00 0.  1.
         21   -1    0    0  502  503 -0.00000000000E+00 -0.00000000000E+00 -0.25323174204E+03  0.25323174204E+03  0.00000000000E+00 0. -1.
         -6    2    1    2    0  503  0.10872495542E+03  0.77700973663E+02 -0.14101520839E+03  0.25924700850E+03  0.17165420235E+03 0.  0.
        -24    2    3    3    0    0  0.60810336377E+02  0.11637550162E+03 -0.83893082481E+02  0.17512473382E+03  0.79934152399E+02 0.  0.
          6    2    1    2  501    0 -0.10872495542E+03 -0.77700973663E+02  0.17317176027E+03  0.27937302747E+03  0.17378801075E+03 0.  0.
         24    2    5    5    0    0 -0.13394268852E+03 -0.24061095564E+02  0.99775736697E+02  0.18491543454E+03  0.75623674667E+02 0.  0.
          5    1    5    5  501    0  0.25217733099E+02 -0.53639878099E+02  0.73396023578E+02  0.94457592930E+02  0.47000000000E+01 0. -1.
        -13    1    6    6    0    0 -0.47509002004E+01 -0.18042722013E+01  0.40886365616E+02  0.41200987174E+02  0.00000000000E+00 0.  1.
         14    1    6    6    0    0 -0.12919178832E+03 -0.22256823363E+02  0.58889371082E+02  0.14371444736E+03  0.00000000000E+00 0. -1.
         -5    1    3    3    0  503  0.47914619043E+02 -0.38674527954E+02 -0.57122125904E+02  0.84122274686E+02  0.47000000000E+01 0.  1.
         11    1    4    4    0    0 -0.10471878997E+02  0.49148439191E+02 -0.73452030116E+01  0.50785641002E+02  0.00000000000E+00 0. -1.
        -12    1    4    4    0    0  0.71282215375E+02  0.67227062426E+02 -0.76547879470E+02  0.12433909282E+03  0.00000000000E+00 0.  1.
</event>
<event>
12    1  0.8226261E-002  0.1768396E+03  0.7818608E-02  0.1170928E+00
         21   -1    0    0  503  502  0.00000000000E+00  0.00000000000E+00  0.52314415491E+03  0.52314415491E+03  0.00000000000E+00 0.  1.
         21   -1    0    0  501  503 -0.00000000000E+00 -0.00000000000E+00 -0.59996727448E+02  0.59996727448E+02  0.00000000000E+00 0.  1.
          6    2    1    2  501    0 -0.35602808106E+02 -0.18790863407E+02  0.25088292638E+03  0.30694380721E+03  0.17219640397E+03 0.  0.
         24    2    3    3    0    0 -0.40291568262E+02 -0.56405187317E+02  0.82639716951E+02  0.13441934704E+03  0.80213978908E+02 0.  0.
         -6    2    1    2    0  502  0.35602808106E+02  0.18790863407E+02  0.21226450108E+03  0.27619707515E+03  0.17206960630E+03 0.  0.
        -24    2    5    5    0    0  0.80159248368E+02 -0.19763753745E+02  0.11729549345E+03  0.16433583396E+03  0.80199267305E+02 0.  0.
          5    1    3    3  501    0  0.46887601557E+01  0.37614323910E+02  0.16824320943E+03  0.17252446016E+03  0.47000000000E+01 0. -1.
        -13    1    4    4    0    0  0.24580185146E+02 -0.18791495039E+02  0.26647657056E+02  0.40833851327E+02  0.00000000000E+00 0.  1.
         14    1    4    4    0    0 -0.64871753408E+02 -0.37613692278E+02  0.55992059895E+02  0.93585495715E+02  0.00000000000E+00 0. -1.
         -5    1    5    5    0  502 -0.44556440262E+02  0.38554617152E+02  0.94969007626E+02  0.11186124120E+03  0.47000000000E+01 0.  1.
         13    1    6    6    0    0  0.33506098868E+02 -0.43053355150E+02  0.90597262571E+02  0.10575497169E+03  0.00000000000E+00 0. -1.
        -14    1    6    6    0    0  0.46653149501E+02  0.23289601405E+02  0.26698230883E+02  0.58580862269E+02  0.00000000000E+00 0.  1.
</event>
<event>
12    1  0.8226261E-002  0.1834179E+03  0.7818608E-02  0.1164548E+00
         21   -1    0    0  503  502  0.00000000000E+00  0.00000000000E+00  0.17576563875E+03  0.17576563875E+03  0.00000000000E+00 0. -1.
         21   -1    0    0  501  503 -0.00000000000E+00 -0.00000000000E+00 -0.19200731231E+03  0.19200731231E+03  0.00000000000E+00 0. -1.
          6    2    1    2  501    0 -0.62162259652E+02 -0.12851798267E+02  0.26646048711E+01  0.18338326113E+03  0.17202617562E+03 0.  0.
         24    2    3    3    0    0 -0.10652500167E+03  0.92357613722E+01 -0.26531460337E+01  0.13332048409E+03  0.79589176564E+02 0.  0.
         -6    2    1    2    0  502  0.62162259652E+02  0.12851798267E+02 -0.18906278432E+02  0.18438968993E+03  0.17208368646E+03 0.  0.
        -24    2    5    5    0    0 -0.21098201487E+02  0.47550726737E+02 -0.81190881473E+00  0.92271199725E+02  0.76204392154E+02 0.  0.
          5    1    3    3  501    0  0.44362742016E+02 -0.22087559639E+02  0.53177509049E+01  0.50062777037E+02  0.47000000000E+01 0. -1.
        -13    1    4    4    0    0 -0.77827999907E+02  0.42483296762E+02 -0.82262910991E+01  0.89048862646E+02  0.00000000000E+00 0.  1.
         14    1    4    4    0    0 -0.28697001761E+02 -0.33247535389E+02  0.55731450654E+01  0.44271621446E+02  0.00000000000E+00 0. -1.
         -5    1    5    5    0  502  0.83260461139E+02 -0.34698928470E+02 -0.18094369617E+02  0.92118490206E+02  0.47000000000E+01 0.  1.
         13    1    6    6    0    0 -0.21815937757E+02  0.42829122027E+02 -0.33914611557E+02  0.58825757206E+02  0.00000000000E+00 0. -1.
        -14    1    6    6    0    0  0.71773626999E+00  0.47216047106E+01  0.33102702743E+02  0.33445442519E+02  0.00000000000E+00 0.  1.
</event>
<event>
12    1  0.8226261E-002  0.2068778E+03  0.7818608E-02  0.1144093E+00
         21   -1    0    0  503  502  0.00000000000E+00  0.00000000000E+00  0.21169033011E+03  0.21169033011E+03  0.00000000000E+00 0.  1.
         21   -1    0    0  501  503 -0.00000000000E+00 -0.00000000000E+00 -0.10407825647E+04  0.10407825647E+04  0.00000000000E+00 0.  1.
          6    2    1    2  501    0  0.87633148589E+02  0.74757492659E+02 -0.97669764329E+03  0.99833559054E+03  0.17166075115E+03 0.  0.
         24    2    3    3    0    0  0.66162766414E+02  0.63536611381E+02 -0.96487040996E+03  0.97097030348E+03  0.58258128871E+02 0.  0.
         -6    2    1    2    0  502 -0.87633148589E+02 -0.74757492659E+02  0.14760540874E+03  0.25413730423E+03  0.17184342079E+03 0.  0.
        -24    2    5    5    0    0 -0.86228608070E+02 -0.11360764242E+03  0.96981573676E+02  0.19013597965E+03  0.80026219827E+02 0.  0.
          5    1    3    3  501    0  0.21470382175E+02  0.11220881278E+02 -0.11827233328E+02  0.27365287055E+02  0.47000000000E+01 0. -1.
        -11    1    4    4    0    0  0.71778038748E+02  0.42403277379E+02 -0.64704463989E+03  0.65239320259E+03  0.00000000000E+00 0.  1.
         12    1    4    4    0    0 -0.56152723344E+01  0.21133334002E+02 -0.31782577007E+03  0.31857710089E+03  0.00000000000E+00 0. -1.
         -5    1    5    5    0  502 -0.14045405185E+01  0.38850149761E+02  0.50623835064E+02  0.64001324573E+02  0.47000000000E+01 0.  1.
         11    1    6    6    0    0 -0.73026130483E+01 -0.23154615187E+02 -0.12813047626E+02  0.27452478053E+02  0.00000000000E+00 0. -1.
        -12    1    6    6    0    0 -0.78925995022E+02 -0.90453027233E+02  0.10979462130E+03  0.16268350160E+03  0.00000000000E+00 0.  1.
</event>
<event>
12    1  0.8226261E-002  0.2354643E+03  0.7818608E-02  0.1123253E+00
         21   -1    0    0  501  502  0.00000000000E+00  0.00000000000E+00  0.37494861419E+03  0.37494861419E+03  0.00000000000E+00 0.  1.
         21   -1    0    0  502  503 -0.00000000000E+00 -0.00000000000E+00 -0.25446637136E+03  0.25446637136E+03  0.00000000000E+00 0. -1.
         -6    2    1    2    0  503 -0.67833928803E+02 -0.14007566431E+03 -0.14501407239E+03  0.27454639092E+03  0.17356268593E+03 0.  0.
        -24    2    3    3    0    0 -0.99062107990E+02 -0.13937675634E+03 -0.15222389764E+03  0.24214640283E+03  0.78889694795E+02 0.  0.
          6    2    1    2  501    0  0.67833928803E+02  0.14007566431E+03  0.26549631521E+03  0.35486859464E+03  0.17669406452E+03 0.  0.
         24    2    5    5    0    0  0.31566000516E+02  0.15745344348E+03  0.15230682837E+03  0.23465503565E+03  0.77959069618E+02 0.  0.
          5    1    5    5  501    0  0.36267928287E+02 -0.17377779171E+02  0.11318948685E+03  0.12021355899E+03  0.47000000000E+01 0. -1.
        -11    1    6    6    0    0  0.52048668083E+02  0.67322808579E+02  0.60750056459E+02  0.10455617516E+03  0.00000000000E+00 0.  1.
         12    1    6    6    0    0 -0.20482667567E+02  0.90130634903E+02  0.91556771908E+02  0.13009886049E+03  0.00000000000E+00 0. -1.
         -5    1    3    3    0  503  0.31228179187E+02 -0.69890797030E+00  0.72098252529E+01  0.32399988085E+02  0.47000000000E+01 0.  1.
         11    1    4    4    0    0 -0.62275953605E+02 -0.33704730324E+02 -0.31372747566E+02  0.77450323004E+02  0.00000000000E+00 0. -1.
        -12    1    4    4    0    0 -0.36786154385E+02 -0.10567202602E+03 -0.12085115007E+03  0.16469607983E+03  0.00000000000E+00 0.  1.
</event>
<event>
12    1  0.8226261E-002  0.1911068E+03  0.7818608E-02  0.1157675E+00
         21   -1    0    0  503  502  0.00000000000E+00  0.00000000000E+00  0.28969335098E+03  0.28969335098E+03  0.00000000000E+00 0.  1.
         21   -1    0    0  501  503 -0.00000000000E+00 -0.00000000000E+00 -0.31679800924E+03  0.31679800924E+03  0.00000000000E+00 0.  1.
          6    2    1    2  501    0 -0.14155450491E+02 -0.79062691670E+02 -0.24923513609E+03  0.31406998096E+03  0.17340851735E+03 0.  0.
         24    2    3    3    0    0 -0.30521585584E+02 -0.82243866317E+01 -0.54215895994E+02  0.10588614431E+03  0.85283670511E+02 0.  0.
         -6    2    1    2    0  502  0.14155450491E+02  0.79062691670E+02  0.22213047783E+03  0.29242137925E+03  0.17238627518E+03 0.  0.
        -24    2    5    5    0    0  0.55805136880E+02  0.75859470823E+02  0.88654606447E+02  0.15248262393E+03  0.80761616751E+02 0.  0.
          5    1    3    3  501    0  0.16366135093E+02 -0.70838305039E+02 -0.19501924009E+03  0.20818383666E+03  0.47000000000E+01 0. -1.
        -13    1    4    4    0    0 -0.57620817160E+02 -0.15374441100E+02 -0.49419539808E+02  0.77452068560E+02  0.00000000000E+00 0.  1.
         14    1    4    4    0    0  0.27099231576E+02  0.71500544684E+01 -0.47963561857E+01  0.28434075747E+02  0.00000000000E+00 0. -1.
         -5    1    5    5    0  502 -0.41649686389E+02  0.32032208470E+01  0.13347587138E+03  0.13993875533E+03  0.47000000000E+01 0.  1.
         13    1    6    6    0    0  0.71771003710E+02  0.66066737560E+02  0.91247782398E+02  0.13357413139E+03  0.00000000000E+00 0. -1.
        -14    1    6    6    0    0 -0.15965866830E+02  0.97927332633E+01 -0.25931759508E+01  0.18908492534E+02  0.00000000000E+00 0.  1.
</event>
<event>
12    1  0.8226261E-002  0.1924934E+03  0.7818608E-02  0.1156283E+00
         21   -1    0    0  503  502  0.00000000000E+00  0.00000000000E+00  0.41895279046E+03  0.41895279046E+03  0.00000000000E+00 0.  1.
         21   -1    0    0  501  503 -0.00000000000E+00 -0.00000000000E+00 -0.16299777917E+03  0.16299777917E+03  0.00000000000E+00 0.  1.
          6    2    1    2  501    0  0.34116492966E+02 -0.79131818215E+02 -0.68994983201E+02  0.20426522019E+03  0.17186678773E+03 0.  0.
         24    2    3    3    0    0  0.13456782727E+02 -0.98150832176E+02  0.25555792043E+01  0.12725795105E+03  0.79833478330E+02 0.  0.
         -6    2    1    2    0  502 -0.34116492966E+02  0.79131818215E+02  0.32494999450E+03  0.37768534944E+03  0.17212769827E+03 0.  0.
        -24    2    5    5    0    0  0.77872852513E+01  0.11110515177E+03  0.25169583260E+03  0.28731675466E+03  0.82432571228E+02 0.  0.
          5    1    3    3  501    0  0.20659710239E+02  0.19019013960E+02 -0.71550562406E+02  0.77007269136E+02  0.47000000000E+01 0. -1.
        -11    1    4    4    0    0  0.42389765581E+02 -0.82804354462E+02  0.10333092124E+02  0.93596079708E+02  0.00000000000E+00 0.  1.
         12    1    4    4    0    0 -0.28932982854E+02 -0.15346477714E+02 -0.77775129197E+01  0.33661871342E+02  0.00000000000E+00 0. -1.
         -5    1    5    5    0  502 -0.41903778218E+02 -0.31973333553E+02  0.73254161896E+02  0.90368594780E+02  0.47000000000E+01 0.  1.
         11    1    6    6    0    0  0.25272904597E+02  0.12519727905E+02  0.19034349678E+02  0.34026015948E+02  0.00000000000E+00 0. -1.
        -12    1    6    6    0    0 -0.17485619346E+02  0.98585423864E+02  0.23266148292E+03  0.25329073871E+03  0.00000000000E+00 0.  1.
</event>
<event>
12    1  0.8226261E-002  0.1828613E+03  0.7818608E-02  0.1165156E+00
         21   -1    0    0  503  502  0.00000000000E+00  0.00000000000E+00  0.44128053076E+03  0.44128053076E+03  0.00000000000E+00 0.  1.
         21   -1    0    0  501  503 -0.00000000000E+00 -0.00000000000E+00 -0.46430928115E+03  0.46430928115E+03  0.00000000000E+00 0.  1.
          6    2    1    2  501    0  0.45397636366E+02  0.47544810744E+02 -0.42580570864E+03  0.46340993562E+03  0.17063649230E+03 0.  0.
         24    2    3    3    0    0  0.34105442878E+02  0.86359917665E+02 -0.20403592390E+03  0.23793698030E+03  0.79762972223E+02 0.  0.
         -6    2    1    2    0  502 -0.45397636366E+02 -0.47544810744E+02  0.40277695826E+03  0.44217987628E+03  0.17021254498E+03 0.  0.
        -24    2    5    5    0    0 -0.31042488429E+02  0.16302751833E+02  0.34045770170E+03  0.35169031193E+03  0.80902490998E+02 0.  0.
          5    1    3    3  501    0  0.11292193488E+02 -0.38815106922E+02 -0.22176978474E+03  0.22547295533E+03  0.47000000000E+01 0. -1.
        -11    1    4    4    0    0 -0.23319611295E+02  0.47753476795E+02 -0.84737557997E+02  0.10002326006E+03  0.00000000000E+00 0.  1.
         12    1    4    4    0    0  0.57425054173E+02  0.38606440871E+02 -0.11929836590E+03  0.13791372024E+03  0.00000000000E+00 0. -1.
         -5    1    5    5    0  502 -0.14355147938E+02 -0.63847562577E+02  0.62319256557E+02  0.90489564355E+02  0.47000000000E+01 0.  1.
         13    1    6    6    0    0 -0.23982067466E+02  0.27642813172E+02  0.55866111420E+02  0.66785380774E+02  0.00000000000E+00 0. -1.
        -14    1    6    6    0    0 -0.70604209622E+01 -0.11340061339E+02  0.28459159028E+03  0.28490493115E+03  0.00000000000E+00 0.  1.
</event>
<event>
12    1  0.8226261E-002  0.2598152E+03  0.7818608E-02  0.1109777E+00
         21   -1    0    0  503  502  0.00000000000E+00  0.00000000000E+00  0.16831121130E+03  0.16831121130E+03  0.00000000000E+00 0.  1.
         21   -1    0    0  501  503 -0.00000000000E+00 -0.00000000000E+00 -0.39133614925E+03  0.39133614925E+03  0.00000000000E+00 0.  1.
          6    2    1    2  501    0 -0.73274211668E+02 -0.15642397807E+03 -0.16265061119E+03  0.29290968761E+03  0.17176522572E+03 0.  0.
         24    2    3    3    0    0 -0.88517703200E+02 -0.17546304517E+03 -0.16595621930E+03  0.26785241013E+03  0.74704637664E+02 0.  0.
         -6    2    1    2    0  502  0.73274211668E+02  0.15642397807E+03 -0.60374326756E+02  0.26673767293E+03  0.19407822088E+03 0.  0.
        -24    2    5    5    0    0  0.59573011064E+02  0.59771373807E+02  0.43892226811E+02  0.12382842550E+03  0.79280455433E+02 0.  0.
          5    1    3    3  501    0  0.15243491533E+02  0.19039067098E+02  0.33056081065E+01  0.25057277486E+02  0.47000000000E+01 0. -1.
        -13    1    4    4    0    0 -0.97949915422E+02 -0.12673141335E+03 -0.11916106024E+03  0.19963565648E+03  0.00000000000E+00 0.  1.
         14    1    4    4    0    0  0.94322122218E+01 -0.48731631821E+02 -0.46795159053E+02  0.68216753647E+02  0.00000000000E+00 0. -1.
         -5    1    5    5    0  502  0.13701200604E+02  0.96652604263E+02 -0.10426655357E+03  0.14290924743E+03  0.47000000000E+01 0.  1.
         11    1    6    6    0    0 -0.14046467430E+02 -0.55811196132E+01  0.14857228733E+02  0.21194088540E+02  0.00000000000E+00 0. -1.
        -12    1    6    6    0    0  0.73619478494E+02  0.65352493420E+02  0.29034998078E+02  0.10263433696E+03  0.00000000000E+00 0.  1.
</event>
<event>
12    1  0.8226261E-002  0.2062406E+03  0.7818608E-02  0.1144866E+00
         21   -1    0    0  501  502  0.00000000000E+00  0.00000000000E+00  0.17043108607E+04  0.17043108607E+04  0.00000000000E+00 0. -1.
         21   -1    0    0  502  503 -0.00000000000E+00 -0.00000000000E+00 -0.66318731912E+02  0.66318731912E+02  0.00000000000E+00 0.  1.
         -6    2    1    2    0  503  0.24380934898E+02  0.10890720388E+03  0.11944691118E+03  0.23833327345E+03  0.17343579676E+03 0.  0.
        -24    2    3    3    0    0 -0.49374097859E+02  0.43457000112E+02  0.84077814043E+02  0.13346861275E+03  0.80115412862E+02 0.  0.
          6    2    1    2  501    0 -0.24380934898E+02 -0.10890720388E+03  0.15185452177E+04  0.15322963192E+04  0.17174755529E+03 0.  0.
         24    2    5    5    0    0 -0.51334911536E+02 -0.67589482154E+02  0.13913156219E+04  0.13957564678E+04  0.71925978834E+02 0.  0.
          5    1    5    5  501    0  0.26953976638E+02 -0.41317721731E+02  0.12722959576E+03  0.13653985141E+03  0.47000000000E+01 0. -1.
        -11    1    6    6    0    0  0.72870981651E+01 -0.17988942901E+02  0.85084620616E+02  0.87270249981E+02  0.00000000000E+00 0.  1.
         12    1    6    6    0    0 -0.58622009701E+02 -0.49600539253E+02  0.13062310013E+04  0.13084862178E+04  0.00000000000E+00 0. -1.
         -5    1    3    3    0  503  0.73755032757E+02  0.65450203772E+02  0.35369097135E+02  0.10486466070E+03  0.47000000000E+01 0.  1.
         11    1    4    4    0    0 -0.15467294555E+02  0.55234999109E+02  0.78377627199E+02  0.97124635251E+02  0.00000000000E+00 0. -1.
        -12    1    4    4    0    0 -0.33906803304E+02 -0.11777998996E+02  0.57001868444E+01  0.36343977503E+02  0.00000000000E+00 0.  1.
</event>
<event>
12    1  0.8226261E-002  0.2553537E+03  0.7818608E-02  0.1110076E+00
         21   -1    0    0  501  502  0.00000000000E+00  0.00000000000E+00  0.20646833468E+03  0.20646833468E+03  0.00000000000E+00 0. -1.
         21   -1    0    0  502  503 -0.00000000000E+00 -0.00000000000E+00 -0.35913254661E+03  0.35913254661E+03  0.00000000000E+00 0. -1.
         -6    2    1    2    0  503  0.42856961609E+02  0.18332156922E+03  0.22773723971E+02  0.25636727104E+03  0.17251671878E+03 0.  0.
        -24    2    3    3    0    0  0.15458417943E+02  0.20205733978E+03  0.43071135645E+01  0.21809436948E+03  0.80501375927E+02 0.  0.
          6    2    1    2  501    0 -0.42856961609E+02 -0.18332156922E+03 -0.17543793591E+03  0.30923361025E+03  0.17147431135E+03 0.  0.
         24    2    5    5    0    0  0.27786505479E+02 -0.40609487278E+02 -0.68366238862E+02  0.11728654441E+03  0.81614769132E+02 0.  0.
          5    1    5    5  501    0 -0.70643467088E+02 -0.14271208194E+03 -0.10707169704E+03  0.19194706583E+03  0.47000000000E+01 0. -1.
        -11    1    6    6    0    0  0.53467678935E+01  0.19323773702E+02 -0.44812455147E+02  0.49093301919E+02  0.00000000000E+00 0.  1.
         12    1    6    6    0    0  0.22439737586E+02 -0.59933260980E+02 -0.23553783715E+02  0.68193242494E+02  0.00000000000E+00 0. -1.
         -5    1    3    3    0  503  0.27398543666E+02 -0.18735770566E+02  0.18466610407E+02  0.38272901557E+02  0.47000000000E+01 0.  1.
         13    1    4    4    0    0  0.45982385153E+02  0.14486471534E+03  0.13637849023E+02  0.15259802234E+03  0.00000000000E+00 0. -1.
        -14    1    4    4    0    0 -0.30523967211E+02  0.57192624441E+02 -0.93307354589E+01  0.65496347142E+02  0.00000000000E+00 0.  1.
</event>
<event>
12    1  0.8226261E-002  0.2328715E+03  0.7818608E-02  0.1124762E+00
         21   -1    0    0  501  502  0.00000000000E+00  0.00000000000E+00  0.25098176196E+03  0.25098176196E+03  0.00000000000E+00 0. -1.
         21   -1    0    0  502  503 -0.00000000000E+00 -0.00000000000E+00 -0.34892968730E+03  0.34892968730E+03  0.00000000000E+00 0.  1.
         -6    2    1    2    0  503 -0.15418519071E+03  0.25841170892E+02 -0.23449026274E+03  0.32996151276E+03  0.17160442137E+03 0.  0.
        -24    2    3    3    0    0 -0.18064634805E+03  0.24947993818E+02 -0.17502909719E+03  0.26470271395E+03  0.78592852424E+02 0.  0.
          6    2    1    2  501    0  0.15418519071E+03 -0.25841170892E+02  0.13654233739E+03  0.26994993650E+03  0.17259292908E+03 0.  0.
         24    2    5    5    0    0  0.57797519079E+02  0.29312729980E+02  0.13806886994E+02  0.10436425835E+03  0.80631748973E+02 0.  0.
          5    1    5    5  501    0  0.96387671629E+02 -0.55153900872E+02  0.12273545040E+03  0.16558567815E+03  0.47000000000E+01 0. -1.
        -11    1    6    6    0    0  0.21227597474E+02 -0.28119209021E+02  0.22507914746E+01  0.35303921492E+02  0.00000000000E+00 0.  1.
         12    1    6    6    0    0  0.36569921605E+02  0.57431939001E+02  0.11556095519E+02  0.69060336860E+02  0.00000000000E+00 0. -1.
         -5    1    3    3    0  503  0.26461157338E+02  0.89317707470E+00 -0.59461165546E+02  0.65258798802E+02  0.47000000000E+01 0.  1.
         11    1    4    4    0    0 -0.18737079137E+02  0.26765305111E+02 -0.11669616755E+02  0.34693510164E+02  0.00000000000E+00 0. -1.
        -12    1    4    4    0    0 -0.16190926891E+03 -0.18173112931E+01 -0.16335948044E+03  0.23000920379E+03  0.00000000000E+00 0.  1.
</event>
<event>
12    1  0.8226261E-002  0.2314023E+03  0.7818608E-02  0.1125710E+00
         21   -1    0    0  501  502  0.00000000000E+00  0.00000000000E+00  0.39593872978E+03  0.39593872978E+03  0.00000000000E+00 0.  1.
         21   -1    0    0  502  503 -0.00000000000E+00 -0.00000000000E+00 -0.22379700112E+03  0.22379700112E+03  0.00000000000E+00 0.  1.
         -6    2    1    2    0  503 -0.55920761770E+02  0.14461661067E+03 -0.10901382896E+03  0.25579495816E+03  0.17177296072E+03 0.  0.
        -24    2    3    3    0    0 -0.79541473351E+02  0.61957558802E+02 -0.15378506472E+02  0.12859385561E+03  0.78321747711E+02 0.  0.
          6    2    1    2  501    0  0.55920761770E+02 -0.14461661067E+03  0.28115555762E+03  0.36394077274E+03  0.17135735409E+03 0.  0.
         24    2    5    5    0    0  0.25629720603E+02 -0.92118076784E+01  0.59230860010E+02  0.10216860222E+03  0.78666311236E+02 0.  0.
          5    1    5    5  501    0  0.30291041167E+02 -0.13540480299E+03  0.22192469761E+03  0.26177217052E+03  0.47000000000E+01 0. -1.
        -13    1    6    6    0    0  0.42199519496E+02 -0.32846367963E+02  0.45459941194E+02  0.70187531566E+02  0.00000000000E+00 0.  1.
         14    1    6    6    0    0 -0.16569798893E+02  0.23634560284E+02  0.13770918817E+02  0.31981070655E+02  0.00000000000E+00 0. -1.
         -5    1    3    3    0  503  0.23620711581E+02  0.82659051866E+02 -0.93635322489E+02  0.12720110254E+03  0.47000000000E+01 0.  1.
         13    1    4    4    0    0 -0.12948474093E+02 -0.18671812330E+02 -0.65520190174E+01  0.23648012817E+02  0.00000000000E+00 0. -1.
        -14    1    4    4    0    0 -0.66592999258E+02  0.80629371132E+02 -0.88264874545E+01  0.10494584280E+03  0.00000000000E+00 0.  1.
</event>
<event>
12    1  0.8226261E-002  0.2539277E+03  0.7818608E-02  0.1111207E+00
         21   -1    0    0  501  502  0.00000000000E+00  0.00000000000E+00  0.19117698037E+04  0.19117698037E+04  0.00000000000E+00 0. -1.
         21   -1    0    0  502  503 -0.00000000000E+00 -0.00000000000E+00 -0.51420950090E+02  0.51420950090E+02  0.00000000000E+00 0.  1.
         -6    2    1    2    0  503  0.28047936375E+01 -0.18383641488E+03  0.34666005248E+03  0.42835100188E+03  0.17177803852E+03 0.  0.
        -24    2    3    3    0    0 -0.66654335941E+02 -0.11121088207E+03  0.22372534607E+03  0.26949864672E+03  0.75933058150E+02 0.  0.
          6    2    1    2  501    0 -0.28047936375E+01  0.18383641488E+03  0.15136888011E+04  0.15348397519E+04  0.17514446344E+03 0.  0.
         24    2    5    5    0    0  0.51511657923E+02  0.46684027851E+02  0.61230738993E+03  0.62145506153E+03  0.80331839083E+02 0.  0.
          5    1    5    5  501    0 -0.54316451560E+02  0.13715238703E+03  0.90138141115E+03  0.91338469034E+03  0.47000000000E+01 0. -1.
        -13    1    6    6    0    0  0.47182783209E+02 -0.54531525766E+01  0.18681303802E+03  0.19275648648E+03  0.00000000000E+00 0.  1.
         14    1    6    6    0    0  0.43288747136E+01  0.52137180428E+02  0.42549435191E+03  0.42869857505E+03  0.00000000000E+00 0. -1.
         -5    1    3    3    0  503  0.69459129579E+02 -0.72625532815E+02  0.12293470641E+03  0.15885235516E+03  0.47000000000E+01 0.  1.
         13    1    4    4    0    0 -0.72682925714E+02 -0.52808335160E+02  0.15455053112E+03  0.17876631288E+03  0.00000000000E+00 0. -1.
        -14    1    4    4    0    0  0.60285897723E+01 -0.58402546910E+02  0.69174814948E+02  0.90732333836E+02  0.00000000000E+00 0.  1.
</event>
<event>
12    1  0.8226261E-002  0.2208571E+03  0.7818608E-02  0.1133380E+00
         21   -1    0    0  503  502  0.00000000000E+00  0.00000000000E+00  0.16168996519E+03  0.16168996519E+03  0.00000000000E+00 0. -1.
         21   -1    0    0  501  503 -0.00000000000E+00 -0.00000000000E+00 -0.36458514820E+03  0.36458514820E+03  0.00000000000E+00 0. -1.
          6    2    1    2  501    0  0.12883529437E+03 -0.48518570104E+02 -0.21146771256E+03  0.30525168362E+03  0.17177721670E+03 0.  0.
         24    2    3    3    0    0  0.32311366343E+02  0.28174533207E+02 -0.62117164845E+02  0.11153442347E+03  0.82119161796E+02 0.  0.
         -6    2    1    2    0  502 -0.12883529437E+03  0.48518570104E+02  0.85725295592E+01  0.22102342976E+03  0.17269998124E+03 0.  0.
        -24    2    5    5    0    0 -0.15748652096E+03  0.63338974610E+02  0.25301928090E+01  0.18787019450E+03  0.80467248717E+02 0.  0.
          5    1    3    3  501    0  0.96523928028E+02 -0.76693103311E+02 -0.14935054772E+03  0.19371726015E+03  0.47000000000E+01 0. -1.
        -11    1    4    4    0    0 -0.17487063622E+02 -0.15849558105E+02 -0.55276577058E+01  0.24239655236E+02  0.00000000000E+00 0.  1.
         12    1    4    4    0    0  0.49798429965E+02  0.44024091312E+02 -0.56589507139E+02  0.87294768234E+02  0.00000000000E+00 0. -1.
         -5    1    5    5    0  502  0.28651226592E+02 -0.14820404506E+02  0.60423367502E+01  0.33153235263E+02  0.47000000000E+01 0.  1.
         13    1    6    6    0    0 -0.40682322946E+02 -0.75466063118E+00  0.31579809286E+02  0.51506361428E+02  0.00000000000E+00 0. -1.
        -14    1    6    6    0    0 -0.11680419802E+03  0.64093635241E+02 -0.29049616477E+02  0.13636383307E+03  0.00000000000E+00 0.  1.
</event>
<event>
12    1  0.8226261E-002  0.2681662E+03  0.7818608E-02  0.1102398E+00
         21   -1    0    0  501  502  0.00000000000E+00  0.00000000000E+00  0.11571232686E+04  0.11571232686E+04  0.00000000000E+00 0. -1.
         21   -1    0    0  502  503 -0.00000000000E+00 -0.00000000000E+00 -0.66195182380E+02  0.66195182380E+02  0.00000000000E+00 0.  1.
         -6    2    1    2    0  503  0.20514286805E+03 -0.21796766618E+02  0.69819690812E+03  0.74776520688E+03  0.17063172852E+03 0.  0.
        -24    2    3    3    0    0  0.10887742113E+03 -0.19566264996E+02  0.57726845054E+03  0.59311142173E+03  0.79405056834E+02 0.  0.
          6    2    1    2  501    0 -0.20514286805E+03  0.21796766618E+02  0.39273117806E+03  0.47555324405E+03  0.17133130001E+03 0.  0.
         24    2    5    5    0    0 -0.85084075979E+02  0.64772125416E+02  0.25760040793E+03  0.28969466865E+03  0.78296249332E+02 0.  0.
          5    1    5    5  501    0 -0.12005879207E+03 -0.42975358798E+02  0.13513077012E+03  0.18585857540E+03  0.47000000000E+01 0. -1.
        -11    1    6    6    0    0 -0.23989688254E+02  0.22465318480E+02  0.15297185150E+02  0.36251890301E+02  0.00000000000E+00 0.  1.
         12    1    6    6    0    0 -0.61094387726E+02  0.42306806937E+02  0.24230322279E+03  0.25344277835E+03  0.00000000000E+00 0. -1.
         -5    1    3    3    0  503  0.96265446919E+02 -0.22305016226E+01  0.12092845758E+03  0.15465378515E+03  0.47000000000E+01 0.  1.
         11    1    4    4    0    0  0.89238454454E+02 -0.18309242636E+02  0.26494964271E+03  0.28017323800E+03  0.00000000000E+00 0. -1.
        -12    1    4    4    0    0  0.19638966672E+02 -0.12570223599E+01  0.31231880783E+03  0.31293818374E+03  0.00000000000E+00 0.  1.
</event>
<event>
12    1  0.8226261E-002  0.3622314E+03  0.7818608E-02  0.1057744E+00
         21   -1    0    0  501  502  0.00000000000E+00  0.00000000000E+00  0.66685282799E+03  0.66685282799E+03  0.00000000000E+00 0. -1.
         21   -1    0    0  502  503 -0.00000000000E+00 -0.00000000000E+00 -0.20213475801E+03  0.20213475801E+03  0.00000000000E+00 0. -1.
         -6    2    1    2    0  503 -0.10522898689E+03  0.30017947607E+03  0.16019563629E+03  0.39607354724E+03  0.17329384120E+03 0.  0.
        -24    2    3    3    0    0 -0.84450657999E+02  0.31389223496E+03  0.13671740620E+03  0.36153232555E+03  0.79710253096E+02 0.  0.
          6    2    1    2  501    0  0.10522898689E+03 -0.30017947607E+03  0.30452243369E+03  0.47291403877E+03  0.17243235748E+03 0.  0.
         24    2    5    5    0    0  0.32784321638E+02 -0.66413400055E+02  0.51244478823E+02  0.12068311985E+03  0.80329741408E+02 0.  0.
          5    1    5    5  501    0  0.72444665254E+02 -0.23376607602E+03  0.25327795486E+03  0.35223091892E+03  0.47000000000E+01 0. -1.
        -11    1    6    6    0    0  0.29269704386E+02 -0.80897315601E+00  0.46321920533E+02  0.54800459435E+02  0.00000000000E+00 0.  1.
         12    1    6    6    0    0  0.35146172526E+01 -0.65604426899E+02  0.49225582894E+01  0.65882660415E+02  0.00000000000E+00 0. -1.
         -5    1    3    3    0  503 -0.20778328893E+02 -0.13712758891E+02  0.23478230090E+02  0.34541221694E+02  0.47000000000E+01 0.  1.
         13    1    4    4    0    0 -0.38256418035E+02  0.10764269382E+03  0.89096377492E+02  0.14487466147E+03  0.00000000000E+00 0. -1.
        -14    1    4    4    0    0 -0.46194239964E+02  0.20624954114E+03  0.47621028711E+02  0.21665766407E+03  0.00000000000E+00 0.  1.
</event>
<event>
12    1  0.8226261E-002  0.2393553E+03  0.7818608E-02  0.1120465E+00
         21   -1    0    0  501  502  0.00000000000E+00  0.00000000000E+00  0.13151864786E+03  0.13151864786E+03  0.00000000000E+00 0. -1.
         21   -1    0    0  502  503 -0.00000000000E+00 -0.00000000000E+00 -0.57970228056E+03  0.57970228056E+03  0.00000000000E+00 0.  1.
         -6    2    1    2    0  503  0.63323465245E+02 -0.15375453936E+03 -0.40248541784E+03  0.46754227717E+03  0.17014978620E+03 0.  0.
        -24    2    3    3    0    0  0.84689952462E+02 -0.14838491248E+03 -0.39955823536E+03  0.44482624614E+03  0.95042808840E+02 0.  0.
          6    2    1    2  501    0 -0.63323465245E+02  0.15375453936E+03 -0.45698214848E+02  0.24367865125E+03  0.17216456839E+03 0.  0.
         24    2    5    5    0    0 -0.50973472799E+02  0.95669552230E+02  0.39912561632E+02  0.13938251952E+03  0.77996897500E+02 0.  0.
          5    1    5    5  501    0 -0.12349992447E+02  0.58084987127E+02 -0.85610776480E+02  0.10429613172E+03  0.47000000000E+01 0. -1.
        -11    1    6    6    0    0 -0.16251241402E+02 -0.33724955336E+01 -0.13707766956E+02  0.21526250211E+02  0.00000000000E+00 0.  1.
         12    1    6    6    0    0 -0.34722231397E+02  0.99042047764E+02  0.53620328588E+02  0.11785626931E+03  0.00000000000E+00 0. -1.
         -5    1    3    3    0  503 -0.21366487216E+02 -0.53696268757E+01 -0.29271824875E+01  0.22716031037E+02  0.47000000000E+01 0.  1.
         13    1    4    4    0    0  0.68321530891E+02 -0.59431278776E+02 -0.11580049487E+03  0.14700225540E+03  0.00000000000E+00 0. -1.
        -14    1    4    4    0    0  0.16368421571E+02 -0.88953633705E+02 -0.28375774048E+03  0.29782399074E+03  0.00000000000E+00 0.  1.
</event>
<event>
12    1  0.8226261E-002  0.3488113E+03  0.7818608E-02  0.1063250E+00
         21   -1    0    0  503  502  0.00000000000E+00  0.00000000000E+00  0.22099951363E+03  0.22099951363E+03  0.00000000000E+00 0. -1.
         21   -1    0    0  501  503 -0.00000000000E+00 -0.00000000000E+00 -0.59592029844E+03  0.59592029844E+03  0.00000000000E+00 0.  1.
          6    2    1    2  501    0 -0.23543291422E+03  0.18664451332E+03 -0.30326145957E+03  0.46220864090E+03  0.17721310171E+03 0.  0.
         24    2    3    3    0    0 -0.16229729191E+03  0.40709765203E+02 -0.18454616083E+03  0.26031465359E+03  0.75556187394E+02 0.  0.
         -6    2    1    2    0  502  0.23543291422E+03 -0.18664451332E+03 -0.71659325242E+02  0.35471117117E+03  0.17441365946E+03 0.  0.
        -24    2    5    5    0    0  0.50873829413E+02 -0.25136572389E+02 -0.44888545382E+02  0.10796102340E+03  0.80128691970E+02 0.  0.
          5    1    3    3  501    0 -0.73135622306E+02  0.14593474812E+03 -0.11871529874E+03  0.20189398731E+03  0.47000000000E+01 0. -1.
        -11    1    4    4    0    0 -0.85501047927E+02  0.31812290432E+02 -0.15016540263E+03  0.17570457924E+03  0.00000000000E+00 0.  1.
         12    1    4    4    0    0 -0.76796243983E+02  0.88974747706E+01 -0.34380758198E+02  0.84610074349E+02  0.00000000000E+00 0. -1.
         -5    1    5    5    0  502  0.18455908480E+03 -0.16150794093E+03 -0.26770779861E+02  0.24675014776E+03  0.47000000000E+01 0.  1.
         11    1    6    6    0    0  0.58379362087E+02 -0.26057232363E+02 -0.15309791331E+01  0.63948988837E+02  0.00000000000E+00 0. -1.
        -12    1    6    6    0    0 -0.75055326741E+01  0.92065997436E+00 -0.43357566249E+02  0.44012034565E+02  0.00000000000E+00 0.  1.
</event>
<event>
12    1  0.8226261E-002  0.2283629E+03  0.7818608E-02  0.1129003E+00
         21   -1    0    0  503  502  0.00000000000E+00  0.00000000000E+00  0.56897977820E+02  0.56897977820E+02  0.00000000000E+00 0.  1.
         21   -1    0    0  501  503 -0.00000000000E+00 -0.00000000000E+00 -0.25628896791E+04  0.25628896791E+04  0.00000000000E+00 0.  1.
          6    2    1    2  501    0 -0.13974109489E+03 -0.12025492925E+02 -0.23048089803E+04  0.23154455506E+04  0.17167258274E+03 0.  0.
         24    2    3    3    0    0 -0.88701180265E+02  0.59615344526E+02 -0.14303179388E+04  0.14365290845E+04  0.79903166651E+02 0.  0.
         -6    2    1    2    0  502  0.13974109489E+03  0.12025492925E+02 -0.20118272091E+03  0.30434210633E+03  0.18021499497E+03 0.  0.
        -24    2    5    5    0    0  0.13413674084E+02  0.35367041982E+02 -0.12878085867E+03  0.15680375601E+03  0.81068822788E+02 0.  0.
          5    1    3    3  501    0 -0.51039914623E+02 -0.71640837451E+02 -0.87449104158E+03  0.87891646604E+03  0.47000000000E+01 0. -1.
        -13    1    4    4    0    0 -0.10112980630E+03  0.60330993803E+02 -0.13623904666E+04  0.13674702373E+04  0.00000000000E+00 0.  1.
         14    1    4    4    0    0  0.12428626035E+02 -0.71564927671E+00 -0.67927472175E+02  0.69058847189E+02  0.00000000000E+00 0. -1.
         -5    1    5    5    0  502  0.12632742080E+03 -0.23341549057E+02 -0.72401862240E+02  0.14753835032E+03  0.47000000000E+01 0.  1.
         11    1    6    6    0    0  0.13280162297E+02 -0.10264186318E+02 -0.10306957419E+03  0.10442726346E+03  0.00000000000E+00 0. -1.
        -12    1    6    6    0    0  0.13351178661E+00  0.45631228300E+02 -0.25711284477E+02  0.52376492542E+02  0.00000000000E+00 0.  1.
</event>
<event>
12    1  0.8226261E-002  0.1978892E+03  0.7818608E-02  0.1151710E+00
         21   -1    0    0  501  502  0.00000000000E+00  0.00000000000E+00  0.41701360677E+02  0.41701360677E+02  0.00000000000E+00 0.  1.
         21   -1    0    0  502  503 -0.00000000000E+00 -0.00000000000E+00 -0.15876616647E+04  0.15876616647E+04  0.00000000000E+00 0.  1.
         -6    2    1    2    0  503  0.94266914537E+02  0.12538968468E+02 -0.12962292565E+04  0.13112476583E+04  0.17354152021E+03 0.  0.
        -24    2    3    3    0    0  0.10877081332E+03  0.73833923021E+01 -0.60343240567E+03  0.61826388542E+03  0.78955427181E+02 0.  0.
          6    2    1    2  501    0 -0.94266914537E+02 -0.12538968468E+02 -0.24973104756E+03  0.31811536706E+03  0.17259291334E+03 0.  0.
         24    2    5    5    0    0 -0.86713391621E+02  0.24086104986E+02 -0.74427176079E+02  0.13880560974E+03  0.75021596991E+02 0.  0.
          5    1    5    5  501    0 -0.75535229158E+01 -0.36625073454E+02 -0.17530387149E+03  0.17930975732E+03  0.47000000000E+01 0. -1.
        -13    1    6    6    0    0 -0.88550646369E+02 -0.36461812860E+01 -0.63095074528E+02  0.10879108438E+03  0.00000000000E+00 0.  1.
         14    1    6    6    0    0  0.18372547478E+01  0.27732286272E+02 -0.11332101551E+02  0.30014525358E+02  0.00000000000E+00 0. -1.
         -5    1    3    3    0  503 -0.14503898783E+02  0.51555761657E+01 -0.69279685078E+03  0.69298377289E+03  0.47000000000E+01 0.  1.
         13    1    4    4    0    0  0.64162235334E+02  0.68815644656E+01 -0.15896792046E+03  0.17156616248E+03  0.00000000000E+00 0. -1.
        -14    1    4    4    0    0  0.44608577986E+02  0.50182783644E+00 -0.44446448521E+03  0.44669772294E+03  0.00000000000E+00 0.  1.
</event>
<event>
12    1  0.8226261E-002  0.1929250E+03  0.7818608E-02  0.1157916E+00
         21   -1    0    0  503  502  0.00000000000E+00  0.00000000000E+00  0.63110997342E+02  0.63110997342E+02  0.00000000000E+00 0. -1.
         21   -1    0    0  501  503 -0.00000000000E+00 -0.00000000000E+00 -0.57220828936E+03  0.57220828936E+03  0.00000000000E+00 0. -1.
          6    2    1    2  501    0 -0.23984004154E+02  0.63461841404E+02 -0.30253427925E+03  0.35881340785E+03  0.18060297274E+03 0.  0.
         24    2    3    3    0    0  0.45290203339E+02  0.52214707492E+02 -0.10196561927E+03  0.14626860973E+03  0.78866599273E+02 0.  0.
         -6    2    1    2    0  502  0.23984004154E+02 -0.63461841404E+02 -0.20656301278E+03  0.27650587886E+03  0.17083496430E+03 0.  0.
        -24    2    5    5    0    0  0.39327368299E+02 -0.10364371734E+03 -0.12686557002E+03  0.18582085055E+03  0.78395494784E+02 0.  0.
          5    1    3    3  501    0 -0.69274207492E+02  0.11247133912E+02 -0.20056865997E+03  0.21254479812E+03  0.47000000000E+01 0. -1.
        -13    1    4    4    0    0 -0.12160634220E+00  0.55891905265E+02 -0.74267618968E+02  0.92949443729E+02  0.00000000000E+00 0.  1.
         14    1    4    4    0    0  0.45411809681E+02 -0.36771977726E+01 -0.27698000306E+02  0.53319166000E+02  0.00000000000E+00 0. -1.
         -5    1    5    5    0  502 -0.15343364145E+02  0.40181875934E+02 -0.79697442755E+02  0.90685028304E+02  0.47000000000E+01 0.  1.
         13    1    6    6    0    0  0.24424909466E+02 -0.54515467006E+02 -0.11997163645E+03  0.13402128897E+03  0.00000000000E+00 0. -1.
        -14    1    6    6    0    0  0.14902458833E+02 -0.49128250332E+02 -0.68939335723E+01  0.51799561582E+02  0.00000000000E+00 0.  1.
</event>
<event>
12    1  0.8226261E-002  0.1997956E+03  0.7818608E-02  0.1154048E+00
         21   -1    0    0  503  502  0.00000000000E+00  0.00000000000E+00  0.43974708679E+03  0.43974708679E+03  0.00000000000E+00 0.  1.
         21   -1    0    0  501  503 -0.00000000000E+00 -0.00000000000E+00 -0.18640288835E+03  0.18640288835E+03  0.00000000000E+00 0.  1.
          6    2    1    2  501    0  0.52906943841E+02 -0.22384441428E+02 -0.10418109311E+03  0.22532638770E+03  0.19135849317E+03 0.  0.
         24    2    3    3    0    0  0.39749684376E+02  0.12735607680E+02 -0.14477895511E+03  0.16985740785E+03  0.78411479056E+02 0.  0.
         -6    2    1    2    0  502 -0.52906943841E+02  0.22384441428E+02  0.35752529155E+03  0.40082358745E+03  0.17185751723E+03 0.  0.
        -24    2    5    5    0    0 -0.59857248143E+02  0.59985706918E+02  0.15154648739E+03  0.19127283068E+03  0.80235794550E+02 0.  0.
          5    1    3    3  501    0  0.13157259465E+02 -0.35120049107E+02  0.40597862004E+02  0.55468979847E+02  0.47000000000E+01 0. -1.
        -11    1    4    4    0    0  0.14332768520E+02 -0.31626252544E+02 -0.80905099320E+02  0.88041372090E+02  0.00000000000E+00 0.  1.
         12    1    4    4    0    0  0.25416915855E+02  0.44361860224E+02 -0.63873855794E+02  0.81816035764E+02  0.00000000000E+00 0. -1.
         -5    1    5    5    0  502  0.69503043021E+01 -0.37601265491E+02  0.20597880417E+03  0.20955075677E+03  0.47000000000E+01 0.  1.
         13    1    6    6    0    0 -0.42632571825E+02  0.99880013260E+01  0.17467910099E+02  0.47142594690E+02  0.00000000000E+00 0. -1.
        -14    1    6    6    0    0 -0.17224676318E+02  0.49997705592E+02  0.13407857729E+03  0.14413023599E+03  0.00000000000E+00 0.  1.
</event>
<event>
12    1  0.8226261E-002  0.2033632E+03  0.7818608E-02  0.1147489E+00
         21   -1    0    0  501  502  0.00000000000E+00  0.00000000000E+00  0.87020959187E+02  0.87020959187E+02  0.00000000000E+00 0.  1.
         21   -1    0    0  502  503 -0.00000000000E+00 -0.00000000000E+00 -0.58213168668E+03  0.58213168668E+03  0.00000000000E+00 0. -1.
         -6    2    1    2    0  503 -0.12303194371E+02 -0.10335217404E+03 -0.39371810637E+03  0.44191473708E+03  0.17158568440E+03 0.  0.
        -24    2    3    3    0    0 -0.55573545319E+02 -0.13691483715E+02 -0.16524493914E+03  0.19264893355E+03  0.80819836814E+02 0.  0.
          6    2    1    2  501    0  0.12303194371E+02  0.10335217404E+03 -0.10139262112E+03  0.22723790879E+03  0.17470993991E+03 0.  0.
         24    2    5    5    0    0  0.32179775573E+02  0.13496676632E+03 -0.60669534761E+02  0.17178503972E+03  0.81103276476E+02 0.  0.
          5    1    5    5  501    0 -0.19876581202E+02 -0.31614592284E+02 -0.40723086361E+02  0.55452869072E+02  0.47000000000E+01 0. -1.
        -11    1    6    6    0    0  0.42069948220E+02  0.23036979404E+02 -0.23649905678E+02  0.53478042240E+02  0.00000000000E+00 0.  1.
         12    1    6    6    0    0 -0.98901726462E+01  0.11192978692E+03 -0.37019629083E+02  0.11830699748E+03  0.00000000000E+00 0. -1.
         -5    1    3    3    0  503  0.43270350947E+02 -0.89660690326E+02 -0.22847316723E+03  0.24926580352E+03  0.47000000000E+01 0.  1.
         11    1    4    4    0    0 -0.57899626357E+02 -0.33335877952E+02 -0.75792761736E+02  0.10103558889E+03  0.00000000000E+00 0. -1.
        -12    1    4    4    0    0  0.23260810386E+01  0.19644394237E+02 -0.89452177403E+02  0.91613344661E+02  0.00000000000E+00 0.  1.
</event>
<event>
12    1  0.8226261E-002  0.1810699E+03  0.7818608E-02  0.1166983E+00
         21   -1    0    0  503  502  0.00000000000E+00  0.00000000000E+00  0.27517328241E+02  0.27517328241E+02  0.00000000000E+00 0. -1.
         21   -1    0    0  501  503 -0.00000000000E+00 -0.00000000000E+00 -0.13271535842E+04  0.13271535842E+04  0.00000000000E+00 0. -1.
          6    2    1    2  501    0 -0.37786441312E+02  0.43228785728E+02 -0.87234416731E+03  0.89093807424E+03  0.17172583620E+03 0.  0.
         24    2    3    3    0    0 -0.42303019239E+02  0.71847322239E+02 -0.83742603204E+03  0.84532243790E+03  0.79599508267E+02 0.  0.
         -6    2    1    2    0  502  0.37786441312E+02 -0.43228785728E+02 -0.42729208866E+03  0.46373283822E+03  0.17080126799E+03 0.  0.
        -24    2    5    5    0    0 -0.27904258189E+02 -0.37234302901E+02 -0.13731437513E+03  0.16630996390E+03  0.81478374654E+02 0.  0.
          5    1    3    3  501    0  0.45165779262E+01 -0.28618536511E+02 -0.34918135269E+02  0.45615636341E+02  0.47000000000E+01 0. -1.
        -13    1    4    4    0    0  0.16353409888E+02  0.39981656909E+02 -0.46136274318E+03  0.46338056466E+03  0.00000000000E+00 0.  1.
         14    1    4    4    0    0 -0.58656429127E+02  0.31865665331E+02 -0.37606328886E+03  0.38194187324E+03  0.00000000000E+00 0. -1.
         -5    1    5    5    0  502  0.65690699501E+02 -0.59944828271E+01 -0.28997771353E+03  0.29742287432E+03  0.47000000000E+01 0.  1.
         13    1    6    6    0    0 -0.28229479963E+02  0.97652421344E+01 -0.11508437175E+02  0.32011054639E+02  0.00000000000E+00 0. -1.
        -14    1    6    6    0    0  0.32522177370E+00 -0.46999545036E+02 -0.12580593796E+03  0.13429890926E+03  0.00000000000E+00 0.  1.
</event>
<event>
12    1  0.8226261E-002  0.2621880E+03  0.7818608E-02  0.1106486E+00
         21   -1    0    0  503  502  0.00000000000E+00  0.00000000000E+00  0.16340029787E+04  0.16340029787E+04  0.00000000000E+00 0. -1.
         21   -1    0    0  501  503 -0.00000000000E+00 -0.00000000000E+00 -0.42980892762E+02  0.42980892762E+02  0.00000000000E+00 0.  1.
          6    2    1    2  501    0 -0.19316381248E+03  0.13274283973E+02  0.96384278407E+03  0.99886709758E+03  0.17678829478E+03 0.  0.
         24    2    3    3    0    0 -0.95954301816E+02 -0.48817395441E+02  0.36449700401E+03  0.38850448430E+03  0.80543790934E+02 0.  0.
         -6    2    1    2    0  502  0.19316381248E+03 -0.13274283973E+02  0.62717930183E+03  0.67811677384E+03  0.17029391430E+03 0.  0.
        -24    2    5    5    0    0  0.15772476116E+03  0.50207520373E+02  0.47648709693E+03  0.51073667807E+03  0.80088110227E+02 0.  0.
          5    1    3    3  501    0 -0.97209510665E+02  0.62091679414E+02  0.59934578006E+03  0.61036261328E+03  0.47000000000E+01 0. -1.
        -11    1    4    4    0    0 -0.48922743282E+02  0.16533466282E+02  0.10885973383E+03  0.12048747640E+03  0.00000000000E+00 0.  1.
         12    1    4    4    0    0 -0.47031558534E+02 -0.65350861724E+02  0.25563727017E+03  0.26801700791E+03  0.00000000000E+00 0. -1.
         -5    1    5    5    0  502  0.35439051317E+02 -0.63481804346E+02  0.15069220491E+03  0.16738009577E+03  0.47000000000E+01 0.  1.
         11    1    6    6    0    0  0.69160685309E+01  0.27040249432E+02  0.11558769112E+03  0.11890971967E+03  0.00000000000E+00 0. -1.
        -12    1    6    6    0    0  0.15080869263E+03  0.23167270941E+02  0.36089940581E+03  0.39182695840E+03  0.00000000000E+00 0.  1.
</event>
<event>
12    1  0.8226261E-002  0.2657167E+03  0.7818608E-02  0.1103840E+00
         21   -1    0    0  503  502  0.00000000000E+00  0.00000000000E+00  0.11910807693E+03  0.11910807693E+03  0.00000000000E+00 0.  1.
         21   -1    0    0  501  503 -0.00000000000E+00 -0.00000000000E+00 -0.78477789196E+03  0.78477789196E+03  0.00000000000E+00 0. -1.
          6    2    1    2  501    0 -0.80293424230E+02  0.18498711136E+03 -0.55738963363E+03  0.61748568151E+03  0.17302629235E+03 0.  0.
         24    2    3    3    0    0 -0.86004010607E+02  0.11084882434E+03 -0.48075428444E+03  0.51060180459E+03  0.99525721030E+02 0.  0.
         -6    2    1    2    0  502  0.80293424230E+02 -0.18498711136E+03 -0.10828018139E+03  0.28640028738E+03  0.17214314272E+03 0.  0.
        -24    2    5    5    0    0  0.34613627981E+02 -0.17489060403E+03 -0.13003020468E+03  0.23459549263E+03  0.79638962914E+02 0.  0.
          5    1    3    3  501    0  0.57105863776E+01  0.74138287020E+02 -0.76635349196E+02  0.10688387692E+03  0.47000000000E+01 0. -1.
        -13    1    4    4    0    0 -0.14180044303E+02  0.45880382591E+02 -0.50921849947E+02  0.69993699468E+02  0.00000000000E+00 0.  1.
         14    1    4    4    0    0 -0.71823966304E+02  0.64968441751E+02 -0.42983243449E+03  0.44060810512E+03  0.00000000000E+00 0. -1.
         -5    1    5    5    0  502  0.45679796249E+02 -0.10096507330E+02  0.21750023291E+02  0.51804794747E+02  0.47000000000E+01 0.  1.
         13    1    6    6    0    0  0.39611762000E+00  0.56079748006E+01 -0.19277111745E+02  0.20080172503E+02  0.00000000000E+00 0. -1.
        -14    1    6    6    0    0  0.34217510361E+02 -0.18049857883E+03 -0.11075309294E+03  0.21451532013E+03  0.00000000000E+00 0.  1.
</event>
<event>
12    1  0.8226261E-002  0.1850904E+03  0.7818608E-02  0.1163392E+00
         21   -1    0    0  501  502  0.00000000000E+00  0.00000000000E+00  0.21928821504E+03  0.21928821504E+03  0.00000000000E+00 0.  1.
         21   -1    0    0  502  503 -0.00000000000E+00 -0.00000000000E+00 -0.16643678295E+03  0.16643678295E+03  0.00000000000E+00 0.  1.
         -6    2    1    2    0  503 -0.50337451803E+02 -0.44578957496E+02 -0.24923351989E+02  0.18495801772E+03  0.17049091571E+03 0.  0.
        -24    2    3    3    0    0  0.15531090477E+02 -0.55130998247E+02 -0.53793688934E+02  0.11211849012E+03  0.79975953371E+02 0.  0.
          6    2    1    2  501    0  0.50337451803E+02  0.44578957496E+02  0.77774784086E+02  0.20076698027E+03  0.17244512409E+03 0.  0.
         24    2    5    5    0    0  0.84395991305E+02 -0.49158612569E+01  0.72798573415E+02  0.14029736915E+03  0.85069797578E+02 0.  0.
          5    1    5    5  501    0 -0.34058539502E+02  0.49494818752E+02  0.49762106702E+01  0.60469611120E+02  0.47000000000E+01 0. -1.
        -13    1    6    6    0    0 -0.46487097788E+01  0.15848505125E+02  0.39800653334E+02  0.43091502911E+02  0.00000000000E+00 0.  1.
         14    1    6    6    0    0  0.89044701084E+02 -0.20764366382E+02  0.32997920081E+02  0.97205866243E+02  0.00000000000E+00 0. -1.
         -5    1    3    3    0  503 -0.65868542280E+02  0.10552040752E+02  0.28870336945E+02  0.72839527603E+02  0.47000000000E+01 0.  1.
         13    1    4    4    0    0  0.23815477989E+01  0.13226160631E+02  0.10734749965E+02  0.17199940458E+02  0.00000000000E+00 0. -1.
        -14    1    4    4    0    0  0.13149542678E+02 -0.68357158878E+02 -0.64528438899E+02  0.94918549658E+02  0.00000000000E+00 0.  1.
</event>
<event>
12    1  0.8226261E-002  0.1946766E+03  0.7818608E-02  0.1154474E+00
         21   -1    0    0  503  502  0.00000000000E+00  0.00000000000E+00  0.27059716173E+03  0.27059716173E+03  0.00000000000E+00 0.  1.
         21   -1    0    0  501  503 -0.00000000000E+00 -0.00000000000E+00 -0.13984160513E+03  0.13984160513E+03  0.00000000000E+00 0.  1.
          6    2    1    2  501    0  0.68888945752E+02  0.56600798446E+02  0.55617030692E+02  0.20246542500E+03  0.17305969198E+03 0.  0.
         24    2    3    3    0    0  0.10548077928E+03  0.70989216567E+01  0.45830476520E+02  0.13995730770E+03  0.79441965701E+02 0.  0.
         -6    2    1    2    0  502 -0.68888945752E+02 -0.56600798446E+02  0.75138525909E+02  0.20797334185E+03  0.17221433046E+03 0.  0.
        -24    2    5    5    0    0 -0.73642830311E+02 -0.97816052575E+01 -0.10186784440E+02  0.11041753805E+03  0.81051316304E+02 0.  0.
          5    1    3    3  501    0 -0.36591833525E+02  0.49501876789E+02  0.97865541722E+01  0.62508117304E+02  0.47000000000E+01 0. -1.
        -11    1    4    4    0    0  0.60929711489E+02  0.23731717550E+02 -0.10512828473E+02  0.66227967827E+02  0.00000000000E+00 0.  1.
         12    1    4    4    0    0  0.44551067788E+02 -0.16632795893E+02  0.56343304992E+02  0.73729339871E+02  0.00000000000E+00 0. -1.
         -5    1    5    5    0  502  0.47538845595E+01 -0.46819193188E+02  0.85325310348E+02  0.97555803801E+02  0.47000000000E+01 0.  1.
         13    1    6    6    0    0 -0.15428459278E+02  0.26665625801E+02  0.18554881840E+02  0.35963545364E+02  0.00000000000E+00 0. -1.
        -14    1    6    6    0    0 -0.58214371034E+02 -0.36447231059E+02 -0.28741666280E+02  0.74453992688E+02  0.00000000000E+00 0.  1.
</event>
<event>
12    1  0.8226261E-002  0.1772403E+03  0.7818608E-02  0.1170605E+00
         21   -1    0    0  501  502  0.00000000000E+00  0.00000000000E+00  0.40541029334E+02  0.40541029334E+02  0.00000000000E+00 0.  1.
         21   -1    0    0  502  503 -0.00000000000E+00 -0.00000000000E+00 -0.77353091824E+03  0.77353091824E+03  0.00000000000E+00 0.  1.
         -6    2    1    2    0  503  0.21521766183E+02  0.31167494403E+02 -0.37632526228E+03  0.41579594053E+03  0.17271642078E+03 0.  0.
        -24    2    3    3    0    0 -0.42971253915E+02  0.32875815119E+02 -0.12941525103E+03  0.16055309214E+03  0.78112997087E+02 0.  0.
          6    2    1    2  501    0 -0.21521766183E+02 -0.31167494403E+02 -0.35666462663E+03  0.39827600704E+03  0.17314595799E+03 0.  0.
         24    2    5    5    0    0 -0.40080746922E+02 -0.79112471924E+02 -0.29316558995E+03  0.31643851994E+03  0.79511158244E+02 0.  0.
          5    1    5    5  501    0  0.18558980739E+02  0.47944977521E+02 -0.63499036683E+02  0.81837487103E+02  0.47000000000E+01 0. -1.
        -11    1    6    6    0    0 -0.39624016200E+01 -0.21828996147E+02 -0.83856833476E+01  0.23717617600E+02  0.00000000000E+00 0.  1.
         12    1    6    6    0    0 -0.36118345302E+02 -0.57283475777E+02 -0.28477990660E+03  0.29272090234E+03  0.00000000000E+00 0. -1.
         -5    1    3    3    0  503  0.64493020098E+02 -0.17083207167E+01 -0.24691001124E+03  0.25524284839E+03  0.47000000000E+01 0.  1.
         13    1    4    4    0    0 -0.61706663923E+02  0.61650752732E+01 -0.77812493351E+02  0.99501279626E+02  0.00000000000E+00 0. -1.
        -14    1    4    4    0    0  0.18735410007E+02  0.26710739846E+02 -0.51602757683E+02  0.61051812518E+02  0.00000000000E+00 0.  1.
</event>
<event>
12    1  0.8226261E-002  0.1865377E+03  0.7818608E-02  0.1162214E+00
         21   -1    0    0  501  502  0.00000000000E+00  0.00000000000E+00  0.15633274901E+03  0.15633274901E+03  0.00000000000E+00 0. -1.
         21   -1    0    0  502  503 -0.00000000000E+00 -0.00000000000E+00 -0.27066454589E+03  0.27066454589E+03  0.00000000000E+00 0.  1.
         -6    2    1    2    0  503 -0.66672170187E+02 -0.21054281179E+02 -0.14962191421E+03  0.23715080729E+03  0.17019203022E+03 0.  0.
        -24    2    3    3    0    0 -0.64287446729E+02  0.32159718790E+02 -0.13417926818E+03  0.18149128865E+03  0.98832628859E+02 0.  0.
          6    2    1    2  501    0  0.66672170187E+02  0.21054281179E+02  0.35290117325E+02  0.18984648761E+03  0.17293881995E+03 0.  0.
         24    2    5    5    0    0 -0.18551001806E+02  0.53974002569E+02  0.37831344846E+02  0.98330123292E+02  0.70571027146E+02 0.  0.
          5    1    5    5  501    0  0.85223171993E+02 -0.32919721390E+02 -0.25412275216E+01  0.91516364320E+02  0.47000000000E+01 0. -1.
        -11    1    6    6    0    0 -0.36462775889E+02  0.35421538205E+02  0.48650916584E+02  0.70364274166E+02  0.00000000000E+00 0.  1.
         12    1    6    6    0    0  0.17911774083E+02  0.18552464363E+02 -0.10819571737E+02  0.27965849126E+02  0.00000000000E+00 0. -1.
         -5    1    3    3    0  503 -0.23847234587E+01 -0.53213999968E+02 -0.15442646034E+02  0.55659518639E+02  0.47000000000E+01 0.  1.
         13    1    4    4    0    0  0.31543242120E+01 -0.26489093026E+02 -0.58814180005E+02  0.64581185962E+02  0.00000000000E+00 0. -1.
        -14    1    4    4    0    0 -0.67441770941E+02  0.58648811816E+02 -0.75365088175E+02  0.11691010269E+03  0.00000000000E+00 0.  1.
</event>
<event>
12    1  0.8226261E-002  0.2679382E+03  0.7818608E-02  0.1102603E+00
         21   -1    0    0  501  502  0.00000000000E+00  0.00000000000E+00  0.12458712450E+04  0.12458712450E+04  0.00000000000E+00 0. -1.
         21   -1    0    0  502  503 -0.00000000000E+00 -0.00000000000E+00 -0.57619604585E+02  0.57619604585E+02  0.00000000000E+00 0. -1.
         -6    2    1    2    0  503 -0.18605573583E+03 -0.85860674615E+02  0.55675727165E+03  0.61787500837E+03  0.17263277250E+03 0.  0.
        -24    2    3    3    0    0 -0.14507883552E+03 -0.19720195246E+02  0.24232212297E+03  0.29392250861E+03  0.78953626712E+02 0.  0.
          6    2    1    2  501    0  0.18605573583E+03  0.85860674615E+02  0.63149436876E+03  0.68561584122E+03  0.17115826498E+03 0.  0.
         24    2    5    5    0    0  0.17276738380E+02  0.17468579213E+02  0.16076104310E+03  0.18086265145E+03  0.79142585009E+02 0.  0.
          5    1    5    5  501    0  0.16877899745E+03  0.68392095402E+02  0.47073332566E+03  0.50475318977E+03  0.47000000000E+01 0. -1.
        -13    1    6    6    0    0 -0.11040592795E+02  0.28216084796E+02  0.18692403227E+02  0.35601236901E+02  0.00000000000E+00 0.  1.
         14    1    6    6    0    0  0.28317331175E+02 -0.10747505583E+02  0.14206863987E+03  0.14526141455E+03  0.00000000000E+00 0. -1.
         -5    1    3    3    0  503 -0.40976900315E+02 -0.66140479369E+02  0.31443514868E+03  0.32395249975E+03  0.47000000000E+01 0.  1.
         13    1    4    4    0    0 -0.78503875342E+02 -0.50059574864E+02  0.13128184874E+03  0.16094639881E+03  0.00000000000E+00 0. -1.
        -14    1    4    4    0    0 -0.66574960178E+02  0.30339379618E+02  0.11104027423E+03  0.13297610981E+03  0.00000000000E+00 0.  1.
</event>
<event>
12    1  0.8226261E-002  0.2388786E+03  0.7818608E-02  0.1120700E+00
         21   -1    0    0  501  502  0.00000000000E+00  0.00000000000E+00  0.18484764660E+04  0.18484764660E+04  0.00000000000E+00 0. -1.
         21   -1    0    0  502  503 -0.00000000000E+00 -0.00000000000E+00 -0.47034611632E+02  0.47034611632E+02  0.00000000000E+00 0.  1.
         -6    2    1    2    0  503  0.14751974063E+03  0.72430417464E+02  0.34187426230E+03  0.41652475538E+03  0.17206574723E+03 0.  0.
        -24    2    3    3    0    0  0.17212386266E+03  0.35514036356E+02  0.25862783561E+03  0.32207773546E+03  0.77187041998E+02 0.  0.
          6    2    1    2  501    0 -0.14751974063E+03 -0.72430417464E+02  0.14595675920E+04  0.14789863222E+04  0.17336304780E+03 0.  0.
         24    2    5    5    0    0 -0.12990128693E+03 -0.42409254105E+02  0.66591265796E+03  0.68455449724E+03  0.80636855581E+02 0.  0.
          5    1    5    5  501    0 -0.17618453695E+02 -0.30021163359E+02  0.79365493408E+03  0.79443182498E+03  0.47000000000E+01 0. -1.
        -13    1    6    6    0    0 -0.54037872473E+02 -0.53123985391E+02  0.23597659736E+03  0.24784512096E+03  0.00000000000E+00 0.  1.
         14    1    6    6    0    0 -0.75863414461E+02  0.10714731286E+02  0.42993606060E+03  0.43670937628E+03  0.00000000000E+00 0. -1.
         -5    1    3    3    0  503 -0.24604122028E+02  0.36916381108E+02  0.83246426693E+02  0.94447019921E+02  0.47000000000E+01 0.  1.
         13    1    4    4    0    0  0.10840962064E+02  0.14166799415E+02  0.73448577251E+02  0.75583848567E+02  0.00000000000E+00 0. -1.
        -14    1    4    4    0    0  0.16128290059E+03  0.21347236941E+02  0.18517925836E+03  0.24649388689E+03  0.00000000000E+00 0.  1.
</event>
<event>
12    1  0.8226261E-002  0.2045273E+03  0.7818608E-02  0.1149284E+00
         21   -1    0    0  503  502  0.00000000000E+00  0.00000000000E+00  0.14658149108E+03  0.14658149108E+03  0.00000000000E+00 0. -1.
         21   -1    0    0  501  503 -0.00000000000E+00 -0.00000000000E+00 -0.50380996620E+03  0.50380996620E+03  0.00000000000E+00 0. -1.
          6    2    1    2  501    0 -0.24978301865E+02  0.10868531626E+03 -0.40648506636E+03  0.45504012164E+03  0.17144967073E+03 0.  0.
         24    2    3    3    0    0 -0.34017555349E+02 -0.30765709032E+01 -0.11551607253E+03  0.14317881769E+03  0.77392192524E+02 0.  0.
         -6    2    1    2    0  502  0.24978301865E+02 -0.10868531626E+03  0.49256591233E+02  0.19535133564E+03  0.15264179972E+03 0.  0.
        -24    2    5    5    0    0 -0.40207818343E+01 -0.11627590148E+03  0.71023648688E+02  0.15800888487E+03  0.79913685139E+02 0.  0.
          5    1    3    3  501    0  0.90392534842E+01  0.11176188717E+03 -0.29096899384E+03  0.31186130395E+03  0.47000000000E+01 0. -1.
        -11    1    4    4    0    0 -0.54561746052E+02  0.86801952586E+00 -0.48614582569E+02  0.73082933907E+02  0.00000000000E+00 0.  1.
         12    1    4    4    0    0  0.20544190703E+02 -0.39445904291E+01 -0.66901489957E+02  0.70095883786E+02  0.00000000000E+00 0. -1.
         -5    1    5    5    0  502  0.28999083699E+02  0.75905852194E+01 -0.21767057455E+02  0.37342450771E+02  0.47000000000E+01 0.  1.
         13    1    6    6    0    0  0.33085739257E+02 -0.39755026423E+02  0.46369742359E+02  0.69464244576E+02  0.00000000000E+00 0. -1.
        -14    1    6    6    0    0 -0.37106521092E+02 -0.76520875058E+02  0.24653906329E+02  0.88544640292E+02  0.00000000000E+00 0.  1.
</event>
<event>
12    1  0.8226261E-002  0.1914178E+03  0.7818608E-02  0.1159784E+00
         21   -1    0    0  501  502  0.00000000000E+00  0.00000000000E+00  0.72656855672E+02  0.72656855672E+02  0.00000000000E+00 0. -1.
         21   -1    0    0  502  503 -0.00000000000E+00 -0.00000000000E+00 -0.53992432652E+03  0.53992432652E+03  0.00000000000E+00 0. -1.
         -6    2    1    2    0  503 -0.83897169003E+02  0.12736036447E+02 -0.33350410157E+03  0.37905728691E+03  0.15892922764E+03 0.  0.
        -24    2    3    3    0    0 -0.48177029308E+02  0.70213822043E+02 -0.22209713253E+03  0.24862252556E+03  0.72353417170E+02 0.  0.
          6    2    1    2  501    0  0.83897169003E+02 -0.12736036447E+02 -0.13376336928E+03  0.23352389529E+03  0.17158038676E+03 0.  0.
         24    2    5    5    0    0  0.10074633020E+03 -0.39942531304E+02 -0.46435651388E+02  0.14039866827E+03  0.76225241730E+02 0.  0.
          5    1    5    5  501    0 -0.16849161198E+02  0.27206494857E+02 -0.87327717889E+02  0.93125227018E+02  0.47000000000E+01 0. -1.
        -13    1    6    6    0    0  0.11915337838E+02 -0.18716033263E+02 -0.43718677246E+02  0.49026400205E+02  0.00000000000E+00 0.  1.
         14    1    6    6    0    0  0.88830992364E+02 -0.21226498041E+02 -0.27169741422E+01  0.91372268068E+02  0.00000000000E+00 0. -1.
         -5    1    3    3    0  503 -0.35720139695E+02 -0.57477785596E+02 -0.11140696904E+03  0.13043476135E+03  0.47000000000E+01 0.  1.
         11    1    4    4    0    0 -0.20356264450E+02  0.15000073549E+02 -0.15631149144E+03  0.15834349392E+03  0.00000000000E+00 0. -1.
        -12    1    4    4    0    0 -0.27820764858E+02  0.55213748494E+02 -0.65785641087E+02  0.90279031637E+02  0.00000000000E+00 0.  1.
</event>
<event>
12    1  0.8226261E-002  0.3472296E+03  0.7818608E-02  0.1063790E+00
         21   -1    0    0  503  502  0.00000000000E+00  0.00000000000E+00  0.26470543309E+04  0.26470543309E+04  0.00000000000E+00 0. -1.
         21   -1    0    0  501  503 -0.00000000000E+00 -0.00000000000E+00 -0.51217844970E+02  0.51217844970E+02  0.00000000000E+00 0. -1.
          6    2    1    2  501    0 -0.29916459565E+03 -0.40745107702E+02  0.84692564423E+03  0.91522490799E+03  0.17086241911E+03 0.  0.
         24    2    3    3    0    0 -0.20270494261E+03 -0.15613970906E+02  0.38534734943E+03  0.44298275514E+03  0.80050307886E+02 0.  0.
         -6    2    1    2    0  502  0.29916459565E+03  0.40745107702E+02  0.17489108417E+04  0.17830472679E+04  0.17148996523E+03 0.  0.
        -24    2    5    5    0    0  0.15502219728E+03 -0.21987390551E+02  0.67235393779E+03  0.69506323551E+03  0.80856395497E+02 0.  0.
          5    1    3    3  501    0 -0.96459653044E+02 -0.25131136796E+02  0.46157829480E+03  0.47224215285E+03  0.47000000000E+01 0. -1.
        -13    1    4    4    0    0 -0.14574180344E+03  0.22950442607E+02  0.29047125314E+03  0.32579279456E+03  0.00000000000E+00 0.  1.
         14    1    4    4    0    0 -0.56963139170E+02 -0.38564413514E+02  0.94876096292E+02  0.11718996058E+03  0.00000000000E+00 0. -1.
         -5    1    5    5    0  502  0.14414239838E+03  0.62732498253E+02  0.10765569039E+04  0.10879840324E+04  0.47000000000E+01 0.  1.
         13    1    6    6    0    0  0.24409466750E+02  0.77716704075E+01  0.26527974419E+03  0.26651372124E+03  0.00000000000E+00 0. -1.
        -14    1    6    6    0    0  0.13061273053E+03 -0.29759060958E+02  0.40707419360E+03  0.42854951427E+03  0.00000000000E+00 0.  1.
</event>
<event>
12    1  0.8226261E-002  0.2388954E+03  0.7818608E-02  0.1121448E+00
         21   -1    0    0  503  502  0.00000000000E+00  0.00000000000E+00  0.12966800371E+03  0.12966800371E+03  0.00000000000E+00 0.  1.
         21   -1    0    0  501  503 -0.00000000000E+00 -0.00000000000E+00 -0.50568100731E+03  0.50568100731E+03  0.00000000000E+00 0.  1.
          6    2    1    2  501    0 -0.28653131380E+02 -0.14707053467E+03 -0.63471055381E+02  0.24196180987E+03  0.17907037292E+03 0.  0.
         24    2    3    3    0    0 -0.78832590907E+01 -0.17702613271E+03 -0.39463315201E+02  0.19806207140E+03  0.79188594142E+02 0.  0.
         -6    2    1    2    0  502  0.28653131380E+02  0.14707053467E+03 -0.31254194823E+03  0.39338720115E+03  0.18606524802E+03 0.  0.
        -24    2    5    5    0    0 -0.11428234587E+02  0.13338282369E+03 -0.31420880431E+03  0.35074053963E+03  0.79813352488E+02 0.  0.
          5    1    3    3  501    0 -0.20769872290E+02  0.29955598044E+02 -0.24007740180E+02  0.43899738468E+02  0.47000000000E+01 0. -1.
        -13    1    4    4    0    0 -0.29616715425E+02 -0.37132302315E+02  0.91614537234E+01  0.48372408893E+02  0.00000000000E+00 0.  1.
         14    1    4    4    0    0  0.21733456334E+02 -0.13989383040E+03 -0.48624768925E+02  0.14968966251E+03  0.00000000000E+00 0. -1.
         -5    1    5    5    0  502  0.40081365967E+02  0.13687710986E+02  0.16668560793E+01  0.42646661522E+02  0.47000000000E+01 0.  1.
         13    1    6    6    0    0 -0.30710256534E+02  0.27765348478E+02 -0.46250037663E+02  0.62073347069E+02  0.00000000000E+00 0. -1.
        -14    1    6    6    0    0  0.19282021947E+02  0.10561747521E+03 -0.26795876664E+03  0.28866719256E+03  0.00000000000E+00 0.  1.
</event>
<event>
12    1  0.8226261E-002  0.3745670E+03  0.7818608E-02  0.1053030E+00
         21   -1    0    0  503  502  0.00000000000E+00  0.00000000000E+00  0.31520102892E+03  0.31520102892E+03  0.00000000000E+00 0.  1.
         21   -1    0    0  501  503 -0.00000000000E+00 -0.00000000000E+00 -0.67328125446E+03  0.67328125446E+03  0.00000000000E+00 0. -1.
          6    2    1    2  501    0 -0.24485437540E+03 -0.22431787215E+03 -0.46719213653E+03  0.59834664634E+03  0.17169171162E+03 0.  0.
         24    2    3    3    0    0 -0.10072519863E+03 -0.56127703695E+02 -0.10578646186E+03  0.17443945834E+03  0.77087381271E+02 0.  0.
         -6    2    1    2    0  502  0.24485437540E+03  0.22431787215E+03  0.10911191099E+03  0.39013563704E+03  0.17328656397E+03 0.  0.
        -24    2    5    5    0    0  0.62782839302E+02  0.13226447325E+03  0.21202996690E+02  0.16793316244E+03  0.79475808790E+02 0.  0.
          5    1    3    3  501    0 -0.14412917677E+03 -0.16819016845E+03 -0.36140567467E+03  0.42390718800E+03  0.47000000000E+01 0. -1.
        -11    1    4    4    0    0  0.10912553220E+01 -0.33856861782E+02 -0.19174189065E+02  0.38924638139E+02  0.00000000000E+00 0.  1.
         12    1    4    4    0    0 -0.10181645395E+03 -0.22270841913E+02 -0.86612272794E+02  0.13551482020E+03  0.00000000000E+00 0. -1.
         -5    1    5    5    0  502  0.18207153610E+03  0.92053398892E+02  0.87908914298E+02  0.22220247460E+03  0.47000000000E+01 0.  1.
         13    1    6    6    0    0  0.74902809989E+02  0.92138095605E+02  0.35017542585E+02  0.12379857792E+03  0.00000000000E+00 0. -1.
        -14    1    6    6    0    0 -0.12119970688E+02  0.40126377648E+02 -0.13814545895E+02  0.44134584522E+02  0.00000000000E+00 0.  1.
</event>
<event>
12    1  0.8226261E-002  0.2033533E+03  0.7818608E-02  0.1146949E+00
         21   -1    0    0  501  502  0.00000000000E+00  0.00000000000E+00  0.18570896381E+03  0.18570896381E+03  0.00000000000E+00 0.  1.
         21   -1    0    0  502  503 -0.00000000000E+00 -0.00000000000E+00 -0.41500172380E+03  0.41500172380E+03  0.00000000000E+00 0. -1.
         -6    2    1    2    0  503  0.55039821485E+02  0.90228598713E+02 -0.31914717312E+03  0.37842763409E+03  0.17372960070E+03 0.  0.
        -24    2    3    3    0    0  0.29872673967E+02  0.12028417328E+03 -0.30061270876E+03  0.33481181992E+03  0.79814128452E+02 0.  0.
          6    2    1    2  501    0 -0.55039821485E+02 -0.90228598713E+02  0.89854413130E+02  0.22228305352E+03  0.17368177322E+03 0.  0.
         24    2    5    5    0    0 -0.57372208329E+02 -0.12442321631E+03  0.97558994206E+02  0.18684067111E+03  0.81357064754E+02 0.  0.
          5    1    5    5  501    0  0.23323868441E+01  0.34194617600E+02 -0.77045810765E+01  0.35442382408E+02  0.47000000000E+01 0. -1.
        -11    1    6    6    0    0 -0.49443558994E+02 -0.23186258276E+02  0.52474476944E+02  0.75735320884E+02  0.00000000000E+00 0.  1.
         12    1    6    6    0    0 -0.79286493342E+01 -0.10123695804E+03  0.45084517262E+02  0.11110535023E+03  0.00000000000E+00 0. -1.
         -5    1    3    3    0  503  0.25167147517E+02 -0.30055574563E+02 -0.18534464356E+02  0.43615814166E+02  0.47000000000E+01 0.  1.
         13    1    4    4    0    0  0.50455302232E+02  0.56480801822E+02 -0.11730321736E+03  0.13962758789E+03  0.00000000000E+00 0. -1.
        -14    1    4    4    0    0 -0.20582628264E+02  0.63803371454E+02 -0.18330949141E+03  0.19518423203E+03  0.00000000000E+00 0.  1.
</event>
<event>
12    1  0.8226261E-002  0.2392743E+03  0.7818608E-02  0.1120426E+00
         21   -1    0    0  503  502  0.00000000000E+00  0.00000000000E+00  0.74791309439E+03  0.74791309439E+03  0.00000000000E+00 0.  1.
         21   -1    0    0  501  503 -0.00000000000E+00 -0.00000000000E+00 -0.76412959446E+02  0.76412959446E+02  0.00000000000E+00 0. -1.
          6    2    1    2  501    0  0.16050736244E+03  0.44582653532E+02  0.35451536387E+03  0.42770708912E+03  0.17176141728E+03 0.  0.
         24    2    3    3    0    0  0.15978990043E+03  0.29023409517E+02  0.36568802720E+03  0.40797074620E+03  0.79606695272E+02 0.  0.
         -6    2    1    2    0  502 -0.16050736244E+03 -0.44582653532E+02  0.31698477107E+03  0.39661896472E+03  0.17051988650E+03 0.  0.
        -24    2    5    5    0    0 -0.39758222965E+02 -0.74615053672E+02  0.13833978576E+03  0.17886125414E+03  0.75533630786E+02 0.  0.
          5    1    3    3  501    0  0.71746200488E+00  0.15559244015E+02 -0.11172663328E+02  0.19736342921E+02  0.47000000000E+01 0. -1.
        -11    1    4    4    0    0  0.10381673837E+03  0.50897500607E+02  0.28336869668E+03  0.30604948781E+03  0.00000000000E+00 0.  1.
         12    1    4    4    0    0  0.55973162062E+02 -0.21874091090E+02  0.82319330524E+02  0.10192125838E+03  0.00000000000E+00 0. -1.
         -5    1    5    5    0  502 -0.12074913947E+03  0.30032400140E+02  0.17864498531E+03  0.21775771058E+03  0.47000000000E+01 0.  1.
         11    1    6    6    0    0  0.11232595379E+02 -0.60042818737E+01 -0.35395377572E+01  0.13219339140E+02  0.00000000000E+00 0. -1.
        -12    1    6    6    0    0 -0.50990818344E+02 -0.68610771799E+02  0.14187932352E+03  0.16564191500E+03  0.00000000000E+00 0.  1.
</event>
<event>
12    1  0.8226261E-002  0.2588830E+03  0.7818608E-02  0.1107854E+00
         21   -1    0    0  501  502  0.00000000000E+00  0.00000000000E+00  0.34231688873E+02  0.34231688873E+02  0.00000000000E+00 0. -1.
         21   -1    0    0  502  503 -0.00000000000E+00 -0.00000000000E+00 -0.20542031685E+04  0.20542031685E+04  0.00000000000E+00 0.  1.
         -6    2    1    2    0  503  0.24372254935E+02  0.19222494833E+03 -0.12378894237E+04  0.12646188902E+04  0.17130754379E+03 0.  0.
        -24    2    3    3    0    0 -0.13270609995E+01  0.20749108233E+03 -0.96417858461E+03  0.98924056294E+03  0.76826024300E+02 0.  0.
          6    2    1    2  501    0 -0.24372254935E+02 -0.19222494833E+03 -0.78208205598E+03  0.82381596723E+03  0.17168566628E+03 0.  0.
         24    2    5    5    0    0  0.34933112702E+02 -0.11754831120E+03 -0.60792521861E+03  0.62520473702E+03  0.79183103869E+02 0.  0.
          5    1    5    5  501    0 -0.59305367637E+02 -0.74676637131E+02 -0.17415683737E+03  0.19861123021E+03  0.47000000000E+01 0. -1.
        -13    1    6    6    0    0  0.57205685129E+02 -0.87969496692E+02 -0.37705413686E+03  0.39138337328E+03  0.00000000000E+00 0.  1.
         14    1    6    6    0    0 -0.22272572427E+02 -0.29578814511E+02 -0.23087108176E+03  0.23382136374E+03  0.00000000000E+00 0. -1.
         -5    1    3    3    0  503  0.25699315935E+02 -0.15266133994E+02 -0.27371083907E+03  0.27537832724E+03  0.47000000000E+01 0.  1.
         13    1    4    4    0    0 -0.36076581841E+02  0.88148487012E+02 -0.35830804388E+03  0.37075103483E+03  0.00000000000E+00 0. -1.
        -14    1    4    4    0    0  0.34749520841E+02  0.11934259532E+03 -0.60587054073E+03  0.61848952811E+03  0.00000000000E+00 0.  1.
</event>
<event>
12    1  0.8226261E-002  0.1964111E+03  0.7818608E-02  0.1156850E+00
         21   -1    0    0  503  502  0.00000000000E+00  0.00000000000E+00  0.17317328810E+04  0.17317328810E+04  0.00000000000E+00 0.  1.
         21   -1    0    0  501  503 -0.00000000000E+00 -0.00000000000E+00 -0.27092595431E+02  0.27092595431E+02  0.00000000000E+00 0.  1.
          6    2    1    2  501    0  0.43205734880E+02  0.26026385468E+02  0.38208972183E+03  0.42177000532E+03  0.17132797085E+03 0.  0.
         24    2    3    3    0    0  0.36953741221E+02  0.53275195642E+02  0.37956499842E+03  0.39330864012E+03  0.80114124276E+02 0.  0.
         -6    2    1    2    0  502 -0.43205734880E+02 -0.26026385468E+02  0.13225505637E+04  0.13370554711E+04  0.18982421053E+03 0.  0.
        -24    2    5    5    0    0  0.17689599363E+01  0.50402802506E+02  0.44843153363E+03  0.45843705977E+03  0.80809193127E+02 0.  0.
          5    1    3    3  501    0  0.62519936590E+01 -0.27248810174E+02  0.25247234063E+01  0.28461365197E+02  0.47000000000E+01 0. -1.
        -11    1    4    4    0    0 -0.96627322969E+01 -0.42343225208E+01  0.53263177279E+01  0.11818102352E+02  0.00000000000E+00 0.  1.
         12    1    4    4    0    0  0.46616473518E+02  0.57509518163E+02  0.37423868069E+03  0.38149053777E+03  0.00000000000E+00 0. -1.
         -5    1    5    5    0  502 -0.44974694816E+02 -0.76429187974E+02  0.87411903010E+03  0.87861841133E+03  0.47000000000E+01 0.  1.
         13    1    6    6    0    0 -0.29837387581E+02  0.41891568772E+02  0.36836667884E+03  0.37193975763E+03  0.00000000000E+00 0. -1.
        -14    1    6    6    0    0  0.31606347517E+02  0.85112337344E+01  0.80064854792E+02  0.86497302131E+02  0.00000000000E+00 0.  1.
</event>
<event>
12    1  0.8226261E-002  0.1906177E+03  0.7818608E-02  0.1158207E+00
         21   -1    0    0  501  502  0.00000000000E+00  0.00000000000E+00  0.68111971908E+03  0.68111971908E+03  0.00000000000E+00 0.  1.
         21   -1    0    0  502  503 -0.00000000000E+00 -0.00000000000E+00 -0.52998648858E+02  0.52998648858E+02  0.00000000000E+00 0. -1.
         -6    2    1    2    0  503  0.38200100750E+02 -0.73870253343E+02  0.30473590224E+03  0.35873446550E+03  0.17003054018E+03 0.  0.
        -24    2    3    3    0    0  0.18498446201E+02 -0.86135064612E+02  0.10872305478E+03  0.16129660905E+03  0.80215033400E+02 0.  0.
          6    2    1    2  501    0 -0.38200100750E+02  0.73870253343E+02  0.32338516798E+03  0.37538390244E+03  0.17151981028E+03 0.  0.
         24    2    5    5    0    0 -0.13467569038E+02  0.68312650593E+02  0.33196060312E+03  0.34821382403E+03  0.78784716648E+02 0.  0.
          5    1    5    5  501    0 -0.24732531711E+02  0.55576027496E+01 -0.85754351366E+01  0.27170078413E+02  0.47000000000E+01 0. -1.
        -13    1    6    6    0    0 -0.41772954202E+02  0.16291375795E+02  0.16818492201E+03  0.17405906072E+03  0.00000000000E+00 0.  1.
         14    1    6    6    0    0  0.28305385163E+02  0.52021274798E+02  0.16377568111E+03  0.17415476331E+03  0.00000000000E+00 0. -1.
         -5    1    3    3    0  503  0.19701654548E+02  0.12264811269E+02  0.19601284746E+03  0.19743785644E+03  0.47000000000E+01 0.  1.
         13    1    4    4    0    0  0.44075263117E+02 -0.52764662462E+02  0.36786670623E+02  0.77974339106E+02  0.00000000000E+00 0. -1.
        -14    1    4    4    0    0 -0.25576816915E+02 -0.33370402150E+02  0.71936384161E+02  0.83322269949E+02  0.00000000000E+00 0.  1.
</event>
<event>
12    1  0.8226261E-002  0.1882867E+03  0.7818608E-02  0.1160221E+00
         21   -1    0    0  503  502  0.00000000000E+00  0.00000000000E+00  0.11565012998E+03  0.11565012998E+03  0.00000000000E+00 0.  1.
         21   -1    0    0  501  503 -0.00000000000E+00 -0.00000000000E+00 -0.82703914024E+03  0.82703914024E+03  0.00000000000E+00 0.  1.
          6    2    1    2  501    0 -0.65159884230E+01  0.75283863292E+02 -0.72982917607E+03  0.75350177240E+03  0.17147646072E+03 0.  0.
         24    2    3    3    0    0 -0.47132111806E+02 -0.82275153302E+01 -0.39036278463E+03  0.40153111914E+03  0.80963004138E+02 0.  0.
         -6    2    1    2    0  502  0.65159884230E+01 -0.75283863292E+02  0.18440165809E+02  0.18918749783E+03  0.17245797008E+03 0.  0.
        -24    2    5    5    0    0 -0.35977166068E+02 -0.49358973255E+02 -0.43345859752E+02  0.10970560645E+03  0.80161036736E+02 0.  0.
          5    1    3    3  501    0  0.40616123383E+02  0.83511378623E+02 -0.33946639144E+03  0.35197065326E+03  0.47000000000E+01 0. -1.
        -11    1    4    4    0    0 -0.41924911805E+01  0.21075280041E+01 -0.30832067767E+03  0.30835638299E+03  0.00000000000E+00 0.  1.
         12    1    4    4    0    0 -0.42939620625E+02 -0.10335043334E+02 -0.82042106964E+02  0.93174736142E+02  0.00000000000E+00 0. -1.
         -5    1    5    5    0  502  0.42493154491E+02 -0.25924890038E+02  0.61786025561E+02  0.79481891376E+02  0.47000000000E+01 0.  1.
         11    1    6    6    0    0 -0.27277617743E+02 -0.54127120968E+02  0.45600499414E+01  0.60783284787E+02  0.00000000000E+00 0. -1.
        -12    1    6    6    0    0 -0.86995483244E+01  0.47681477138E+01 -0.47905909693E+02  0.48922321666E+02  0.00000000000E+00 0.  1.
</event>
<event>
12    1  0.8226261E-002  0.3231318E+03  0.7818608E-02  0.1074257E+00
         21   -1    0    0  501  502  0.00000000000E+00  0.00000000000E+00  0.31564400851E+03  0.31564400851E+03  0.00000000000E+00 0.  1.
         21   -1    0    0  502  503 -0.00000000000E+00 -0.00000000000E+00 -0.54659928069E+03  0.54659928069E+03  0.00000000000E+00 0. -1.
         -6    2    1    2    0  503 -0.20558963865E+03  0.17836247447E+03 -0.38662956049E+03  0.50388152649E+03  0.17416631097E+03 0.  0.
        -24    2    3    3    0    0 -0.20042438710E+03  0.19498187580E+03 -0.38868409950E+03  0.48573778226E+03  0.81719012949E+02 0.  0.
          6    2    1    2  501    0  0.20558963865E+03 -0.17836247447E+03  0.15567428830E+03  0.35836176271E+03  0.17351771412E+03 0.  0.
         24    2    5    5    0    0  0.14178530678E+03 -0.36027128656E+02  0.73381742940E+02  0.18194040217E+03  0.79475798358E+02 0.  0.
          5    1    5    5  501    0  0.63804331869E+02 -0.14233534581E+03  0.82292545365E+02  0.17642136054E+03  0.47000000000E+01 0. -1.
        -11    1    6    6    0    0  0.99781550868E+02 -0.24369301849E+02  0.88723494428E+02  0.13572796038E+03  0.00000000000E+00 0.  1.
         12    1    6    6    0    0  0.42003755916E+02 -0.11657826807E+02 -0.15341751488E+02  0.46212441784E+02  0.00000000000E+00 0. -1.
         -5    1    3    3    0  503 -0.51652515551E+01 -0.16619401332E+02  0.20545390092E+01  0.18143744233E+02  0.47000000000E+01 0.  1.
         13    1    4    4    0    0 -0.15059419363E+03  0.15639707314E+03 -0.34974711021E+03  0.41165725639E+03  0.00000000000E+00 0. -1.
        -14    1    4    4    0    0 -0.49830193471E+02  0.38584802665E+02 -0.38936989287E+02  0.74080525867E+02  0.00000000000E+00 0.  1.
</event>
<event>
12    1  0.8226261E-002  0.2012675E+03  0.7818608E-02  0.1149617E+00
         21   -1    0    0  501  502  0.00000000000E+00  0.00000000000E+00  0.17335506607E+04  0.17335506607E+04  0.00000000000E+00 0. -1.
         21   -1    0    0  502  503 -0.00000000000E+00 -0.00000000000E+00 -0.37062974357E+02  0.37062974357E+02  0.00000000000E+00 0. -1.
         -6    2    1    2    0  503  0.24114908254E+02 -0.93802629417E+02  0.30594379578E+03  0.36621061220E+03  0.17643169847E+03 0.  0.
        -24    2    3    3    0    0  0.38355729137E+02 -0.13098235683E+03  0.26472479807E+03  0.30871079584E+03  0.81213280882E+02 0.  0.
          6    2    1    2  501    0 -0.24114908254E+02  0.93802629417E+02  0.13905438906E+04  0.14044030229E+04  0.17133323364E+03 0.  0.
         24    2    5    5    0    0 -0.16382181350E+02 -0.16508280182E+02  0.68567385550E+03  0.69089608654E+03  0.81534453483E+02 0.  0.
          5    1    5    5  501    0 -0.77327269041E+01  0.11031090960E+03  0.70487003509E+03  0.71350693634E+03  0.47000000000E+01 0. -1.
        -11    1    6    6    0    0  0.22099591360E+02 -0.13936798144E+02  0.83585655786E+02  0.87573900987E+02  0.00000000000E+00 0.  1.
         12    1    6    6    0    0 -0.38481772710E+02 -0.25714820382E+01  0.60208819971E+03  0.60332218556E+03  0.00000000000E+00 0. -1.
         -5    1    3    3    0  503 -0.14240820884E+02  0.37179727411E+02  0.41218997705E+02  0.57499816361E+02  0.47000000000E+01 0.  1.
         11    1    4    4    0    0 -0.54773870395E+01 -0.10817469340E+03  0.19790152403E+03  0.22560314553E+03  0.00000000000E+00 0. -1.
        -12    1    4    4    0    0  0.43833116177E+02 -0.22807663431E+02  0.66823274046E+02  0.83107650305E+02  0.00000000000E+00 0.  1.
</event>
<event>
12    1  0.8226261E-002  0.2388022E+03  0.7818608E-02  0.1120632E+00
         21   -1    0    0  501  502  0.00000000000E+00  0.00000000000E+00  0.12394347779E+04  0.12394347779E+04  0.00000000000E+00 0. -1.
         21   -1    0    0  502  503 -0.00000000000E+00 -0.00000000000E+00 -0.12767871474E+03  0.12767871474E+03  0.00000000000E+00 0.  1.
         -6    2    1    2    0  503  0.14809229861E+03 -0.73570567661E+02  0.11028151063E+04  0.11283738925E+04  0.17228617219E+03 0.  0.
        -24    2    3    3    0    0  0.17311739064E+03 -0.63711753794E+02  0.81999042967E+03  0.84423424517E+03  0.79487970492E+02 0.  0.
          6    2    1    2  501    0 -0.14809229861E+03  0.73570567661E+02  0.89409568478E+01  0.23873960019E+03  0.17196714412E+03 0.  0.
         24    2    5    5    0    0 -0.60503426712E+01  0.44567015400E+02 -0.11977122448E+02  0.92190020416E+02  0.79578407210E+02 0.  0.
          5    1    5    5  501    0 -0.14204195594E+03  0.29003552261E+02  0.20918079295E+02  0.14654957978E+03  0.47000000000E+01 0. -1.
        -13    1    6    6    0    0 -0.39922783214E+02  0.39305119892E+02 -0.45333737099E+00  0.56026124122E+02  0.00000000000E+00 0.  1.
         14    1    6    6    0    0  0.33872440543E+02  0.52618955080E+01 -0.11523785077E+02  0.36163896294E+02  0.00000000000E+00 0. -1.
         -5    1    3    3    0  503 -0.25025092026E+02 -0.98588138667E+01  0.28282467666E+03  0.28413964730E+03  0.47000000000E+01 0.  1.
         11    1    4    4    0    0  0.73553380398E+02  0.12311842273E+02  0.34814473047E+03  0.35604274263E+03  0.00000000000E+00 0. -1.
        -12    1    4    4    0    0  0.99564010239E+02 -0.76023596068E+02  0.47184569920E+03  0.48819150254E+03  0.00000000000E+00 0.  1.
</event>
<event>
12    1  0.8226261E-002  0.1839279E+03  0.7818608E-02  0.1164713E+00
         21   -1    0    0  503  502  0.00000000000E+00  0.00000000000E+00  0.72859407438E+03  0.72859407438E+03  0.00000000000E+00 0.  1.
         21   -1    0    0  501  503 -0.00000000000E+00 -0.00000000000E+00 -0.46025529870E+02  0.46025529870E+02  0.00000000000E+00 0.  1.
          6    2    1    2  501    0 -0.64286192182E+02  0.12684291540E+02  0.30781530710E+03  0.35716365225E+03  0.16888459210E+03 0.  0.
         24    2    3    3    0    0 -0.90130170046E+02 -0.81026506609E+01  0.12648515658E+03  0.17276538315E+03  0.75234847520E+02 0.  0.
         -6    2    1    2    0  502  0.64286192182E+02 -0.12684291540E+02  0.37475323741E+03  0.41745595200E+03  0.17186005107E+03 0.  0.
        -24    2    5    5    0    0  0.10441988135E+03  0.97164041599E+01  0.23285111538E+03  0.26822188614E+03  0.82008646768E+02 0.  0.
          5    1    3    3  501    0  0.25843977864E+02  0.20786942201E+02  0.18133015052E+03  0.18439826910E+03  0.47000000000E+01 0. -1.
        -13    1    4    4    0    0 -0.26256735803E+02 -0.34807656994E+02  0.73994895554E+02  0.85885002931E+02  0.00000000000E+00 0.  1.
         14    1    4    4    0    0 -0.63873434242E+02  0.26705006333E+02  0.52490261022E+02  0.86880380221E+02  0.00000000000E+00 0. -1.
         -5    1    5    5    0  502 -0.40133689164E+02 -0.22400695700E+02  0.14190212204E+03  0.14923406586E+03  0.47000000000E+01 0.  1.
         11    1    6    6    0    0 -0.22708790591E+01  0.19228619922E+02  0.12035857947E+02  0.22798214674E+02  0.00000000000E+00 0. -1.
        -12    1    6    6    0    0  0.10669076040E+03 -0.95122157616E+01  0.22081525743E+03  0.24542367147E+03  0.00000000000E+00 0.  1.
</event>
<event>
12    1  0.8226261E-002  0.1762190E+03  0.7818608E-02  0.1171514E+00
         21   -1    0    0  501  502  0.00000000000E+00  0.00000000000E+00  0.51989997126E+03  0.51989997126E+03  0.00000000000E+00 0.  1.
         21   -1    0    0  502  503 -0.00000000000E+00 -0.00000000000E+00 -0.69211465048E+02  0.69211465048E+02  0.00000000000E+00 0.  1.
         -6    2    1    2    0  503  0.29580192495E+02 -0.19778023711E+02  0.11631016716E+03  0.21114257075E+03  0.17258902685E+03 0.  0.
        -24    2    3    3    0    0  0.10071330091E+02  0.18331044296E+02  0.14024517797E+03  0.16186913451E+03  0.78073349405E+02 0.  0.
          6    2    1    2  501    0 -0.29580192495E+02  0.19778023711E+02  0.33437833905E+03  0.37796886555E+03  0.17258456389E+03 0.  0.
         24    2    5    5    0    0 -0.81289357310E+02  0.31833118921E+02  0.21328546167E+03  0.24566339326E+03  0.85079419118E+02 0.  0.
          5    1    5    5  501    0  0.51709164815E+02 -0.12055095210E+02  0.12109287738E+03  0.13230547229E+03  0.47000000000E+01 0. -1.
        -11    1    6    6    0    0 -0.39295065132E+02  0.37497265196E+02  0.18937095911E+03  0.19700636333E+03  0.00000000000E+00 0.  1.
         12    1    6    6    0    0 -0.41994292178E+02 -0.56641462749E+01  0.23914502560E+02  0.48657029926E+02  0.00000000000E+00 0. -1.
         -5    1    3    3    0  503  0.19508862404E+02 -0.38109068007E+02 -0.23935010811E+02  0.49273436243E+02  0.47000000000E+01 0.  1.
         11    1    4    4    0    0  0.22712409510E+02 -0.23480996703E+02  0.87412104423E+02  0.93317130001E+02  0.00000000000E+00 0. -1.
        -12    1    4    4    0    0 -0.12641079420E+02  0.41812040999E+02  0.52833073549E+02  0.68552004507E+02  0.00000000000E+00 0.  1.
</event>
<event>
12    1  0.8226261E-002  0.1927606E+03  0.7818608E-02  0.1156148E+00
         21   -1    0    0  501  502  0.00000000000E+00  0.00000000000E+00  0.30169067132E+03  0.30169067132E+03  0.00000000000E+00 0. -1.
         21   -1    0    0  502  503 -0.00000000000E+00 -0.00000000000E+00 -0.13762713144E+03  0.13762713144E+03  0.00000000000E+00 0.  1.
         -6    2    1    2    0  503  0.21550992320E+02  0.85432819000E+02  0.98701479710E+01  0.19301308489E+03  0.17144509117E+03 0.  0.
        -24    2    3    3    0    0  0.70439684677E+02  0.20280425055E+02  0.23159194424E+02  0.11034732757E+03  0.79165267625E+02 0.  0.
          6    2    1    2  501    0 -0.21550992320E+02 -0.85432819000E+02  0.15419339191E+03  0.24630471787E+03  0.17066692739E+03 0.  0.
         24    2    5    5    0    0 -0.10968024894E+02 -0.46054628123E+02  0.65372670128E+01  0.93049824518E+02  0.79838635017E+02 0.  0.
          5    1    5    5  501    0 -0.10582967426E+02 -0.39378190877E+02  0.14765612490E+03  0.15325489335E+03  0.47000000000E+01 0. -1.
        -11    1    6    6    0    0  0.10753328463E+02  0.17654635604E+02 -0.11105067816E+02  0.23465778541E+02  0.00000000000E+00 0.  1.
         12    1    6    6    0    0 -0.21721353357E+02 -0.63709263727E+02  0.17642334829E+02  0.69584045977E+02  0.00000000000E+00 0. -1.
         -5    1    3    3    0  503 -0.48888692356E+02  0.65152393945E+02 -0.13289046453E+02  0.82665757316E+02  0.47000000000E+01 0.  1.
         13    1    4    4    0    0  0.26686540650E+02 -0.53242554730E+01 -0.27493865195E+02  0.38683740403E+02  0.00000000000E+00 0. -1.
        -14    1    4    4    0    0  0.43753144026E+02  0.25604680528E+02  0.50653059619E+02  0.71663587169E+02  0.00000000000E+00 0.  1.
</event>
<event>
12    1  0.8226261E-002  0.2093758E+03  0.7818608E-02  0.1142605E+00
         21   -1    0    0  501  502  0.00000000000E+00  0.00000000000E+00  0.28374657781E+02  0.28374657781E+02  0.00000000000E+00 0.  1.
         21   -1    0    0  502  503 -0.00000000000E+00 -0.00000000000E+00 -0.16261968096E+04  0.16261968096E+04  0.00000000000E+00 0.  1.
         -6    2    1    2    0  503  0.80232753420E+02  0.86191320332E+02 -0.10101958500E+04  0.10316655939E+04  0.17312424414E+03 0.  0.
        -24    2    3    3    0    0  0.11560225656E+03  0.69818205331E+02 -0.63399028971E+03  0.65341727041E+03  0.82292030669E+02 0.  0.
          6    2    1    2  501    0 -0.80232753420E+02 -0.86191320332E+02 -0.58762630182E+03  0.62290587345E+03  0.16982584660E+03 0.  0.
         24    2    5    5    0    0  0.39610869033E+01 -0.62193335726E+02 -0.43580642013E+03  0.44758938110E+03  0.80779434478E+02 0.  0.
          5    1    5    5  501    0 -0.84193840323E+02 -0.23997984605E+02 -0.15181988169E+03  0.17531649235E+03  0.47000000000E+01 0. -1.
        -13    1    6    6    0    0 -0.37304743315E+02 -0.26422970039E+02 -0.23973298551E+03  0.24405270242E+03  0.00000000000E+00 0.  1.
         14    1    6    6    0    0  0.41265830218E+02 -0.35770365687E+02 -0.19607343462E+03  0.20353667868E+03  0.00000000000E+00 0. -1.
         -5    1    3    3    0  503 -0.35369503135E+02  0.16373115000E+02 -0.37620556025E+03  0.37824832348E+03  0.47000000000E+01 0.  1.
         13    1    4    4    0    0  0.43013348540E+02 -0.14908669829E+02 -0.15128618646E+03  0.15798710960E+03  0.00000000000E+00 0. -1.
        -14    1    4    4    0    0  0.72588908015E+02  0.84726875160E+02 -0.48270410325E+03  0.49543016081E+03  0.00000000000E+00 0.  1.
</event>
<event>
12    1  0.8226261E-002  0.2131350E+03  0.7818608E-02  0.1139516E+00
         21   -1    0    0  501  502  0.00000000000E+00  0.00000000000E+00  0.11976735949E+03  0.11976735949E+03  0.00000000000E+00 0.  1.
         21   -1    0    0  502  503 -0.00000000000E+00 -0.00000000000E+00 -0.42668336047E+03  0.42668336047E+03  0.00000000000E+00 0. -1.
         -6    2    1    2    0  503 -0.12546169257E+03 -0.50002834855E+01 -0.24868756047E+03  0.32752408052E+03  0.17222334757E+03 0.  0.
        -24    2    3    3    0    0 -0.12621101188E+03 -0.13909331830E+02 -0.10383681424E+03  0.18232159670E+03  0.79601454769E+02 0.  0.
          6    2    1    2  501    0  0.12546169257E+03  0.50002834855E+01 -0.58228440519E+02  0.21892663944E+03  0.16962512501E+03 0.  0.
         24    2    5    5    0    0  0.11160877712E+03 -0.12171535322E+02  0.18291016672E+02  0.13915138039E+03  0.80149110862E+02 0.  0.
          5    1    5    5  501    0  0.13852915445E+02  0.17171818807E+02 -0.76519457191E+02  0.79775259048E+02  0.47000000000E+01 0. -1.
        -13    1    6    6    0    0  0.84123875248E+02  0.27945400552E+02  0.18344155451E+02  0.90522261560E+02  0.00000000000E+00 0.  1.
         14    1    6    6    0    0  0.27484901874E+02 -0.40116935873E+02 -0.53138779237E-01  0.48629118834E+02  0.00000000000E+00 0. -1.
         -5    1    3    3    0  503  0.74931931392E+00  0.89090483446E+01 -0.14485074623E+03  0.14520248381E+03  0.47000000000E+01 0.  1.
         11    1    4    4    0    0 -0.78047718232E+02  0.98048748224E+01 -0.10173103393E+03  0.12859543210E+03  0.00000000000E+00 0. -1.
        -12    1    4    4    0    0 -0.48163293648E+02 -0.23714206652E+02 -0.21057803028E+01  0.53726164602E+02  0.00000000000E+00 0.  1.
</event>
<event>
12    1  0.8226261E-002  0.1740392E+03  0.7818608E-02  0.1175000E+00
         21   -1    0    0  501  502  0.00000000000E+00  0.00000000000E+00  0.25940825247E+03  0.25940825247E+03  0.00000000000E+00 0. -1.
         21   -1    0    0  502  503 -0.00000000000E+00 -0.00000000000E+00 -0.15741465016E+03  0.15741465016E+03  0.00000000000E+00 0. -1.
         -6    2    1    2    0  503 -0.22934047472E+02 -0.12104251153E+02 -0.58664802621E+02  0.18366057280E+03  0.17209637853E+03 0.  0.
        -24    2    3    3    0    0 -0.32042923377E+02 -0.21961278472E+02 -0.10311032704E+03  0.13699551897E+03  0.81406301885E+02 0.  0.
          6    2    1    2  501    0  0.22934047472E+02  0.12104251153E+02  0.16065840493E+03  0.23316232983E+03  0.16697624247E+03 0.  0.
         24    2    5    5    0    0 -0.33305928243E+02 -0.37261274255E+02  0.97109618176E+02  0.13487485217E+03  0.79140763140E+02 0.  0.
          5    1    5    5  501    0  0.56239975715E+02  0.49365525408E+02  0.63548786751E+02  0.98287477660E+02  0.47000000000E+01 0. -1.
        -11    1    6    6    0    0 -0.33892564577E+02 -0.73721644609E+01  0.15186678587E+01  0.34718310651E+02  0.00000000000E+00 0.  1.
         12    1    6    6    0    0  0.58663633318E+00 -0.29889109794E+02  0.95590950317E+02  0.10015654152E+03  0.00000000000E+00 0. -1.
         -5    1    3    3    0  503  0.91088759055E+01  0.98570273187E+01  0.44445524416E+02  0.46665053825E+02  0.47000000000E+01 0.  1.
         13    1    4    4    0    0  0.57332632816E+01 -0.45145988750E+02 -0.58409529617E+02  0.74045281808E+02  0.00000000000E+00 0. -1.
        -14    1    4    4    0    0 -0.37776186659E+02  0.23184710278E+02 -0.44700797421E+02  0.62950237166E+02  0.00000000000E+00 0.  1.
</event>
<event>
12    1  0.8226261E-002  0.2494933E+03  0.7818608E-02  0.1113657E+00
         21   -1    0    0  503  502  0.00000000000E+00  0.00000000000E+00  0.84863701348E+03  0.84863701348E+03  0.00000000000E+00 0. -1.
         21   -1    0    0  501  503 -0.00000000000E+00 -0.00000000000E+00 -0.73620242213E+02  0.73620242213E+02  0.00000000000E+00 0.  1.
          6    2    1    2  501    0  0.47218320487E+02  0.17412108415E+03  0.35680609216E+03  0.43538201139E+03  0.17233451978E+03 0.  0.
         24    2    3    3    0    0  0.18487673680E+02  0.19302174714E+03  0.33186411801E+03  0.39264002733E+03  0.80207289522E+02 0.  0.
         -6    2    1    2    0  502 -0.47218320487E+02 -0.17412108415E+03  0.41821067910E+03  0.48687524430E+03  0.17204537093E+03 0.  0.
        -24    2    5    5    0    0  0.49181187789E+01 -0.22460113062E+02  0.14915789001E+03  0.17361696146E+03  0.85826153247E+02 0.  0.
          5    1    3    3  501    0  0.28730646807E+02 -0.18900662986E+02  0.24941974153E+02  0.42741984066E+02  0.47000000000E+01 0. -1.
        -11    1    4    4    0    0 -0.11439006940E+02  0.62332987908E+02  0.50745260849E+02  0.81187029505E+02  0.00000000000E+00 0.  1.
         12    1    4    4    0    0  0.29926680620E+02  0.13068875923E+03  0.28111885716E+03  0.31145299782E+03  0.00000000000E+00 0. -1.
         -5    1    5    5    0  502 -0.52136439266E+02 -0.15166097109E+03  0.26905278909E+03  0.31325828284E+03  0.47000000000E+01 0.  1.
         13    1    6    6    0    0  0.46121622676E+01  0.12075423219E+02  0.13607121219E+03  0.13668380546E+03  0.00000000000E+00 0. -1.
        -14    1    6    6    0    0  0.30595651129E+00 -0.34535536281E+02  0.13086677818E+02  0.36933155997E+02  0.00000000000E+00 0.  1.
</event>
<event>
12    1  0.8226261E-002  0.1803566E+03  0.7818608E-02  0.1167844E+00
         21   -1    0    0  503  502  0.00000000000E+00  0.00000000000E+00  0.20193238387E+03  0.20193238387E+03  0.00000000000E+00 0. -1.
         21   -1    0    0  501  503 -0.00000000000E+00 -0.00000000000E+00 -0.27896479696E+03  0.27896479696E+03  0.00000000000E+00 0. -1.
          6    2    1    2  501    0 -0.43666998362E+02 -0.16382494903E+02 -0.19565601287E+03  0.26502667471E+03  0.17257656287E+03 0.  0.
         24    2    3    3    0    0  0.39518389974E+02 -0.25973828770E+02 -0.12648648419E+03  0.15631459527E+03  0.78734230716E+02 0.  0.
         -6    2    1    2    0  502  0.43666998362E+02  0.16382494903E+02  0.11862359977E+03  0.21587050612E+03  0.17422205401E+03 0.  0.
        -24    2    5    5    0    0 -0.14113761659E+01  0.69369361139E+02  0.95311665774E+02  0.14235041288E+03  0.79782367516E+02 0.  0.
          5    1    3    3  501    0 -0.83185388336E+02  0.95913338667E+01 -0.69169528681E+02  0.10871207944E+03  0.47000000000E+01 0. -1.
        -13    1    4    4    0    0  0.43228277741E+02  0.18524633258E+02 -0.69507972023E+02  0.83923800012E+02  0.00000000000E+00 0.  1.
         14    1    4    4    0    0 -0.37098877674E+01 -0.44498462028E+02 -0.56978512164E+02  0.72390795261E+02  0.00000000000E+00 0. -1.
         -5    1    5    5    0  502  0.45078374528E+02 -0.52986866235E+02  0.23311933998E+02  0.73520093242E+02  0.47000000000E+01 0.  1.
         13    1    6    6    0    0  0.16454618060E+02 -0.10096612711E+02  0.38424511903E+02  0.43001618094E+02  0.00000000000E+00 0. -1.
        -14    1    6    6    0    0 -0.17865994225E+02  0.79465973850E+02  0.56887153871E+02  0.99348794784E+02  0.00000000000E+00 0.  1.
</event>
<event>
12    1  0.8226261E-002  0.1798033E+03  0.7818608E-02  0.1169080E+00
         21   -1    0    0  503  502  0.00000000000E+00  0.00000000000E+00  0.71543415076E+03  0.71543415076E+03  0.00000000000E+00 0. -1.
         21   -1    0    0  501  503 -0.00000000000E+00 -0.00000000000E+00 -0.79078128802E+02  0.79078128802E+02  0.00000000000E+00 0.  1.
          6    2    1    2  501    0  0.44157516983E+02 -0.28271759530E+02  0.51711433478E+02  0.18284364205E+03  0.16735754059E+03 0.  0.
         24    2    3    3    0    0  0.76845831548E+02 -0.37591522819E+02  0.77744009597E+02  0.13977197020E+03  0.78572693801E+02 0.  0.
         -6    2    1    2    0  502 -0.44157516983E+02  0.28271759530E+02  0.58464458848E+03  0.61166863751E+03  0.17198851293E+03 0.  0.
        -24    2    5    5    0    0  0.21186587526E+02 -0.28185107943E+02  0.20457130941E+03  0.22188021113E+03  0.78346254890E+02 0.  0.
          5    1    3    3  501    0 -0.32688314564E+02  0.93197632889E+01 -0.26032576118E+02  0.43071671852E+02  0.47000000000E+01 0. -1.
        -11    1    4    4    0    0  0.65699344237E+02 -0.26089518240E+02  0.11500141578E+02  0.71619271509E+02  0.00000000000E+00 0.  1.
         12    1    4    4    0    0  0.11146487310E+02 -0.11502004579E+02  0.66243868018E+02  0.68152698690E+02  0.00000000000E+00 0. -1.
         -5    1    5    5    0  502 -0.65344104509E+02  0.56456867474E+02  0.38007327906E+03  0.38978842638E+03  0.47000000000E+01 0.  1.
         13    1    6    6    0    0 -0.21158974438E+02  0.19303483664E+01  0.12534994207E+03  0.12713786384E+03  0.00000000000E+00 0. -1.
        -14    1    6    6    0    0  0.42345561964E+02 -0.30115456310E+02  0.79221367340E+02  0.94742347290E+02  0.00000000000E+00 0.  1.
</event>
<event>
12    1  0.8226261E-002  0.1874449E+03  0.7818608E-02  0.1161259E+00
         21   -1    0    0  501  502  0.00000000000E+00  0.00000000000E+00  0.24330085674E+03  0.24330085674E+03  0.00000000000E+00 0.  1.
         21   -1    0    0  502  503 -0.00000000000E+00 -0.00000000000E+00 -0.14554562691E+03  0.14554562691E+03  0.00000000000E+00 0.  1.
         -6    2    1    2    0  503 -0.13690689214E+02  0.71554403862E+02  0.22104431681E+02  0.18671126486E+03  0.17048467040E+03 0.  0.
        -24    2    3    3    0    0  0.20550156719E+02 -0.11215598975E+02  0.44133263025E+02  0.94349647772E+02  0.80037569479E+02 0.  0.
          6    2    1    2  501    0  0.13690689214E+02 -0.71554403862E+02  0.75650798152E+02  0.20213521880E+03  0.17270823875E+03 0.  0.
         24    2    5    5    0    0  0.65003972275E+01 -0.31561199968E+02  0.11515012029E+03  0.14527184653E+03  0.82498452612E+02 0.  0.
          5    1    5    5  501    0  0.71902919870E+01 -0.39993203894E+02 -0.39499322136E+02  0.56863372269E+02  0.47000000000E+01 0. -1.
        -11    1    6    6    0    0  0.42910162480E+02 -0.55385364403E+01  0.64688526906E+02  0.77823922692E+02  0.00000000000E+00 0.  1.
         12    1    6    6    0    0 -0.36409765253E+02 -0.26022663528E+02  0.50461593382E+02  0.67447923834E+02  0.00000000000E+00 0. -1.
         -5    1    3    3    0  503 -0.34240845933E+02  0.82770002837E+02 -0.22028831343E+02  0.92361617083E+02  0.47000000000E+01 0.  1.
         11    1    4    4    0    0 -0.12125901841E+02  0.24060713484E+02  0.36951576988E+02  0.45731547871E+02  0.00000000000E+00 0. -1.
        -12    1    4    4    0    0  0.32676058559E+02 -0.35276312459E+02  0.71816860367E+01  0.48618099901E+02  0.00000000000E+00 0.  1.
</event>
<event>
12    1  0.8226261E-002  0.1876143E+03  0.7818608E-02  0.1160857E+00
         21   -1    0    0  503  502  0.00000000000E+00  0.00000000000E+00  0.67833061368E+02  0.67833061368E+02  0.00000000000E+00 0.  1.
         21   -1    0    0  501  503 -0.00000000000E+00 -0.00000000000E+00 -0.75965507291E+03  0.75965507291E+03  0.00000000000E+00 0.  1.
          6    2    1    2  501    0  0.71950050470E+02 -0.86644709316E+01 -0.57952203781E+03  0.60883221621E+03  0.17198544233E+03 0.  0.
         24    2    3    3    0    0 -0.24285917870E+02  0.23319831019E+00 -0.35159229221E+03  0.36121438759E+03  0.79175966536E+02 0.  0.
         -6    2    1    2    0  502 -0.71950050470E+02  0.86644709316E+01 -0.11229997373E+03  0.21865591807E+03  0.17305271909E+03 0.  0.
        -24    2    5    5    0    0  0.22980942165E+02  0.29188778006E+02 -0.67526778744E+02  0.11160513790E+03  0.80720087306E+02 0.  0.
          5    1    3    3  501    0  0.96235968340E+02 -0.88976692418E+01 -0.22792974560E+03  0.24761782862E+03  0.47000000000E+01 0. -1.
        -13    1    4    4    0    0 -0.43978482627E+02 -0.38005198225E+01 -0.10631607536E+03  0.11511584932E+03  0.00000000000E+00 0.  1.
         14    1    4    4    0    0  0.19692564758E+02  0.40337181327E+01 -0.24527621684E+03  0.24609853827E+03  0.00000000000E+00 0. -1.
         -5    1    5    5    0  502 -0.94930992635E+02 -0.20524307074E+02 -0.44773194990E+02  0.10705078016E+03  0.47000000000E+01 0.  1.
         11    1    6    6    0    0 -0.13328064173E+02 -0.22083033720E+02 -0.23446946952E+02  0.34857667654E+02  0.00000000000E+00 0. -1.
        -12    1    6    6    0    0  0.36309006338E+02  0.51271811726E+02 -0.44079831792E+02  0.76747470250E+02  0.00000000000E+00 0.  1.
</event>
<event>
12    1  0.8226261E-002  0.2292116E+03  0.7818608E-02  0.1128414E+00
         21   -1    0    0  501  502  0.00000000000E+00  0.00000000000E+00  0.38026020358E+03  0.38026020358E+03  0.00000000000E+00 0. -1.
         21   -1    0    0  502  503 -0.00000000000E+00 -0.00000000000E+00 -0.13437074515E+03  0.13437074515E+03  0.00000000000E+00 0. -1.
         -6    2    1    2    0  503  0.13962030487E+03  0.23714105465E+02  0.11337455491E+03  0.25571809896E+03  0.18022699050E+03 0.  0.
        -24    2    3    3    0    0  0.88599831879E+02  0.86238086538E+02  0.93761805768E+02  0.17253705062E+03  0.75437522741E+02 0.  0.
          6    2    1    2  501    0 -0.13962030487E+03 -0.23714105465E+02  0.13251490352E+03  0.25891284977E+03  0.17152106514E+03 0.  0.
         24    2    5    5    0    0 -0.15339588964E+03  0.10743359145E+02  0.13825465456E+03  0.22106951026E+03  0.78177107486E+02 0.  0.
          5    1    5    5  501    0  0.13775584770E+02 -0.34457464609E+02 -0.57397510342E+01  0.37843339507E+02  0.47000000000E+01 0. -1.
        -11    1    6    6    0    0 -0.12637373510E+02  0.26506601664E+02  0.13484931268E+02  0.32313255984E+02  0.00000000000E+00 0.  1.
         12    1    6    6    0    0 -0.14075851613E+03 -0.15763242519E+02  0.12476972329E+03  0.18875625428E+03  0.00000000000E+00 0. -1.
         -5    1    3    3    0  503  0.51020472991E+02 -0.62523981074E+02  0.19612749140E+02  0.83181048336E+02  0.47000000000E+01 0.  1.
         13    1    4    4    0    0  0.63245714368E+02  0.31173204326E+02  0.86323416574E+02  0.11146085099E+03  0.00000000000E+00 0. -1.
        -14    1    4    4    0    0  0.25354117511E+02  0.55064882212E+02  0.74383891941E+01  0.61076199633E+02  0.00000000000E+00 0.  1.
</event>
<event>
12    1  0.8226261E-002  0.1941716E+03  0.7818608E-02  0.1154812E+00
         21   -1    0    0  503  502  0.00000000000E+00  0.00000000000E+00  0.21911424796E+02  0.21911424796E+02  0.00000000000E+00 0. -1.
         21   -1    0    0  501  503 -0.00000000000E+00 -0.00000000000E+00 -0.17646030377E+04  0.17646030377E+04  0.00000000000E+00 0. -1.
          6    2    1    2  501    0 -0.11370967067E+02  0.89887306444E+02 -0.72715062882E+03  0.75262914914E+03  0.17173692787E+03 0.  0.
         24    2    3    3    0    0 -0.55552156499E+02  0.44205272133E+02 -0.32112966301E+03  0.34163773751E+03  0.92476673010E+02 0.  0.
         -6    2    1    2    0  502  0.11370967067E+02 -0.89887306444E+02 -0.10155409840E+04  0.10338853133E+04  0.17142439749E+03 0.  0.
        -24    2    5    5    0    0  0.12777995680E+02 -0.56217441086E+02 -0.26630076833E+03  0.28387289314E+03  0.79649497127E+02 0.  0.
          5    1    3    3  501    0  0.44181189432E+02  0.45682034311E+02 -0.40602096580E+03  0.41099141163E+03  0.47000000000E+01 0. -1.
        -13    1    4    4    0    0  0.49243202661E+01 -0.19620805586E+02 -0.22152520037E+02  0.29999318091E+02  0.00000000000E+00 0.  1.
         14    1    4    4    0    0 -0.60476476766E+02  0.63826077718E+02 -0.29897714298E+03  0.31163841942E+03  0.00000000000E+00 0. -1.
         -5    1    5    5    0  502 -0.14070286126E+01 -0.33669865358E+02 -0.74924021572E+03  0.75001242018E+03  0.47000000000E+01 0.  1.
         13    1    6    6    0    0  0.16600712358E+02 -0.73920009849E+02 -0.24189418961E+03  0.25348086807E+03  0.00000000000E+00 0. -1.
        -14    1    6    6    0    0 -0.38227166775E+01  0.17702568763E+02 -0.24406578713E+02  0.30392025074E+02  0.00000000000E+00 0.  1.
</event>
<event>
12    1  0.8226261E-002  0.2721102E+03  0.7818608E-02  0.1100321E+00
         21   -1    0    0  501  502  0.00000000000E+00  0.00000000000E+00  0.44445603058E+03  0.44445603058E+03  0.00000000000E+00 0. -1.
         21   -1    0    0  502  503 -0.00000000000E+00 -0.00000000000E+00 -0.22780398326E+03  0.22780398326E+03  0.00000000000E+00 0.  1.
         -6    2    1    2    0  503  0.17742884607E+03 -0.10970316813E+03 -0.67141951721E+02  0.28027133158E+03  0.17472320141E+03 0.  0.
        -24    2    3    3    0    0  0.44232378166E+02  0.12610842159E+02 -0.99534876909E+01  0.90548832671E+02  0.77359437451E+02 0.  0.
          6    2    1    2  501    0 -0.17742884607E+03  0.10970316813E+03  0.28379399905E+03  0.39198868226E+03  0.17204741384E+03 0.  0.
         24    2    5    5    0    0 -0.10920790034E+03  0.42557143709E+02  0.25598192333E+03  0.29219746227E+03  0.78199334426E+02 0.  0.
          5    1    5    5  501    0 -0.68220945730E+02  0.67146024419E+02  0.27812075712E+02  0.99791219990E+02  0.47000000000E+01 0. -1.
        -13    1    6    6    0    0 -0.47955136313E+02 -0.20697182114E+02  0.10880584371E+03  0.12069291641E+03  0.00000000000E+00 0.  1.
         14    1    6    6    0    0 -0.61252764029E+02  0.63254325823E+02  0.14717607963E+03  0.17150454586E+03  0.00000000000E+00 0. -1.
         -5    1    3    3    0  503  0.13319646791E+03 -0.12231401029E+03 -0.57188464030E+02  0.18972249891E+03  0.47000000000E+01 0.  1.
         13    1    4    4    0    0  0.41430067692E+02  0.17892602663E+02  0.27349817165E+02  0.52769387318E+02  0.00000000000E+00 0. -1.
        -14    1    4    4    0    0  0.28023104741E+01 -0.52817605032E+01 -0.37303304856E+02  0.37779445353E+02  0.00000000000E+00 0.  1.
</event>
<event>
12    1  0.8226261E-002  0.1824881E+03  0.7818608E-02  0.1165863E+00
         21   -1    0    0  503  502  0.00000000000E+00  0.00000000000E+00  0.49955298413E+02  0.49955298413E+02  0.00000000000E+00 0. -1.
         21   -1    0    0  501  503 -0.00000000000E+00 -0.00000000000E+00 -0.66050096127E+03  0.66050096127E+03  0.00000000000E+00 0. -1.
          6    2    1    2  501    0  0.74880877951E+01 -0.56450128078E+02 -0.31814951481E+03  0.36677104922E+03  0.17337589322E+03 0.  0.
         24    2    3    3    0    0  0.14005710600E+02  0.15243104962E+02 -0.26131738770E+03  0.27493216996E+03  0.82899992684E+02 0.  0.
         -6    2    1    2    0  502 -0.74880877951E+01  0.56450128078E+02 -0.29239614804E+03  0.34368521046E+03  0.17140982493E+03 0.  0.
        -24    2    5    5    0    0  0.42998692968E+02  0.59713548590E+02 -0.11035025820E+03  0.15468161009E+03  0.79590360807E+02 0.  0.
          5    1    3    3  501    0 -0.65176228045E+01 -0.71693233040E+02 -0.56832127111E+02  0.91838879254E+02  0.47000000000E+01 0. -1.
        -13    1    4    4    0    0 -0.10244798391E+02 -0.12507399845E+02 -0.64380860360E+01  0.17402295733E+02  0.00000000000E+00 0.  1.
         14    1    4    4    0    0  0.24250508991E+02  0.27750504807E+02 -0.25487930167E+03  0.25752987423E+03  0.00000000000E+00 0. -1.
         -5    1    5    5    0  502 -0.50486780764E+02 -0.32634205114E+01 -0.18204588984E+03  0.18900360037E+03  0.47000000000E+01 0.  1.
         13    1    6    6    0    0 -0.16681813623E+02  0.21863688765E+02 -0.51984779390E+01  0.27987996803E+02  0.00000000000E+00 0. -1.
        -14    1    6    6    0    0  0.59680506591E+02  0.37849859825E+02 -0.10515178026E+03  0.12669361329E+03  0.00000000000E+00 0.  1.
</event>
<event>
12    1  0.8226261E-002  0.2217966E+03  0.7818608E-02  0.1132658E+00
         21   -1    0    0  501  502  0.00000000000E+00  0.00000000000E+00  0.31310118864E+03  0.31310118864E+03  0.00000000000E+00 0. -1.
         21   -1    0    0  502  503 -0.00000000000E+00 -0.00000000000E+00 -0.17844057932E+03  0.17844057932E+03  0.00000000000E+00 0.  1.
         -6    2    1    2    0  503 -0.30657272291E+02  0.13591045901E+03 -0.18524158303E+02  0.22198787415E+03  0.17182534916E+03 0.  0.
        -24    2    3    3    0    0  0.22806902388E+02  0.10865369353E+02 -0.13190916205E+02  0.85807016851E+02  0.80935979779E+02 0.  0.
          6    2    1    2  501    0  0.30657272291E+02 -0.13591045901E+03  0.15318476762E+03  0.26955389382E+03  0.17257522252E+03 0.  0.
         24    2    5    5    0    0  0.19708850141E+00 -0.52249313129E+02  0.15323483987E+03  0.18039615363E+03  0.79572775049E+02 0.  0.
          5    1    5    5  501    0  0.30460183790E+02 -0.83661145886E+02 -0.50072248778E-01  0.89157740184E+02  0.47000000000E+01 0. -1.
        -11    1    6    6    0    0  0.13913795184E+02 -0.45176733720E+01 -0.42762739212E+01  0.15241049431E+02  0.00000000000E+00 0.  1.
         12    1    6    6    0    0 -0.13716706682E+02 -0.47731639757E+02  0.15751111379E+03  0.16515510420E+03  0.00000000000E+00 0. -1.
         -5    1    3    3    0  503 -0.53464174680E+02  0.12504508966E+03 -0.53332420984E+01  0.13618085730E+03  0.47000000000E+01 0.  1.
         13    1    4    4    0    0 -0.63212114630E+01 -0.30543743182E+02 -0.16089764543E+02  0.35096416982E+02  0.00000000000E+00 0. -1.
        -14    1    4    4    0    0  0.29128113851E+02  0.41409112535E+02  0.28988483379E+01  0.50710599869E+02  0.00000000000E+00 0.  1.
</event>
<event>
12    1  0.8226261E-002  0.2296213E+03  0.7818608E-02  0.1127118E+00
         21   -1    0    0  503  502  0.00000000000E+00  0.00000000000E+00  0.47425221186E+03  0.47425221186E+03  0.00000000000E+00 0.  1.
         21   -1    0    0  501  503 -0.00000000000E+00 -0.00000000000E+00 -0.45128487199E+03  0.45128487199E+03  0.00000000000E+00 0. -1.
          6    2    1    2  501    0 -0.43629178807E+02 -0.14413305367E+03 -0.39059133791E+03  0.45308664967E+03  0.17334380997E+03 0.  0.
         24    2    3    3    0    0 -0.90259789065E+02 -0.13486349377E+03 -0.31831978087E+03  0.36645174613E+03  0.81390465521E+02 0.  0.
         -6    2    1    2    0  502  0.43629178807E+02  0.14413305367E+03  0.41355867778E+03  0.47245043419E+03  0.17175794130E+03 0.  0.
        -24    2    5    5    0    0 -0.36061291807E+01  0.82510820282E+01  0.14109378591E+03  0.16430389140E+03  0.83709185772E+02 0.  0.
          5    1    3    3  501    0  0.46630610259E+02 -0.92695599017E+01 -0.72271557036E+02  0.86634903533E+02  0.47000000000E+01 0. -1.
        -13    1    4    4    0    0  0.14036678319E+01  0.79253842906E+01 -0.37468794460E+02  0.38323524861E+02  0.00000000000E+00 0.  1.
         14    1    4    4    0    0 -0.91663456897E+02 -0.14278887806E+03 -0.28085098641E+03  0.32812822127E+03  0.00000000000E+00 0. -1.
         -5    1    5    5    0  502  0.47235307987E+02  0.13588197164E+03  0.27246489186E+03  0.30814654279E+03  0.47000000000E+01 0.  1.
         11    1    6    6    0    0 -0.16726791226E+02  0.27491968337E+02  0.14000108458E+02  0.35094114957E+02  0.00000000000E+00 0. -1.
        -12    1    6    6    0    0  0.13120662046E+02 -0.19240886309E+02  0.12709367746E+03  0.12920977644E+03  0.00000000000E+00 0.  1.
</event>
<event>
12    1  0.8226261E-002  0.2999961E+03  0.7818608E-02  0.1085323E+00
         21   -1    0    0  503  502  0.00000000000E+00  0.00000000000E+00  0.29992650459E+03  0.29992650459E+03  0.00000000000E+00 0. -1.
         21   -1    0    0  501  503 -0.00000000000E+00 -0.00000000000E+00 -0.33175503112E+03  0.33175503112E+03  0.00000000000E+00 0. -1.
          6    2    1    2  501    0  0.24191964288E+03  0.42324395367E+02 -0.11450312815E+03  0.32050194364E+03  0.17115508017E+03 0.  0.
         24    2    3    3    0    0  0.22921316375E+03  0.72302986946E+02 -0.12681283406E+03  0.28537660486E+03  0.87131597931E+02 0.  0.
         -6    2    1    2    0  502 -0.24191964288E+03 -0.42324395367E+02  0.82674601621E+02  0.31117959207E+03  0.17228227046E+03 0.  0.
        -24    2    5    5    0    0 -0.21715312915E+03 -0.62894695827E+02  0.19985881295E+02  0.24055039755E+03  0.79710940565E+02 0.  0.
          5    1    3    3  501    0  0.12706479126E+02 -0.29978591579E+02  0.12309705914E+02  0.35125338782E+02  0.47000000000E+01 0. -1.
        -11    1    4    4    0    0  0.25095094686E+02  0.27425484738E+02 -0.50886751799E+02  0.63018905886E+02  0.00000000000E+00 0.  1.
         12    1    4    4    0    0  0.20411806907E+03  0.44877502209E+02 -0.75926082263E+02  0.22235769897E+03  0.00000000000E+00 0. -1.
         -5    1    5    5    0  502 -0.24766513731E+02  0.20570300459E+02  0.62688720326E+02  0.70629194527E+02  0.47000000000E+01 0.  1.
         13    1    6    6    0    0 -0.89833634525E+02  0.13833226891E+02  0.31374745411E+01  0.90946598643E+02  0.00000000000E+00 0. -1.
        -14    1    6    6    0    0 -0.12731949462E+03 -0.76727922718E+02  0.16848406754E+02  0.14960379890E+03  0.00000000000E+00 0.  1.
</event>
<event>
12    1  0.8226261E-002  0.2753809E+03  0.7818608E-02  0.1098245E+00
         21   -1    0    0  501  502  0.00000000000E+00  0.00000000000E+00  0.36928444571E+03  0.36928444571E+03  0.00000000000E+00 0. -1.
         21   -1    0    0  502  503 -0.00000000000E+00 -0.00000000000E+00 -0.31409152888E+03  0.31409152888E+03  0.00000000000E+00 0. -1.
         -6    2    1    2    0  503  0.12848896759E+03  0.17285249933E+03 -0.17347608883E+03  0.32546669481E+03  0.17160190767E+03 0.  0.
        -24    2    3    3    0    0  0.10055297028E+03  0.13691263463E+03 -0.19221621578E+03  0.27601594983E+03  0.10189092990E+03 0.  0.
          6    2    1    2  501    0 -0.12848896759E+03 -0.17285249933E+03  0.22866900566E+03  0.35790927978E+03  0.17152882291E+03 0.  0.
         24    2    5    5    0    0 -0.11740058399E+01 -0.76074548960E+02  0.10048186784E+03  0.15289927157E+03  0.86561343531E+02 0.  0.
          5    1    5    5  501    0 -0.12731496175E+03 -0.96777950369E+02  0.12818713783E+03  0.20501000821E+03  0.47000000000E+01 0. -1.
        -13    1    6    6    0    0 -0.18090501381E+02 -0.76706711283E+01 -0.98542345957E+01  0.21982069403E+02  0.00000000000E+00 0.  1.
         14    1    6    6    0    0  0.16916495541E+02 -0.68403877831E+02  0.11033610243E+03  0.13091720217E+03  0.00000000000E+00 0. -1.
         -5    1    3    3    0  503  0.27935997311E+02  0.35939864699E+02  0.18740126958E+02  0.49450744977E+02  0.47000000000E+01 0.  1.
         11    1    4    4    0    0  0.15065814350E+02  0.10522245553E+03 -0.92564583756E+02  0.14095015458E+03  0.00000000000E+00 0. -1.
        -12    1    4    4    0    0  0.85487155931E+02  0.31690179096E+02 -0.99651632029E+02  0.13506579525E+03  0.00000000000E+00 0.  1.
</event>
<event>
12    1  0.8226261E-002  0.1719937E+03  0.7818608E-02  0.1176040E+00
         21   -1    0    0  501  502  0.00000000000E+00  0.00000000000E+00  0.11639372421E+04  0.11639372421E+04  0.00000000000E+00 0.  1.
         21   -1    0    0  502  503 -0.00000000000E+00 -0.00000000000E+00 -0.16715976279E+03  0.16715976279E+03  0.00000000000E+00 0.  1.
         -6    2    1    2    0  503  0.12043563087E+02  0.11100956313E+02 -0.11457736000E+03  0.20666349605E+03  0.17121200464E+03 0.  0.
        -24    2    3    3    0    0  0.61425719902E+02  0.12322715172E+02 -0.33721195905E+02  0.11179569657E+03  0.86233348206E+02 0.  0.
          6    2    1    2  501    0 -0.12043563087E+02 -0.11100956313E+02  0.11113548393E+04  0.11244335088E+04  0.17021415429E+03 0.  0.
         24    2    5    5    0    0 -0.62198705388E+02 -0.11505132755E+02  0.45275205924E+03  0.46390689048E+03  0.78893148349E+02 0.  0.
          5    1    5    5  501    0  0.50155142301E+02  0.40417644182E+00  0.65860278002E+03  0.66052661832E+03  0.47000000000E+01 0. -1.
        -13    1    6    6    0    0 -0.45895580738E+02  0.30328673483E+02  0.21314722621E+03  0.22013171695E+03  0.00000000000E+00 0.  1.
         14    1    6    6    0    0 -0.16303124651E+02 -0.41833806238E+02  0.23960483303E+03  0.24377517353E+03  0.00000000000E+00 0. -1.
         -5    1    3    3    0  503 -0.49382156815E+02 -0.12217588585E+01 -0.80856164094E+02  0.94867799482E+02  0.47000000000E+01 0.  1.
         11    1    4    4    0    0  0.41811681540E+01  0.36916316562E+02  0.63880758892E+01  0.37697534524E+02  0.00000000000E+00 0. -1.
        -12    1    4    4    0    0  0.57244551748E+02 -0.24593601390E+02 -0.40109271794E+02  0.74098162042E+02  0.00000000000E+00 0.  1.
</event>
<event>
12    1  0.8226261E-002  0.2265652E+03  0.7818608E-02  0.1129588E+00
         21   -1    0    0  501  502  0.00000000000E+00  0.00000000000E+00  0.37767058801E+02  0.37767058801E+02  0.00000000000E+00 0.  1.
         21   -1    0    0  502  503 -0.00000000000E+00 -0.00000000000E+00 -0.13678483410E+04  0.13678483410E+04  0.00000000000E+00 0.  1.
         -6    2    1    2    0  503  0.40488113262E+01  0.14371605339E+03 -0.76502495511E+03  0.79786901639E+03  0.17510307965E+03 0.  0.
        -24    2    3    3    0    0  0.52894026703E+02  0.97654833535E+02 -0.66836111990E+03  0.68008328688E+03  0.58927463222E+02 0.  0.
          6    2    1    2  501    0 -0.40488113262E+01 -0.14371605339E+03 -0.56505632707E+03  0.60774638339E+03  0.17145354147E+03 0.  0.
         24    2    5    5    0    0 -0.45400598680E+02 -0.87834718268E+02 -0.48583478548E+03  0.50224360340E+03  0.80231205163E+02 0.  0.
          5    1    5    5  501    0  0.41351787353E+02 -0.55881335126E+02 -0.79221541588E+02  0.10550277998E+03  0.47000000000E+01 0. -1.
        -11    1    6    6    0    0 -0.38234202769E+02 -0.56092809105E+02 -0.14777600668E+03  0.16262227906E+03  0.00000000000E+00 0.  1.
         12    1    6    6    0    0 -0.71663959112E+01 -0.31741909163E+02 -0.33805877880E+03  0.33962132435E+03  0.00000000000E+00 0. -1.
         -5    1    3    3    0  503 -0.48845215377E+02  0.46061219859E+02 -0.96663835204E+02  0.11778572951E+03  0.47000000000E+01 0.  1.
         13    1    4    4    0    0  0.37636004090E+02  0.13743316882E+02 -0.18999886554E+03  0.19417753853E+03  0.00000000000E+00 0. -1.
        -14    1    4    4    0    0  0.15258022614E+02  0.83911516653E+02 -0.47836225437E+03  0.48590574835E+03  0.00000000000E+00 0.  1.
</event>
<event>
12    1  0.8226261E-002  0.1826730E+03  0.7818608E-02  0.1165540E+00
         21   -1    0    0  503  502  0.00000000000E+00  0.00000000000E+00  0.17405232038E+04  0.17405232038E+04  0.00000000000E+00 0. -1.
         21   -1    0    0  501  503 -0.00000000000E+00 -0.00000000000E+00 -0.77158425901E+02  0.77158425901E+02  0.00000000000E+00 0.  1.
          6    2    1    2  501    0 -0.48097017037E+02 -0.33160740111E+02  0.42202564474E+02  0.18626005329E+03  0.17175212741E+03 0.  0.
         24    2    3    3    0    0 -0.70791860231E+02 -0.76037168002E+02  0.43077517683E+02  0.13751275060E+03  0.79126137620E+02 0.  0.
         -6    2    1    2    0  502  0.48097017037E+02  0.33160740111E+02  0.16211622134E+04  0.16314215764E+04  0.17307940378E+03 0.  0.
        -24    2    5    5    0    0 -0.35750172141E+02  0.29924294665E+02  0.10809168711E+04  0.10846785420E+04  0.77283369178E+02 0.  0.
          5    1    3    3  501    0  0.22694843194E+02  0.42876427891E+02 -0.87495320954E+00  0.48747302689E+02  0.47000000000E+01 0. -1.
        -11    1    4    4    0    0 -0.53281681880E+02 -0.65328619059E+01 -0.39791330720E+00  0.53682159454E+02  0.00000000000E+00 0.  1.
         12    1    4    4    0    0 -0.17510178351E+02 -0.69504306096E+02  0.43475430991E+02  0.83830591145E+02  0.00000000000E+00 0. -1.
         -5    1    5    5    0  502  0.83847189179E+02  0.32364454460E+01  0.54024534237E+03  0.54674303440E+03  0.47000000000E+01 0.  1.
         13    1    6    6    0    0 -0.20000957459E+02 -0.25546020782E+02  0.35974208652E+03  0.36120216817E+03  0.00000000000E+00 0. -1.
        -14    1    6    6    0    0 -0.15749214682E+02  0.55470315447E+02  0.72117478453E+03  0.72347637384E+03  0.00000000000E+00 0.  1.
</event>
<event>
12    1  0.8226261E-002  0.2106274E+03  0.7818608E-02  0.1141093E+00
         21   -1    0    0  501  502  0.00000000000E+00  0.00000000000E+00  0.88575880557E+02  0.88575880557E+02  0.00000000000E+00 0. -1.
         21   -1    0    0  502  503 -0.00000000000E+00 -0.00000000000E+00 -0.74920840797E+03  0.74920840797E+03  0.00000000000E+00 0. -1.
         -6    2    1    2    0  503  0.83282435614E+02  0.88150822377E+02 -0.57156581870E+03  0.60909937266E+03  0.17206983787E+03 0.  0.
        -24    2    3    3    0    0  0.29620595942E+02  0.49428190652E+02 -0.50697827752E+03  0.51651062755E+03  0.80222993998E+02 0.  0.
          6    2    1    2  501    0 -0.83282435614E+02 -0.88150822377E+02 -0.89066708717E+02  0.22868491587E+03  0.17221318352E+03 0.  0.
         24    2    5    5    0    0 -0.69493635049E+02 -0.76857141630E+02 -0.13134628316E+03  0.18256192095E+03  0.73079568617E+02 0.  0.
          5    1    5    5  501    0 -0.13788800565E+02 -0.11293680747E+02  0.42279574439E+02  0.46122994922E+02  0.47000000000E+01 0. -1.
        -11    1    6    6    0    0 -0.66144383483E+02 -0.21339211267E+02 -0.87467335823E+02  0.11171828964E+03  0.00000000000E+00 0.  1.
         12    1    6    6    0    0 -0.33492515652E+01 -0.55517930364E+02 -0.43878947333E+02  0.70843631308E+02  0.00000000000E+00 0. -1.
         -5    1    3    3    0  503  0.53661839672E+02  0.38722631725E+02 -0.64587541183E+02  0.92588745109E+02  0.47000000000E+01 0.  1.
         11    1    4    4    0    0  0.33691344843E+02  0.64428979084E+02 -0.28996042415E+03  0.29893686229E+03  0.00000000000E+00 0. -1.
        -12    1    4    4    0    0 -0.40707489019E+01 -0.15000788432E+02 -0.21701785337E+03  0.21757376527E+03  0.00000000000E+00 0.  1.
</event>
<event>
12    1  0.8226261E-002  0.2137871E+03  0.7818608E-02  0.1138705E+00
         21   -1    0    0  501  502  0.00000000000E+00  0.00000000000E+00  0.36873645994E+02  0.36873645994E+02  0.00000000000E+00 0. -1.
         21   -1    0    0  502  503 -0.00000000000E+00 -0.00000000000E+00 -0.15119576243E+04  0.15119576243E+04  0.00000000000E+00 0.  1.
         -6    2    1    2    0  503  0.10057966138E+02 -0.12652733959E+03 -0.10689042208E+04  0.10900739320E+04  0.17203085092E+03 0.  0.
        -24    2    3    3    0    0 -0.34563170917E+02 -0.13294762649E+03 -0.94744338488E+03  0.96043176827E+03  0.76879970038E+02 0.  0.
          6    2    1    2  501    0 -0.10057966138E+02  0.12652733959E+03 -0.40617975749E+03  0.45875733826E+03  0.17136501880E+03 0.  0.
         24    2    5    5    0    0  0.46347353128E+02  0.12322843114E+03 -0.32761153544E+03  0.36186823488E+03  0.79284159060E+02 0.  0.
          5    1    5    5  501    0 -0.56405319266E+02  0.32989084553E+01 -0.78568222049E+02  0.96889103383E+02  0.47000000000E+01 0. -1.
        -11    1    6    6    0    0  0.98022733293E+00 -0.10742894292E+01 -0.89084520240E+02  0.89096389881E+02  0.00000000000E+00 0.  1.
         12    1    6    6    0    0  0.45367125795E+02  0.12430272056E+03 -0.23852701520E+03  0.27277184500E+03  0.00000000000E+00 0. -1.
         -5    1    3    3    0  503  0.44621137055E+02  0.64202868989E+01 -0.12146083591E+03  0.12964216373E+03  0.47000000000E+01 0.  1.
         13    1    4    4    0    0 -0.53280048863E+02 -0.70193463165E+02 -0.64408342410E+03  0.65008410461E+03  0.00000000000E+00 0. -1.
        -14    1    4    4    0    0  0.18716877946E+02 -0.62754163325E+02 -0.30335996078E+03  0.31034766366E+03  0.00000000000E+00 0.  1.
</event>
<event>
12    1  0.8226261E-002  0.1739922E+03  0.7818608E-02  0.1173794E+00
         21   -1    0    0  501  502  0.00000000000E+00  0.00000000000E+00  0.13248519025E+03  0.13248519025E+03  0.00000000000E+00 0. -1.
         21   -1    0    0  502  503 -0.00000000000E+00 -0.00000000000E+00 -0.25709547456E+03  0.25709547456E+03  0.00000000000E+00 0. -1.
         -6    2    1    2    0  503 -0.20555904792E+02 -0.13582500406E+02 -0.12750946163E+03  0.21556435933E+03  0.17205319140E+03 0.  0.
        -24    2    3    3    0    0 -0.71866987166E+02 -0.20325206349E+02 -0.12100810337E+03  0.16319405365E+03  0.80070969821E+02 0.  0.
          6    2    1    2  501    0  0.20555904792E+02  0.13582500406E+02  0.28991773243E+01  0.17401630548E+03  0.17223890328E+03 0.  0.
         24    2    5    5    0    0 -0.28812345692E+02 -0.31600409692E+02  0.37863198809E+02  0.98363861238E+02  0.80081772063E+02 0.  0.
          5    1    5    5  501    0  0.49368250484E+02  0.45182910098E+02 -0.34964021485E+02  0.75652444238E+02  0.47000000000E+01 0. -1.
        -13    1    6    6    0    0 -0.31971057008E+02 -0.48742715500E+02  0.18128132568E+01  0.58320554631E+02  0.00000000000E+00 0.  1.
         14    1    6    6    0    0  0.31587113163E+01  0.17142305808E+02  0.36050385552E+02  0.40043306607E+02  0.00000000000E+00 0. -1.
         -5    1    3    3    0  503  0.51311082374E+02  0.67427059433E+01 -0.65013582573E+01  0.52370305680E+02  0.47000000000E+01 0.  1.
         13    1    4    4    0    0 -0.73246905111E+02  0.47527107770E+01 -0.11647263620E+03  0.13767197373E+03  0.00000000000E+00 0. -1.
        -14    1    4    4    0    0  0.13799179446E+01 -0.25077917126E+02 -0.45354671715E+01  0.25522079919E+02  0.00000000000E+00 0.  1.
</event>
<event>
12    1  0.8226261E-002  0.2632649E+03  0.7818608E-02  0.1105310E+00
         21   -1    0    0  503  502  0.00000000000E+00  0.00000000000E+00  0.16408866270E+03  0.16408866270E+03  0.00000000000E+00 0. -1.
         21   -1    0    0  501  503 -0.00000000000E+00 -0.00000000000E+00 -0.89946076764E+03  0.89946076764E+03  0.00000000000E+00 0. -1.
          6    2    1    2  501    0  0.18551276839E+03 -0.72768441437E+02 -0.75521717233E+03  0.79953757942E+03  0.17087167765E+03 0.  0.
         24    2    3    3    0    0  0.52498162205E+02  0.21762935048E+02 -0.25548511456E+03  0.27381589815E+03  0.80453837331E+02 0.  0.
         -6    2    1    2    0  502 -0.18551276839E+03  0.72768441437E+02  0.19845067379E+02  0.26401185092E+03  0.17204126662E+03 0.  0.
        -24    2    5    5    0    0 -0.16990889045E+03  0.56162440984E+02  0.71036795274E+02  0.20778086958E+03  0.78124340951E+02 0.  0.
          5    1    3    3  501    0  0.13301460618E+03 -0.94531376484E+02 -0.49973205777E+03  0.52572168127E+03  0.47000000000E+01 0. -1.
        -13    1    4    4    0    0 -0.26613560710E+01  0.80457274515E+01 -0.17543049964E+03  0.17563506698E+03  0.00000000000E+00 0.  1.
         14    1    4    4    0    0  0.55159518276E+02  0.13717207596E+02 -0.80054614916E+02  0.98180831174E+02  0.00000000000E+00 0. -1.
         -5    1    5    5    0  502 -0.15603877941E+02  0.16606000453E+02 -0.51191727894E+02  0.56230981342E+02  0.47000000000E+01 0.  1.
         13    1    6    6    0    0 -0.53085084359E+02  0.46357621008E+02  0.55117080085E+02  0.89470373443E+02  0.00000000000E+00 0. -1.
        -14    1    6    6    0    0 -0.11682380609E+03  0.98048199757E+01  0.15919715188E+02  0.11831049613E+03  0.00000000000E+00 0.  1.
</event>
<event>
12    1  0.8226261E-002  0.2186562E+03  0.7818608E-02  0.1135566E+00
         21   -1    0    0  501  502  0.00000000000E+00  0.00000000000E+00  0.73764739560E+02  0.73764739560E+02  0.00000000000E+00 0.  1.
         21   -1    0    0  502  503 -0.00000000000E+00 -0.00000000000E+00 -0.73605953535E+03  0.73605953535E+03  0.00000000000E+00 0.  1.
         -6    2    1    2    0  503 -0.12981994340E+03 -0.25009041201E+02 -0.48159257849E+03  0.52890638547E+03  0.17416050955E+03 0.  0.
        -24    2    3    3    0    0 -0.99407875053E+02 -0.54977130576E+02 -0.46004235657E+03  0.48084931162E+03  0.81686474667E+02 0.  0.
          6    2    1    2  501    0  0.12981994340E+03  0.25009041201E+02 -0.18070221730E+03  0.28091788944E+03  0.16965523695E+03 0.  0.
         24    2    5    5    0    0  0.12339862191E+03  0.55171276179E+02 -0.19175688982E+03  0.24782273008E+03  0.79839283245E+02 0.  0.
          5    1    5    5  501    0  0.64213214932E+01 -0.30162234978E+02  0.11054672518E+02  0.33095159360E+02  0.47000000000E+01 0. -1.
        -11    1    6    6    0    0  0.61040057799E+02 -0.91698951657E+01 -0.11192246055E+03  0.12781475975E+03  0.00000000000E+00 0.  1.
         12    1    6    6    0    0  0.62358564106E+02  0.64341171345E+02 -0.79834429269E+02  0.12000797034E+03  0.00000000000E+00 0. -1.
         -5    1    3    3    0  503 -0.30412068345E+02  0.29968089375E+02 -0.21550221925E+02  0.48057073848E+02  0.47000000000E+01 0.  1.
         13    1    4    4    0    0 -0.10013187499E+02 -0.46274963396E+02 -0.20680977842E+03  0.21216012965E+03  0.00000000000E+00 0. -1.
        -14    1    4    4    0    0 -0.89394687553E+02 -0.87021671798E+01 -0.25323257814E+03  0.26868918197E+03  0.00000000000E+00 0.  1.
</event>
<event>
12    1  0.8226261E-002  0.2013278E+03  0.7818608E-02  0.1148891E+00
         21   -1    0    0  501  502  0.00000000000E+00  0.00000000000E+00  0.10765862198E+03  0.10765862198E+03  0.00000000000E+00 0.  1.
         21   -1    0    0  502  503 -0.00000000000E+00 -0.00000000000E+00 -0.44454369490E+03  0.44454369490E+03  0.00000000000E+00 0.  1.
         -6    2    1    2    0  503  0.77576182066E+02 -0.70186140837E+02 -0.27878696210E+03  0.34388235312E+03  0.17201379061E+03 0.  0.
        -24    2    3    3    0    0  0.27111578157E+02 -0.26003240802E+02 -0.25958141608E+03  0.27395562074E+03  0.79107296494E+02 0.  0.
          6    2    1    2  501    0 -0.77576182066E+02  0.70186140837E+02 -0.58098110818E+02  0.20831996376E+03  0.17052172421E+03 0.  0.
         24    2    5    5    0    0 -0.65758332881E+02  0.65290367631E+02 -0.10354491806E+03  0.16087386336E+03  0.81067005662E+02 0.  0.
          5    1    5    5  501    0 -0.11817849185E+02  0.48957732057E+01  0.45446807241E+02  0.47446100399E+02  0.47000000000E+01 0. -1.
        -13    1    6    6    0    0 -0.16137869685E+02  0.71046493268E+02 -0.66999933163E+02  0.98979927700E+02  0.00000000000E+00 0.  1.
         14    1    6    6    0    0 -0.49620463196E+02 -0.57561256371E+01 -0.36544984896E+02  0.61893935657E+02  0.00000000000E+00 0. -1.
         -5    1    3    3    0  503  0.50464603909E+02 -0.44182900035E+02 -0.19205546019E+02  0.69926732378E+02  0.47000000000E+01 0.  1.
         13    1    4    4    0    0 -0.14302916324E+02  0.19468721638E+02 -0.10138874382E+03  0.10422706899E+03  0.00000000000E+00 0. -1.
        -14    1    4    4    0    0  0.41414494481E+02 -0.45471962440E+02 -0.15819267226E+03  0.16972855175E+03  0.00000000000E+00 0.  1.
</event>
<event>
12    1  0.8226261E-002  0.1961658E+03  0.7818608E-02  0.1153373E+00
         21   -1    0    0  503  502  0.00000000000E+00  0.00000000000E+00  0.81431426390E+03  0.81431426390E+03  0.00000000000E+00 0. -1.
         21   -1    0    0  501  503 -0.00000000000E+00 -0.00000000000E+00 -0.58897196319E+02  0.58897196319E+02  0.00000000000E+00 0. -1.
          6    2    1    2  501    0 -0.33604694334E+02  0.87341840884E+02  0.17905504892E+03  0.26438126664E+03  0.17052527951E+03 0.  0.
         24    2    3    3    0    0 -0.86112525241E+01  0.91162451190E+01  0.17968003905E+02  0.83508266883E+02  0.80582391863E+02 0.  0.
         -6    2    1    2    0  502  0.33604694334E+02 -0.87341840884E+02  0.57636201866E+03  0.60883019359E+03  0.17240404699E+03 0.  0.
        -24    2    5    5    0    0  0.37125844145E+02 -0.11062466588E+03  0.56473373376E+03  0.58215069873E+03  0.79743971483E+02 0.  0.
          5    1    3    3  501    0 -0.24993441809E+02  0.78225595766E+02  0.16108704502E+03  0.18087299975E+03  0.47000000000E+01 0. -1.
        -13    1    4    4    0    0  0.11261687897E+02 -0.29758630053E+02  0.23421454068E+02  0.39509064625E+02  0.00000000000E+00 0.  1.
         14    1    4    4    0    0 -0.19872940421E+02  0.38874875172E+02 -0.54534501633E+01  0.43999202258E+02  0.00000000000E+00 0. -1.
         -5    1    5    5    0  502 -0.35211498115E+01  0.23282824997E+02  0.11628284902E+02  0.26679494853E+02  0.47000000000E+01 0.  1.
         13    1    6    6    0    0  0.48229929973E+02 -0.67722491131E+02  0.23137843741E+03  0.24586265119E+03  0.00000000000E+00 0. -1.
        -14    1    6    6    0    0 -0.11104085828E+02 -0.42902174751E+02  0.33335529634E+03  0.33628804754E+03  0.00000000000E+00 0.  1.
</event>
<event>
12    1  0.8226261E-002  0.2423990E+03  0.7818608E-02  0.1118474E+00
         21   -1    0    0  501  502  0.00000000000E+00  0.00000000000E+00  0.23459699607E+03  0.23459699607E+03  0.00000000000E+00 0. -1.
         21   -1    0    0  502  503 -0.00000000000E+00 -0.00000000000E+00 -0.24920184418E+03  0.24920184418E+03  0.00000000000E+00 0. -1.
         -6    2    1    2    0  503  0.37055410957E+02  0.16601972398E+03  0.26149183499E+01  0.24241306986E+03  0.17268933496E+03 0.  0.
        -24    2    3    3    0    0  0.33428757495E+02  0.16547127635E+03 -0.46713714930E+02  0.19272547109E+03  0.80390987803E+02 0.  0.
          6    2    1    2  501    0 -0.37055410957E+02 -0.16601972398E+03 -0.17219766456E+02  0.24138577039E+03  0.17039635430E+03 0.  0.
         24    2    5    5    0    0 -0.10494070277E+02 -0.64201212260E+01  0.46859442730E+01  0.78047201214E+02  0.76928954732E+02 0.  0.
          5    1    5    5  501    0 -0.26561340680E+02 -0.15959960276E+03 -0.21905710729E+02  0.16333856918E+03  0.47000000000E+01 0. -1.
        -13    1    6    6    0    0  0.67580841855E+01  0.13181065110E+02 -0.30690120152E+02  0.34077788283E+02  0.00000000000E+00 0.  1.
         14    1    6    6    0    0 -0.17252154463E+02 -0.19601186336E+02  0.35376064425E+02  0.43969412932E+02  0.00000000000E+00 0. -1.
         -5    1    3    3    0  503  0.36266534624E+01  0.54844763187E+00  0.49328633280E+02  0.49687598769E+02  0.47000000000E+01 0.  1.
         13    1    4    4    0    0  0.52685969893E+02  0.98630667627E+02 -0.51276375951E+02  0.12301661169E+03  0.00000000000E+00 0. -1.
        -14    1    4    4    0    0 -0.19257212398E+02  0.66840608723E+02  0.45626610208E+01  0.69708859404E+02  0.00000000000E+00 0.  1.
</event>
<event>
12    1  0.8226261E-002  0.1804922E+03  0.7818608E-02  0.1167418E+00
         21   -1    0    0  501  502  0.00000000000E+00  0.00000000000E+00  0.70407922164E+03  0.70407922164E+03  0.00000000000E+00 0. -1.
         21   -1    0    0  502  503 -0.00000000000E+00 -0.00000000000E+00 -0.76017716902E+02  0.76017716902E+02  0.00000000000E+00 0. -1.
         -6    2    1    2    0  503 -0.54835128999E+02 -0.21937016572E+01  0.69437236656E+02  0.19303774245E+03  0.17155272215E+03 0.  0.
        -24    2    3    3    0    0  0.11161911281E+02 -0.69486103094E+01 -0.15446287257E+02  0.85308818227E+02  0.82862145933E+02 0.  0.
          6    2    1    2  501    0  0.54835128999E+02  0.21937016572E+01  0.55862426808E+03  0.58705919610E+03  0.17194686136E+03 0.  0.
         24    2    5    5    0    0 -0.87093710327E+01 -0.47246791976E+02  0.37753164900E+03  0.38881971319E+03  0.79639882445E+02 0.  0.
          5    1    5    5  501    0  0.63544500031E+02  0.49440493633E+02  0.18109261908E+03  0.19823948290E+03  0.47000000000E+01 0. -1.
        -11    1    6    6    0    0  0.65337989837E+01  0.21516047361E+02  0.84209642204E+02  0.87160166724E+02  0.00000000000E+00 0.  1.
         12    1    6    6    0    0 -0.15243170016E+02 -0.68762839337E+02  0.29332200680E+03  0.30165954647E+03  0.00000000000E+00 0. -1.
         -5    1    3    3    0  503 -0.65997040279E+02  0.47549086522E+01  0.84883523913E+02  0.10772892422E+03  0.47000000000E+01 0.  1.
         11    1    4    4    0    0 -0.20033925009E+02  0.25697994857E+02 -0.22511359418E+02  0.39604373417E+02  0.00000000000E+00 0. -1.
        -12    1    4    4    0    0  0.31195836290E+02 -0.32646605167E+02  0.70650721610E+01  0.45704444810E+02  0.00000000000E+00 0.  1.
</event>
<event>
12    1  0.8226261E-002  0.2909041E+03  0.7818608E-02  0.1090284E+00
         21   -1    0    0  503  502  0.00000000000E+00  0.00000000000E+00  0.25859219273E+03  0.25859219273E+03  0.00000000000E+00 0. -1.
         21   -1    0    0  501  503 -0.00000000000E+00 -0.00000000000E+00 -0.70688629565E+03  0.70688629565E+03  0.00000000000E+00 0. -1.
          6    2    1    2  501    0  0.21634568814E+03  0.80299952242E+02 -0.58008141806E+03  0.64893733103E+03  0.17712049266E+03 0.  0.
         24    2    3    3    0    0  0.23555362501E+03  0.93173920585E+02 -0.54745819760E+03  0.60867508553E+03  0.81289555838E+02 0.  0.
         -6    2    1    2    0  502 -0.21634568814E+03 -0.80299952242E+02  0.13178731514E+03  0.31654115736E+03  0.17197926841E+03 0.  0.
        -24    2    5    5    0    0 -0.20988931317E+03 -0.77913815708E+02  0.61123753525E+02  0.24538775009E+03  0.79717928901E+02 0.  0.
          5    1    3    3  501    0 -0.19207936873E+02 -0.12873968343E+02 -0.32623220457E+02  0.40262245501E+02  0.47000000000E+01 0. -1.
        -11    1    4    4    0    0  0.59950788292E+02  0.44209033135E+02 -0.93942648380E+02  0.11989060352E+03  0.00000000000E+00 0.  1.
         12    1    4    4    0    0  0.17560283672E+03  0.48964887450E+02 -0.45351554922E+03  0.48878448201E+03  0.00000000000E+00 0. -1.
         -5    1    5    5    0  502 -0.64563749660E+01 -0.23861365334E+01  0.70663561616E+02  0.71153407266E+02  0.47000000000E+01 0.  1.
         11    1    6    6    0    0 -0.16530736054E+03 -0.94110917545E+02  0.48671006186E+02  0.19634728186E+03  0.00000000000E+00 0. -1.
        -12    1    6    6    0    0 -0.44581952627E+02  0.16197101836E+02  0.12452747339E+02  0.49040468230E+02  0.00000000000E+00 0.  1.
</event>
<event>
12    1  0.8226261E-002  0.2155139E+03  0.7818608E-02  0.1137303E+00
         21   -1    0    0  501  502  0.00000000000E+00  0.00000000000E+00  0.52732240894E+02  0.52732240894E+02  0.00000000000E+00 0.  1.
         21   -1    0    0  502  503 -0.00000000000E+00 -0.00000000000E+00 -0.17156859595E+04  0.17156859595E+04  0.00000000000E+00 0.  1.
         -6    2    1    2    0  503  0.12104872817E+03 -0.48235124402E+02 -0.14486896168E+04  0.14646323313E+04  0.17165907530E+03 0.  0.
        -24    2    3    3    0    0  0.12984203554E+03 -0.71002188194E+02 -0.13995519164E+04  0.14095663249E+04  0.78939172063E+02 0.  0.
          6    2    1    2  501    0 -0.12104872817E+03  0.48235124402E+02 -0.21426410181E+03  0.30378586914E+03  0.17145648762E+03 0.  0.
         24    2    5    5    0    0 -0.24006416383E+02  0.68049692509E+02 -0.77179389287E+02  0.13459917996E+03  0.83385924700E+02 0.  0.
          5    1    5    5  501    0 -0.97042311785E+02 -0.19814568107E+02 -0.13708471253E+03  0.16918668918E+03  0.47000000000E+01 0. -1.
        -13    1    6    6    0    0 -0.29778027856E+02 -0.21700726810E+01  0.32180475789E+00  0.29858729322E+02  0.00000000000E+00 0.  1.
         14    1    6    6    0    0  0.57716114730E+01  0.70219765190E+02 -0.77501194045E+02  0.10474045064E+03  0.00000000000E+00 0. -1.
         -5    1    3    3    0  503 -0.87933073737E+01  0.22767063792E+02 -0.49137700463E+02  0.55066006348E+02  0.47000000000E+01 0.  1.
         13    1    4    4    0    0  0.11560096495E+03 -0.23278311097E+02 -0.98481184503E+03  0.99184667816E+03  0.00000000000E+00 0. -1.
        -14    1    4    4    0    0  0.14241070594E+02 -0.47723877097E+02 -0.41474007132E+03  0.41771964677E+03  0.00000000000E+00 0.  1.
</event>
<event>
12    1  0.8226261E-002  0.1849308E+03  0.7818608E-02  0.1163490E+00
         21   -1    0    0  501  502  0.00000000000E+00  0.00000000000E+00  0.71124279486E+02  0.71124279486E+02  0.00000000000E+00 0. -1.
         21   -1    0    0  502  503 -0.00000000000E+00 -0.00000000000E+00 -0.85886683011E+03  0.85886683011E+03  0.00000000000E+00 0.  1.
         -6    2    1    2    0  503 -0.44196023944E+02 -0.49529373993E+02 -0.70310308936E+03  0.72661152776E+03  0.17089151701E+03 0.  0.
        -24    2    3    3    0    0  0.16185474229E+02  0.68237800777E+01 -0.17777340196E+03  0.19480801728E+03  0.77706161925E+02 0.  0.
          6    2    1    2  501    0  0.44196023944E+02  0.49529373993E+02 -0.84639461270E+02  0.20337958184E+03  0.17260639758E+03 0.  0.
         24    2    5    5    0    0  0.93542530295E+02  0.45896119993E+02 -0.44514449948E+02  0.13950169242E+03  0.81378910838E+02 0.  0.
          5    1    5    5  501    0 -0.49346506350E+02  0.36332539999E+01 -0.40125011323E+02  0.63877889424E+02  0.47000000000E+01 0. -1.
        -11    1    6    6    0    0  0.29905160736E+02 -0.23453253388E+02 -0.10599483070E+02  0.39455326313E+02  0.00000000000E+00 0.  1.
         12    1    6    6    0    0  0.63637369559E+02  0.69349373381E+02 -0.33914966878E+02  0.10004636611E+03  0.00000000000E+00 0. -1.
         -5    1    3    3    0  503 -0.60381498173E+02 -0.56353154071E+02 -0.52532968740E+03  0.53180351048E+03  0.47000000000E+01 0.  1.
         11    1    4    4    0    0 -0.19573990943E+02 -0.72480994592E+01 -0.10862005824E+02  0.23529964677E+02  0.00000000000E+00 0. -1.
        -12    1    4    4    0    0  0.35759465171E+02  0.14071879537E+02 -0.16691139613E+03  0.17127805260E+03  0.00000000000E+00 0.  1.
</event>
<event>
12    1  0.8226261E-002  0.2148929E+03  0.7818608E-02  0.1138797E+00
         21   -1    0    0  501  502  0.00000000000E+00  0.00000000000E+00  0.11134093301E+04  0.11134093301E+04  0.00000000000E+00 0.  1.
         21   -1    0    0  502  503 -0.00000000000E+00 -0.00000000000E+00 -0.55341145430E+02  0.55341145430E+02  0.00000000000E+00 0. -1.
         -6    2    1    2    0  503 -0.11899649340E+03  0.52550647584E+02  0.23075184506E+03  0.31531790744E+03  0.17104745761E+03 0.  0.
        -24    2    3    3    0    0 -0.27488562367E+02 -0.26895162153E+02  0.12541653453E+03  0.15468492275E+03  0.81970405542E+02 0.  0.
          6    2    1    2  501    0  0.11899649340E+03 -0.52550647584E+02  0.82731633965E+03  0.85343256813E+03  0.16423485160E+03 0.  0.
         24    2    5    5    0    0  0.80420792119E+02 -0.56787068044E+02  0.78769810940E+03  0.79777534796E+03  0.79277483352E+02 0.  0.
          5    1    5    5  501    0  0.38575701283E+02  0.42364204601E+01  0.39618230254E+02  0.55657220163E+02  0.47000000000E+01 0. -1.
        -13    1    6    6    0    0  0.36009884491E+02  0.17355277586E+02  0.24750734783E+03  0.25071458807E+03  0.00000000000E+00 0.  1.
         14    1    6    6    0    0  0.44410907628E+02 -0.74142345630E+02  0.54019076157E+03  0.54706075990E+03  0.00000000000E+00 0. -1.
         -5    1    3    3    0  503 -0.91507931035E+02  0.79445809737E+02  0.10533531053E+03  0.16063298469E+03  0.47000000000E+01 0.  1.
         11    1    4    4    0    0  0.22919764100E+02  0.12541962892E+02  0.29884109799E+02  0.39694791070E+02  0.00000000000E+00 0. -1.
        -12    1    4    4    0    0 -0.50408326467E+02 -0.39437125045E+02  0.95532424734E+02  0.11499013168E+03  0.00000000000E+00 0.  1.
</event>
<event>
12    1  0.8226261E-002  0.1757895E+03  0.7818608E-02  0.1172313E+00
         21   -1    0    0  503  502  0.00000000000E+00  0.00000000000E+00  0.17246337543E+03  0.17246337543E+03  0.00000000000E+00 0.  1.
         21   -1    0    0  501  503 -0.00000000000E+00 -0.00000000000E+00 -0.17826972664E+03  0.17826972664E+03  0.00000000000E+00 0.  1.
          6    2    1    2  501    0  0.33675035727E+02 -0.39884904299E+01 -0.13036031932E+02  0.17479500857E+03  0.17097789567E+03 0.  0.
         24    2    3    3    0    0  0.62849820338E+02  0.41530370635E+02 -0.32736411850E+02  0.11706001279E+03  0.83405649276E+02 0.  0.
         -6    2    1    2    0  502 -0.33675035727E+02  0.39884904299E+01  0.72296807220E+01  0.17593809349E+03  0.17248776296E+03 0.  0.
        -24    2    5    5    0    0  0.35208268505E+02 -0.22883691998E+02  0.34336353690E+02  0.97046487409E+02  0.80472044855E+02 0.  0.
          5    1    3    3  501    0 -0.29174784610E+02 -0.45518861065E+02  0.19700379918E+02  0.57734995788E+02  0.47000000000E+01 0. -1.
        -11    1    4    4    0    0  0.10927502304E+01 -0.20212356134E+02 -0.20621690239E+02  0.28896151160E+02  0.00000000000E+00 0.  1.
         12    1    4    4    0    0  0.61757070107E+02  0.61742726770E+02 -0.12114721611E+02  0.88163861626E+02  0.00000000000E+00 0. -1.
         -5    1    5    5    0  502 -0.68883304232E+02  0.26872182428E+02 -0.27106672968E+02  0.78891606079E+02  0.47000000000E+01 0.  1.
         11    1    6    6    0    0  0.11856905601E+02  0.15105307156E+01  0.55778543498E+02  0.57044840505E+02  0.00000000000E+00 0. -1.
        -12    1    6    6    0    0  0.23351362904E+02 -0.24394222714E+02 -0.21442189808E+02  0.40001646904E+02  0.00000000000E+00 0.  1.
</event>
<event>
12    1  0.8226261E-002  0.2121672E+03  0.7818608E-02  0.1140880E+00
         21   -1    0    0  501  502  0.00000000000E+00  0.00000000000E+00  0.72504793236E+02  0.72504793236E+02  0.00000000000E+00 0.  1.
         21   -1    0    0  502  503 -0.00000000000E+00 -0.00000000000E+00 -0.11928989668E+04  0.11928989668E+04  0.00000000000E+00 0. -1.
         -6    2    1    2    0  503 -0.38298856050E+02 -0.11760860231E+03 -0.10005215098E+04  0.10217146971E+04  0.16600917169E+03 0.  0.
        -24    2    3    3    0    0 -0.32527221386E+02 -0.59198611198E+02 -0.89704345655E+03  0.90265657549E+03  0.74427378243E+02 0.  0.
          6    2    1    2  501    0  0.38298856050E+02  0.11760860231E+03 -0.11987266381E+03  0.24368906294E+03  0.17238421666E+03 0.  0.
         24    2    5    5    0    0 -0.34424766507E+02  0.15381639303E+02 -0.48490828025E+02  0.99271149491E+02  0.77985520079E+02 0.  0.
          5    1    5    5  501    0  0.72723622557E+02  0.10222696301E+03 -0.71381835790E+02  0.14441791345E+03  0.47000000000E+01 0. -1.
        -11    1    6    6    0    0 -0.54213787444E+02  0.29962549063E+02 -0.32551785300E+02  0.69975051422E+02  0.00000000000E+00 0.  1.
         12    1    6    6    0    0  0.19789020937E+02 -0.14580909760E+02 -0.15939042725E+02  0.29296098069E+02  0.00000000000E+00 0. -1.
         -5    1    3    3    0  503 -0.57716346637E+01 -0.58409991112E+02 -0.10347805322E+03  0.11905812163E+03  0.47000000000E+01 0.  1.
         13    1    4    4    0    0 -0.43712555735E+02 -0.56949104516E+01 -0.31837858024E+03  0.32141583640E+03  0.00000000000E+00 0. -1.
        -14    1    4    4    0    0  0.11185334349E+02 -0.53503700746E+02 -0.57866487632E+03  0.58124073909E+03  0.00000000000E+00 0.  1.
</event>
<event>
12    1  0.8226261E-002  0.1971581E+03  0.7818608E-02  0.1154987E+00
         21   -1    0    0  503  502  0.00000000000E+00  0.00000000000E+00  0.12494423108E+04  0.12494423108E+04  0.00000000000E+00 0.  1.
         21   -1    0    0  501  503 -0.00000000000E+00 -0.00000000000E+00 -0.64044860594E+02  0.64044860594E+02  0.00000000000E+00 0.  1.
          6    2    1    2  501    0 -0.54954554361E+02  0.78641316925E+01  0.99007007187E+02  0.20935152889E+03  0.17590857729E+03 0.  0.
         24    2    3    3    0    0  0.36654494325E+02 -0.11024646398E+02  0.48279561940E+02  0.10284158832E+03  0.82343071387E+02 0.  0.
         -6    2    1    2    0  502  0.54954554361E+02 -0.78641316925E+01  0.10863904430E+04  0.11041356425E+04  0.18918106339E+03 0.  0.
        -24    2    5    5    0    0  0.45860728572E+02  0.11822138826E+02  0.10748160621E+04  0.10791095919E+04  0.83695726483E+02 0.  0.
          5    1    3    3  501    0 -0.91609048686E+02  0.18888778090E+02  0.50727445247E+02  0.10650994057E+03  0.47000000000E+01 0. -1.
        -13    1    4    4    0    0 -0.11113654161E+02 -0.25824284270E+02 -0.63050469553E+01  0.28812507422E+02  0.00000000000E+00 0.  1.
         14    1    4    4    0    0  0.47768148486E+02  0.14799637872E+02  0.54584608895E+02  0.74029080902E+02  0.00000000000E+00 0. -1.
         -5    1    5    5    0  502  0.90938257892E+01 -0.19686270519E+02  0.11574380933E+02  0.25026050596E+02  0.47000000000E+01 0.  1.
         11    1    6    6    0    0 -0.93835889690E+01  0.18589800729E+02  0.68746809667E+03  0.68778340804E+03  0.00000000000E+00 0. -1.
        -12    1    6    6    0    0  0.55244317541E+02 -0.67676619024E+01  0.38734796544E+03  0.39132618390E+03  0.00000000000E+00 0.  1.
</event>
<event>
12    1  0.8226261E-002  0.2074439E+03  0.7818608E-02  0.1143729E+00
         21   -1    0    0  501  502  0.00000000000E+00  0.00000000000E+00  0.91787432850E+02  0.91787432850E+02  0.00000000000E+00 0.  1.
         21   -1    0    0  502  503 -0.00000000000E+00 -0.00000000000E+00 -0.48989553879E+03  0.48989553879E+03  0.00000000000E+00 0.  1.
         -6    2    1    2    0  503 -0.10173393393E+03  0.53813922694E+02 -0.13709218704E+03  0.24865079779E+03  0.17258974450E+03 0.  0.
        -24    2    3    3    0    0 -0.36098591551E+02 -0.36610038801E+02 -0.80702455054E+01  0.77907591839E+02  0.57974656107E+02 0.  0.
          6    2    1    2  501    0  0.10173393393E+03 -0.53813922694E+02 -0.26101591890E+03  0.33303217385E+03  0.17185862593E+03 0.  0.
         24    2    5    5    0    0  0.71551568914E+02  0.31270583541E+02 -0.11952285548E+03  0.16512527895E+03  0.82964862172E+02 0.  0.
          5    1    5    5  501    0  0.30182365020E+02 -0.85084506235E+02 -0.14149306342E+03  0.16790689490E+03  0.47000000000E+01 0. -1.
        -11    1    6    6    0    0  0.70076969735E+02  0.37683342730E+02 -0.13019775180E+03  0.15258528953E+03  0.00000000000E+00 0.  1.
         12    1    6    6    0    0  0.14745991790E+01 -0.64127591891E+01  0.10674896319E+02  0.12539989417E+02  0.00000000000E+00 0. -1.
         -5    1    3    3    0  503 -0.65635342384E+02  0.90423961495E+02 -0.12902194153E+03  0.17074320595E+03  0.47000000000E+01 0.  1.
         13    1    4    4    0    0  0.16076329001E+02 -0.97958556911E+01 -0.21159361874E+01  0.18944242630E+02  0.00000000000E+00 0. -1.
        -14    1    4    4    0    0 -0.52174920552E+02 -0.26814183110E+02 -0.59543093181E+01  0.58963349209E+02  0.00000000000E+00 0.  1.
</event>
<event>
12    1  0.8226261E-002  0.1978195E+03  0.7818608E-02  0.1153444E+00
         21   -1    0    0  503  502  0.00000000000E+00  0.00000000000E+00  0.68883657794E+03  0.68883657794E+03  0.00000000000E+00 0. -1.
         21   -1    0    0  501  503 -0.00000000000E+00 -0.00000000000E+00 -0.89490524508E+02  0.89490524508E+02  0.00000000000E+00 0.  1.
          6    2    1    2  501    0 -0.48353009773E+02 -0.83358315699E+02  0.60021597500E+02  0.20672479856E+03  0.17275974017E+03 0.  0.
         24    2    3    3    0    0 -0.89301800940E+02 -0.96738673196E+02  0.41517216744E+02  0.15960431924E+03  0.80104162751E+02 0.  0.
         -6    2    1    2    0  502  0.48353009773E+02  0.83358315699E+02  0.53932445593E+03  0.57160230388E+03  0.16300829025E+03 0.  0.
        -24    2    5    5    0    0  0.65745066989E+02  0.11192092441E+03  0.39328493851E+03  0.42170921893E+03  0.79479024351E+02 0.  0.
          5    1    3    3  501    0  0.40948791166E+02  0.13380357498E+02  0.18504380756E+02  0.47120479326E+02  0.47000000000E+01 0. -1.
        -13    1    4    4    0    0 -0.58153677616E+02 -0.90183890396E+02  0.23301888681E-01  0.10730789743E+03  0.00000000000E+00 0.  1.
         14    1    4    4    0    0 -0.31148123324E+02 -0.65547828008E+01  0.41493914855E+02  0.52296421810E+02  0.00000000000E+00 0. -1.
         -5    1    5    5    0  502 -0.17392057215E+02 -0.28562608709E+02  0.14603951742E+03  0.14989308496E+03  0.47000000000E+01 0.  1.
         11    1    6    6    0    0  0.73373658428E+02  0.71163427699E+02  0.33451963805E+03  0.34978752898E+03  0.00000000000E+00 0. -1.
        -12    1    6    6    0    0 -0.76285914394E+01  0.40757496709E+02  0.58765300469E+02  0.71921689945E+02  0.00000000000E+00 0.  1.
</event>
<event>
12    1  0.8226261E-002  0.1849276E+03  0.7818608E-02  0.1164533E+00
         21   -1    0    0  503  502  0.00000000000E+00  0.00000000000E+00  0.27695448913E+03  0.27695448913E+03  0.00000000000E+00 0. -1.
         21   -1    0    0  501  503 -0.00000000000E+00 -0.00000000000E+00 -0.12754189844E+03  0.12754189844E+03  0.00000000000E+00 0. -1.
          6    2    1    2  501    0 -0.56371694499E+02 -0.30586028141E+02  0.22890044062E+02  0.18042902461E+03  0.16708502550E+03 0.  0.
         24    2    3    3    0    0 -0.63387069419E+02 -0.74864043802E+02 -0.59651817638E+01  0.12690826029E+03  0.80296808856E+02 0.  0.
         -6    2    1    2    0  502  0.56371694499E+02  0.30586028141E+02  0.12652254663E+03  0.22406736296E+03  0.17345015214E+03 0.  0.
        -24    2    5    5    0    0 -0.22400760927E+02  0.17183899414E+02  0.12822235024E+02  0.85018567034E+02  0.79162279782E+02 0.  0.
          5    1    3    3  501    0  0.70153749204E+01  0.44278015661E+02  0.28855225826E+02  0.53520764322E+02  0.47000000000E+01 0. -1.
        -11    1    4    4    0    0 -0.37258895832E+01 -0.52721520406E+02 -0.27686619248E+02  0.59665650524E+02  0.00000000000E+00 0.  1.
         12    1    4    4    0    0 -0.59661179836E+02 -0.22142523396E+02  0.21721437484E+02  0.67242609766E+02  0.00000000000E+00 0. -1.
         -5    1    5    5    0  502  0.78772455426E+02  0.13402128726E+02  0.11370031161E+03  0.13904879592E+03  0.47000000000E+01 0.  1.
         11    1    6    6    0    0  0.16101215107E+02 -0.22622300292E+02 -0.15292899673E+01  0.27809284892E+02  0.00000000000E+00 0. -1.
        -12    1    6    6    0    0 -0.38501976034E+02  0.39806199706E+02  0.14351524991E+02  0.57209282142E+02  0.00000000000E+00 0.  1.
</event>
<event>
12    1  0.8226261E-002  0.2129369E+03  0.7818608E-02  0.1139492E+00
         21   -1    0    0  501  502  0.00000000000E+00  0.00000000000E+00  0.10566572613E+03  0.10566572613E+03  0.00000000000E+00 0.  1.
         21   -1    0    0  502  503 -0.00000000000E+00 -0.00000000000E+00 -0.51263007802E+03  0.51263007802E+03  0.00000000000E+00 0. -1.
         -6    2    1    2    0  503 -0.12558948008E+03 -0.10926657003E+02 -0.33050221737E+03  0.39315878290E+03  0.17161003336E+03 0.  0.
        -24    2    3    3    0    0 -0.11746339221E+03  0.42354177118E+02 -0.29005957297E+03  0.32561192454E+03  0.79353920527E+02 0.  0.
          6    2    1    2  501    0  0.12558948008E+03  0.10926657003E+02 -0.76462134524E+02  0.22513702125E+03  0.17014144405E+03 0.  0.
         24    2    5    5    0    0  0.14785130507E+02 -0.20524078862E+02  0.20165969475E+01  0.85681817103E+02  0.81838067069E+02 0.  0.
          5    1    5    5  501    0  0.11080434957E+03  0.31450735865E+02 -0.78478731472E+02  0.13945520415E+03  0.47000000000E+01 0. -1.
        -13    1    6    6    0    0 -0.79760781529E+01  0.15708710258E+02 -0.28233952606E+02  0.33279685703E+02  0.00000000000E+00 0.  1.
         14    1    6    6    0    0  0.22761208660E+02 -0.36232789120E+02  0.30250549554E+02  0.52402131401E+02  0.00000000000E+00 0. -1.
         -5    1    3    3    0  503 -0.81260878723E+01 -0.53280834121E+02 -0.40442644394E+02  0.67546858360E+02  0.47000000000E+01 0.  1.
         13    1    4    4    0    0 -0.53998060761E+01  0.31266513544E+02 -0.37755530082E+02  0.49317672559E+02  0.00000000000E+00 0. -1.
        -14    1    4    4    0    0 -0.11206358613E+03  0.11087663573E+02 -0.25230404289E+03  0.27629425198E+03  0.00000000000E+00 0.  1.
</event>
<event>
12    1  0.8226261E-002  0.2310832E+03  0.7818608E-02  0.1127057E+00
         21   -1    0    0  503  502  0.00000000000E+00  0.00000000000E+00  0.11240217734E+04  0.11240217734E+04  0.00000000000E+00 0. -1.
         21   -1    0    0  501  503 -0.00000000000E+00 -0.00000000000E+00 -0.68873223420E+02  0.68873223420E+02  0.00000000000E+00 0.  1.
          6    2    1    2  501    0 -0.78931241725E+02 -0.12471971822E+03  0.17989654122E+03  0.28765164072E+03  0.16910219346E+03 0.  0.
         24    2    3    3    0    0 -0.53028133886E+02 -0.15508184200E+03  0.13135570287E+03  0.22463471805E+03  0.79649702912E+02 0.  0.
         -6    2    1    2    0  502  0.78931241725E+02  0.12471971822E+03  0.87525200879E+03  0.90524335613E+03  0.17780412226E+03 0.  0.
        -24    2    5    5    0    0  0.78002730917E+02  0.12246020202E+03  0.45454506340E+03  0.48450306634E+03  0.83970706377E+02 0.  0.
          5    1    3    3  501    0 -0.25903107839E+02  0.30362123777E+02  0.48540838345E+02  0.63016922673E+02  0.47000000000E+01 0. -1.
        -11    1    4    4    0    0 -0.57172618682E+02 -0.86818509230E+02  0.11358802245E+03  0.15397532503E+03  0.00000000000E+00 0.  1.
         12    1    4    4    0    0  0.41444847960E+01 -0.68263332765E+02  0.17767680420E+02  0.70659393020E+02  0.00000000000E+00 0. -1.
         -5    1    5    5    0  502  0.92851080821E+00  0.22595161992E+01  0.42070694540E+03  0.42074028979E+03  0.47000000000E+01 0.  1.
         11    1    6    6    0    0  0.73792029548E+02  0.93441471951E+02  0.43025738725E+03  0.44642803629E+03  0.00000000000E+00 0. -1.
        -12    1    6    6    0    0  0.42107013684E+01  0.29018730068E+02  0.24287676147E+02  0.38075030051E+02  0.00000000000E+00 0.  1.
</event>
<event>
12    1  0.8226261E-002  0.2851606E+03  0.7818608E-02  0.1092969E+00
         21   -1    0    0  501  502  0.00000000000E+00  0.00000000000E+00  0.28466641930E+03  0.28466641930E+03  0.00000000000E+00 0. -1.
         21   -1    0    0  502  503 -0.00000000000E+00 -0.00000000000E+00 -0.31996137893E+03  0.31996137893E+03  0.00000000000E+00 0.  1.
         -6    2    1    2    0  503 -0.88895386164E+02 -0.20879876311E+03 -0.11736408477E+03  0.30836816061E+03  0.17267681062E+03 0.  0.
        -24    2    3    3    0    0 -0.21466097902E+02 -0.21986944435E+02 -0.48946948078E+02  0.98253051430E+02  0.79458412421E+02 0.  0.
          6    2    1    2  501    0  0.88895386164E+02  0.20879876311E+03  0.82069125142E+02  0.29625963762E+03  0.17185784364E+03 0.  0.
         24    2    5    5    0    0  0.12955876421E+03  0.15927205551E+03  0.67503045342E+02  0.23037590851E+03  0.79770527402E+02 0.  0.
          5    1    5    5  501    0 -0.40663378048E+02  0.49526707606E+02  0.14566079801E+02  0.65883729109E+02  0.47000000000E+01 0. -1.
        -11    1    6    6    0    0 -0.60048485210E+00  0.41145685185E+02 -0.23892093722E+01  0.41219368176E+02  0.00000000000E+00 0.  1.
         12    1    6    6    0    0  0.13015924906E+03  0.11812637032E+03  0.69892254714E+02  0.18915654033E+03  0.00000000000E+00 0. -1.
         -5    1    3    3    0  503 -0.67429288262E+02 -0.18681181868E+03 -0.68417136694E+02  0.21011510918E+03  0.47000000000E+01 0.  1.
         11    1    4    4    0    0 -0.38157950944E+02 -0.20072152412E+02  0.34260365094E+01  0.43251106909E+02  0.00000000000E+00 0. -1.
        -12    1    4    4    0    0  0.16691853042E+02 -0.19147920230E+01 -0.52372984588E+02  0.55001944521E+02  0.00000000000E+00 0.  1.
</event>
<event>
12    1  0.8226261E-002  0.1825764E+03  0.7818608E-02  0.1165457E+00
         21   -1    0    0  501  502  0.00000000000E+00  0.00000000000E+00  0.30088961526E+02  0.30088961526E+02  0.00000000000E+00 0.  1.
         21   -1    0    0  502  503 -0.00000000000E+00 -0.00000000000E+00 -0.11950560229E+04  0.11950560229E+04  0.00000000000E+00 0.  1.
         -6    2    1    2    0  503  0.44398895516E+02  0.38776353104E+02 -0.75170852986E+03  0.77356309153E+03  0.17279836581E+03 0.  0.
        -24    2    3    3    0    0 -0.84598115271E+01  0.68032468514E+02 -0.30117913203E+03  0.31897669544E+03  0.79607019035E+02 0.  0.
          6    2    1    2  501    0 -0.44398895516E+02 -0.38776353104E+02 -0.41325853150E+03  0.45158189289E+03  0.17224611648E+03 0.  0.
         24    2    5    5    0    0 -0.26631014690E+02 -0.67016792040E+02 -0.14436624384E+03  0.18058674100E+03  0.81052435541E+02 0.  0.
          5    1    5    5  501    0 -0.17767880826E+02  0.28240438936E+02 -0.26889228766E+03  0.27099515189E+03  0.47000000000E+01 0. -1.
        -11    1    6    6    0    0 -0.46818881624E+02 -0.22935502327E+02 -0.40691049390E+02  0.66134759726E+02  0.00000000000E+00 0.  1.
         12    1    6    6    0    0  0.20187866935E+02 -0.44081289713E+02 -0.10367519445E+03  0.11445198128E+03  0.00000000000E+00 0. -1.
         -5    1    3    3    0  503  0.52858707043E+02 -0.29256115411E+02 -0.45052939783E+03  0.45458639609E+03  0.47000000000E+01 0.  1.
         11    1    4    4    0    0 -0.16877000912E+02 -0.68644261421E+01 -0.16811257027E+02  0.24790560075E+02  0.00000000000E+00 0. -1.
        -12    1    4    4    0    0  0.84171893844E+01  0.74896894657E+02 -0.28436787500E+03  0.29418613536E+03  0.00000000000E+00 0.  1.
</event>
<event>
12    1  0.8226261E-002  0.2040616E+03  0.7818608E-02  0.1146499E+00
         21   -1    0    0  501  502  0.00000000000E+00  0.00000000000E+00  0.27203581100E+03  0.27203581100E+03  0.00000000000E+00 0. -1.
         21   -1    0    0  502  503 -0.00000000000E+00 -0.00000000000E+00 -0.17154733876E+03  0.17154733876E+03  0.00000000000E+00 0. -1.
         -6    2    1    2    0  503 -0.56707112461E+02  0.92915306875E+02 -0.23631436770E+02  0.20473826083E+03  0.17178579624E+03 0.  0.
        -24    2    3    3    0    0  0.40683944770E+01  0.65614652531E+02  0.42681535254E+02  0.11061871860E+03  0.78057369881E+02 0.  0.
          6    2    1    2  501    0  0.56707112461E+02 -0.92915306875E+02  0.12411990901E+03  0.23884488892E+03  0.17260410858E+03 0.  0.
         24    2    5    5    0    0  0.22136800331E+02  0.19482640776E+02  0.62114816730E+02  0.10582185864E+03  0.80438822023E+02 0.  0.
          5    1    5    5  501    0  0.34570312130E+02 -0.11239794765E+03  0.62005092277E+02  0.13302303028E+03  0.47000000000E+01 0. -1.
        -11    1    6    6    0    0 -0.66413949152E+01  0.45802007594E+02  0.28633413630E+02  0.54422462294E+02  0.00000000000E+00 0.  1.
         12    1    6    6    0    0  0.28778195246E+02 -0.26319366818E+02  0.33481403100E+02  0.51399396347E+02  0.00000000000E+00 0. -1.
         -5    1    3    3    0  503 -0.60775506938E+02  0.27300654344E+02 -0.66312972023E+02  0.94119542231E+02  0.47000000000E+01 0.  1.
         11    1    4    4    0    0  0.24731461577E+02  0.25219035859E+02 -0.14015529610E+02  0.38001053033E+02  0.00000000000E+00 0. -1.
        -12    1    4    4    0    0 -0.20663067100E+02  0.40395616672E+02  0.56697064864E+02  0.72617665567E+02  0.00000000000E+00 0.  1.
</event>
<event>
12    1  0.8226261E-002  0.3849698E+03  0.7818608E-02  0.1049472E+00
         21   -1    0    0  501  502  0.00000000000E+00  0.00000000000E+00  0.57035511519E+03  0.57035511519E+03  0.00000000000E+00 0. -1.
         21   -1    0    0  502  503 -0.00000000000E+00 -0.00000000000E+00 -0.33720362777E+03  0.33720362777E+03  0.00000000000E+00 0. -1.
         -6    2    1    2    0  503 -0.29145984228E+03 -0.17491816949E+03  0.33716131949E+03  0.50878592575E+03  0.17216317029E+03 0.  0.
        -24    2    3    3    0    0 -0.17446939637E+03 -0.96851637971E+02  0.10849522546E+03  0.24028747075E+03  0.78403090536E+02 0.  0.
          6    2    1    2  501    0  0.29145984228E+03  0.17491816949E+03 -0.10400983207E+03  0.39877281720E+03  0.18071111999E+03 0.  0.
         24    2    5    5    0    0  0.17046066507E+03  0.17519877204E+03 -0.10463549484E+03  0.27768045130E+03  0.80039978743E+02 0.  0.
          5    1    5    5  501    0  0.12099917722E+03 -0.28060254537E+00  0.62566276831E+00  0.12109236590E+03  0.47000000000E+01 0. -1.
        -13    1    6    6    0    0  0.25793532482E+02  0.76151481214E+02 -0.19274269565E+02  0.82679210666E+02  0.00000000000E+00 0.  1.
         14    1    6    6    0    0  0.14466713259E+03  0.99047290823E+02 -0.85361225275E+02  0.19500124064E+03  0.00000000000E+00 0. -1.
         -5    1    3    3    0  503 -0.11699044591E+03 -0.78066531521E+02  0.22866609403E+03  0.26849845500E+03  0.47000000000E+01 0.  1.
         11    1    4    4    0    0 -0.30014255075E+02 -0.38685259288E+02  0.59456548753E+02  0.77022632930E+02  0.00000000000E+00 0. -1.
        -12    1    4    4    0    0 -0.14445514130E+03 -0.58166378683E+02  0.49038676704E+02  0.16326483782E+03  0.00000000000E+00 0.  1.
</event>
<event>
12    1  0.8226261E-002  0.2252700E+03  0.7818608E-02  0.1131040E+00
         21   -1    0    0  503  502  0.00000000000E+00  0.00000000000E+00  0.45143451904E+02  0.45143451904E+02  0.00000000000E+00 0.  1.
         21   -1    0    0  501  503 -0.00000000000E+00 -0.00000000000E+00 -0.12839012366E+04  0.12839012366E+04  0.00000000000E+00 0. -1.
          6    2    1    2  501    0 -0.13488709207E+03  0.20810617470E+02 -0.88000871212E+03  0.90838423788E+03  0.17921769113E+03 0.  0.
         24    2    3    3    0    0 -0.14974870370E+03  0.53117867221E+02 -0.81768439777E+03  0.83647432169E+03  0.76389360610E+02 0.  0.
         -6    2    1    2    0  502  0.13488709207E+03 -0.20810617470E+02 -0.35874907257E+03  0.42066045062E+03  0.17212410708E+03 0.  0.
        -24    2    5    5    0    0  0.83488141475E+02  0.54898502267E+02 -0.20628150191E+03  0.24277798089E+03  0.80031085567E+02 0.  0.
          5    1    3    3  501    0  0.14861611635E+02 -0.32307249750E+02 -0.62324314353E+02  0.71909916190E+02  0.47000000000E+01 0. -1.
        -13    1    4    4    0    0 -0.47512797674E+02  0.44954642875E+02 -0.45093584732E+03  0.45565504963E+03  0.00000000000E+00 0.  1.
         14    1    4    4    0    0 -0.10223590603E+03  0.81632243455E+01 -0.36674855045E+03  0.38081927206E+03  0.00000000000E+00 0. -1.
         -5    1    5    5    0  502  0.51398950595E+02 -0.75709119737E+02 -0.15246757066E+03  0.17788246973E+03  0.47000000000E+01 0.  1.
         13    1    6    6    0    0 -0.15288830457E+01 -0.52879141344E+01 -0.74953542079E+02  0.75155392284E+02  0.00000000000E+00 0. -1.
        -14    1    6    6    0    0  0.85017024520E+02  0.60186416402E+02 -0.13132795983E+03  0.16762258860E+03  0.00000000000E+00 0.  1.
</event>
<event>
12    1  0.8226261E-002  0.3304955E+03  0.7818608E-02  0.1071091E+00
         21   -1    0    0  503  502  0.00000000000E+00  0.00000000000E+00  0.97379560390E+02  0.97379560390E+02  0.00000000000E+00 0. -1.
         21   -1    0    0  501  503 -0.00000000000E+00 -0.00000000000E+00 -0.12539559480E+04  0.12539559480E+04  0.00000000000E+00 0.  1.
          6    2    1    2  501    0 -0.26634296608E+03 -0.92276786922E+02 -0.35569533092E+03  0.48553724263E+03  0.17255046961E+03 0.  0.
         24    2    3    3    0    0 -0.14897060675E+03  0.36865892315E+01 -0.24216436393E+03  0.29607323348E+03  0.82522407949E+02 0.  0.
         -6    2    1    2    0  502  0.26634296608E+03  0.92276786922E+02 -0.80088105670E+03  0.86579826577E+03  0.16953639445E+03 0.  0.
        -24    2    5    5    0    0  0.73977839051E+02  0.74524296141E+02 -0.24543390092E+03  0.27769697697E+03  0.76493267091E+02 0.  0.
          5    1    3    3  501    0 -0.11737235933E+03 -0.95963376153E+02 -0.11353096699E+03  0.18946400915E+03  0.47000000000E+01 0. -1.
        -11    1    4    4    0    0 -0.22910129208E+02 -0.31099809657E+02 -0.42877658583E+02  0.57711054284E+02  0.00000000000E+00 0.  1.
         12    1    4    4    0    0 -0.12606047754E+03  0.34786398889E+02 -0.19928670534E+03  0.23836217920E+03  0.00000000000E+00 0. -1.
         -5    1    5    5    0  502  0.19236512702E+03  0.17752490781E+02 -0.55544715578E+03  0.58810128880E+03  0.47000000000E+01 0.  1.
         11    1    6    6    0    0  0.61044546933E+02  0.24783567699E+02 -0.75712185457E+02  0.10036432117E+03  0.00000000000E+00 0. -1.
        -12    1    6    6    0    0  0.12933292118E+02  0.49740728441E+02 -0.16972171547E+03  0.17733265580E+03  0.00000000000E+00 0.  1.
</event>
<event>
12    1  0.8226261E-002  0.3555990E+03  0.7818608E-02  0.1060377E+00
         21   -1    0    0  501  502  0.00000000000E+00  0.00000000000E+00  0.10979806284E+04  0.10979806284E+04  0.00000000000E+00 0.  1.
         21   -1    0    0  502  503 -0.00000000000E+00 -0.00000000000E+00 -0.18838600542E+03  0.18838600542E+03  0.00000000000E+00 0. -1.
         -6    2    1    2    0  503 -0.26307170038E+03 -0.16624350763E+03  0.53637273002E+02  0.35962150351E+03  0.17206697929E+03 0.  0.
        -24    2    3    3    0    0 -0.21525366332E+03 -0.19067172173E+03  0.62451349405E+02  0.30500392158E+03  0.80233260573E+02 0.  0.
          6    2    1    2  501    0  0.26307170038E+03  0.16624350763E+03  0.85595735002E+03  0.92674513035E+03  0.17131820747E+03 0.  0.
         24    2    5    5    0    0  0.28227267780E+03  0.14906179886E+03  0.79734689900E+03  0.86254884060E+03  0.79568464571E+02 0.  0.
          5    1    5    5  501    0 -0.19200977419E+02  0.17181708772E+02  0.58610451014E+02  0.64196289755E+02  0.47000000000E+01 0. -1.
        -13    1    6    6    0    0  0.86309700866E+02  0.89100450993E+02  0.30105645607E+03  0.32561210754E+03  0.00000000000E+00 0.  1.
         14    1    6    6    0    0  0.19596297694E+03  0.59961347867E+02  0.49629044293E+03  0.53693673306E+03  0.00000000000E+00 0. -1.
         -5    1    3    3    0  503 -0.47818037069E+02  0.24428214094E+02 -0.88140764036E+01  0.54617581930E+02  0.47000000000E+01 0.  1.
         13    1    4    4    0    0 -0.20232615285E+03 -0.14508197549E+03  0.38562880709E+02  0.25193599883E+03  0.00000000000E+00 0. -1.
        -14    1    4    4    0    0 -0.12927510469E+02 -0.45589746236E+02  0.23888468697E+02  0.53067922754E+02  0.00000000000E+00 0.  1.
</event>
<event>
12    1  0.8226261E-002  0.2506592E+03  0.7818608E-02  0.1115344E+00
         21   -1    0    0  503  502  0.00000000000E+00  0.00000000000E+00  0.12499908045E+04  0.12499908045E+04  0.00000000000E+00 0. -1.
         21   -1    0    0  501  503 -0.00000000000E+00 -0.00000000000E+00 -0.53051727355E+03  0.53051727355E+03  0.00000000000E+00 0.  1.
          6    2    1    2  501    0  0.15440435537E+03 -0.40774734676E+02 -0.49087499154E+03  0.54447669691E+03  0.17318583144E+03 0.  0.
         24    2    3    3    0    0  0.97357110884E+02  0.38895825357E+02 -0.22606394883E+03  0.26207845934E+03  0.81172148060E+02 0.  0.
         -6    2    1    2    0  502 -0.15440435537E+03  0.40774734676E+02  0.12103485225E+04  0.12360313811E+04  0.19320130770E+03 0.  0.
        -24    2    5    5    0    0 -0.23384940920E+02 -0.12449765347E+02  0.70476167879E+03  0.71101797093E+03  0.90308797890E+02 0.  0.
          5    1    3    3  501    0  0.57047244483E+02 -0.79670560033E+02 -0.26481104271E+03  0.28239823757E+03  0.47000000000E+01 0. -1.
        -13    1    4    4    0    0  0.84067280571E+02  0.77225734794E+01 -0.96777035217E+02  0.12842406452E+03  0.00000000000E+00 0.  1.
         14    1    4    4    0    0  0.13289830313E+02  0.31173251878E+02 -0.12928691361E+03  0.13365439482E+03  0.00000000000E+00 0. -1.
         -5    1    5    5    0  502 -0.13101941445E+03  0.53224500023E+02  0.50558684369E+03  0.52501341018E+03  0.47000000000E+01 0.  1.
         11    1    6    6    0    0 -0.26947938433E+02  0.27130597490E+02  0.54674638579E+03  0.54808199303E+03  0.00000000000E+00 0. -1.
        -12    1    6    6    0    0  0.35629975134E+01 -0.39580362836E+02  0.15801529300E+03  0.16293597790E+03  0.00000000000E+00 0.  1.
</event>
<event>
12    1  0.8226261E-002  0.1745153E+03  0.7818608E-02  0.1173450E+00
         21   -1    0    0  503  502  0.00000000000E+00  0.00000000000E+00  0.10000445922E+03  0.10000445922E+03  0.00000000000E+00 0. -1.
         21   -1    0    0  501  503 -0.00000000000E+00 -0.00000000000E+00 -0.46719515780E+03  0.46719515780E+03  0.00000000000E+00 0. -1.
          6    2    1    2  501    0  0.28045748392E+02  0.17757327253E+02 -0.35206084252E+03  0.39294073192E+03  0.17132920153E+03 0.  0.
         24    2    3    3    0    0 -0.28679470180E+02  0.20484071308E+02 -0.89680474866E+02  0.12444355711E+03  0.78749616801E+02 0.  0.
         -6    2    1    2    0  502 -0.28045748392E+02 -0.17757327253E+02 -0.15129856058E+02  0.17425888510E+03  0.17039765203E+03 0.  0.
        -24    2    5    5    0    0 -0.58388632875E+02 -0.27979763797E+02 -0.59899286480E+02  0.11901777045E+03  0.79907481065E+02 0.  0.
          5    1    3    3  501    0  0.56725218572E+02 -0.27267440552E+01 -0.26238036765E+03  0.26849717481E+03  0.47000000000E+01 0. -1.
        -13    1    4    4    0    0 -0.16195760051E+02  0.43957014282E+02 -0.22051190523E+02  0.51776218013E+02  0.00000000000E+00 0.  1.
         14    1    4    4    0    0 -0.12483710129E+02 -0.23472942974E+02 -0.67629284343E+02  0.72667339095E+02  0.00000000000E+00 0. -1.
         -5    1    5    5    0  502  0.30342884483E+02  0.10222436544E+02  0.44769430422E+02  0.55241114651E+02  0.47000000000E+01 0.  1.
         13    1    6    6    0    0  0.81653717189E+01  0.53295165001E+01  0.12050288689E+02  0.15501177340E+02  0.00000000000E+00 0. -1.
        -14    1    6    6    0    0 -0.66554004593E+02 -0.33309280297E+02 -0.71949575169E+02  0.10351659311E+03  0.00000000000E+00 0.  1.
</event>
<event>
12    1  0.8226261E-002  0.1981550E+03  0.7818608E-02  0.1151408E+00
         21   -1    0    0  501  502  0.00000000000E+00  0.00000000000E+00  0.63761565826E+02  0.63761565826E+02  0.00000000000E+00 0.  1.
         21   -1    0    0  502  503 -0.00000000000E+00 -0.00000000000E+00 -0.68018907731E+03  0.68018907731E+03  0.00000000000E+00 0.  1.
         -6    2    1    2    0  503 -0.16481394592E+02  0.94384306875E+02 -0.42430153712E+03  0.46829177967E+03  0.17345132676E+03 0.  0.
        -24    2    3    3    0    0 -0.35333554409E+02  0.81449284485E+02 -0.42831710663E+03  0.44460774428E+03  0.79611911362E+02 0.  0.
          6    2    1    2  501    0  0.16481394592E+02 -0.94384306875E+02 -0.19212597437E+03  0.27565886347E+03  0.17290282019E+03 0.  0.
         24    2    5    5    0    0  0.76023132803E+02 -0.54580545313E+02 -0.14039977268E+03  0.18718712807E+03  0.81045493997E+02 0.  0.
          5    1    5    5  501    0 -0.59541738210E+02 -0.39803761562E+02 -0.51726201689E+02  0.88471735401E+02  0.47000000000E+01 0. -1.
        -13    1    6    6    0    0  0.11174340270E+02 -0.50454889538E+02 -0.94245714665E+02  0.10748402901E+03  0.00000000000E+00 0.  1.
         14    1    6    6    0    0  0.64848792533E+02 -0.41256557744E+01 -0.46154058019E+02  0.79703099062E+02  0.00000000000E+00 0. -1.
         -5    1    3    3    0  503  0.18852159817E+02  0.12935022390E+02  0.40155695131E+01  0.23684035393E+02  0.47000000000E+01 0.  1.
         11    1    4    4    0    0 -0.38554339361E+02  0.43288236496E+02 -0.37208398559E+03  0.37657243770E+03  0.00000000000E+00 0. -1.
        -12    1    4    4    0    0  0.32207849519E+01  0.38161047990E+02 -0.56233121036E+02  0.68035306575E+02  0.00000000000E+00 0.  1.
</event>
<event>
12    1  0.8226261E-002  0.2673758E+03  0.7818608E-02  0.1103620E+00
         21   -1    0    0  503  502  0.00000000000E+00  0.00000000000E+00  0.46966288836E+03  0.46966288836E+03  0.00000000000E+00 0.  1.
         21   -1    0    0  501  503 -0.00000000000E+00 -0.00000000000E+00 -0.23394169410E+03  0.23394169410E+03  0.00000000000E+00 0. -1.
          6    2    1    2  501    0 -0.39727189087E+02 -0.20091455803E+03 -0.93300547413E+02  0.28318685943E+03  0.17188628806E+03 0.  0.
         24    2    3    3    0    0  0.28631400346E+02 -0.53841823152E+02 -0.57673275275E+02  0.11707039843E+03  0.81612330573E+02 0.  0.
         -6    2    1    2    0  502  0.39727189087E+02  0.20091455803E+03  0.32902174167E+03  0.42041772304E+03  0.16294430388E+03 0.  0.
        -24    2    5    5    0    0  0.58408228930E+02  0.21410070983E+03  0.27737676231E+03  0.36374189272E+03  0.78228262750E+02 0.  0.
          5    1    3    3  501    0 -0.68358589433E+02 -0.14707273488E+03 -0.35627272138E+02  0.16611646100E+03  0.47000000000E+01 0. -1.
        -13    1    4    4    0    0  0.12799634432E+02 -0.30730357565E+02 -0.76424478175E+02  0.83359980698E+02  0.00000000000E+00 0.  1.
         14    1    4    4    0    0  0.15831765915E+02 -0.23111465586E+02  0.18751202899E+02  0.33710417733E+02  0.00000000000E+00 0. -1.
         -5    1    5    5    0  502 -0.18681039843E+02 -0.13186151797E+02  0.51644979360E+02  0.56675830315E+02  0.47000000000E+01 0.  1.
         13    1    6    6    0    0 -0.76091430791E+01  0.45991933299E+02  0.23576247889E+02  0.52239797583E+02  0.00000000000E+00 0. -1.
        -14    1    6    6    0    0  0.66017372009E+02  0.16810877653E+03  0.25380051442E+03  0.31150209514E+03  0.00000000000E+00 0.  1.
</event>
<event>
12    1  0.8226261E-002  0.2679134E+03  0.7818608E-02  0.1102750E+00
         21   -1    0    0  501  502  0.00000000000E+00  0.00000000000E+00  0.30824207099E+03  0.30824207099E+03  0.00000000000E+00 0.  1.
         21   -1    0    0  502  503 -0.00000000000E+00 -0.00000000000E+00 -0.31960165726E+03  0.31960165726E+03  0.00000000000E+00 0. -1.
         -6    2    1    2    0  503  0.17809237211E+03 -0.98456766520E+02 -0.17072532157E+03  0.31611463194E+03  0.17137881207E+03 0.  0.
        -24    2    3    3    0    0  0.13481957208E+03 -0.22386971416E+02 -0.16454483017E+03  0.22825430288E+03  0.79671401026E+02 0.  0.
          6    2    1    2  501    0 -0.17809237211E+03  0.98456766520E+02  0.15936573530E+03  0.31172909630E+03  0.17426119481E+03 0.  0.
         24    2    5    5    0    0 -0.10390835087E+03  0.11960429562E+03  0.62327888582E+02  0.18767700769E+03  0.78966832328E+02 0.  0.
          5    1    5    5  501    0 -0.74184021235E+02 -0.21147529104E+02  0.97037846714E+02  0.12405208861E+03  0.47000000000E+01 0. -1.
        -11    1    6    6    0    0 -0.10285275139E+03  0.68838945617E+02  0.58106614253E+02  0.13672551891E+03  0.00000000000E+00 0.  1.
         12    1    6    6    0    0 -0.10555994816E+01  0.50765350007E+02  0.42212743290E+01  0.50951488776E+02  0.00000000000E+00 0. -1.
         -5    1    3    3    0  503  0.43272800029E+02 -0.76069795104E+02 -0.61804913962E+01  0.87860329065E+02  0.47000000000E+01 0.  1.
         11    1    4    4    0    0  0.18954347966E+02 -0.31901912233E+02 -0.66597574770E+02  0.76238023821E+02  0.00000000000E+00 0. -1.
        -12    1    4    4    0    0  0.11586522411E+03  0.95149408174E+01 -0.97947255403E+02  0.15201627906E+03  0.00000000000E+00 0.  1.
</event>
<event>
12    1  0.8226261E-002  0.1860328E+03  0.7818608E-02  0.1162462E+00
         21   -1    0    0  503  502  0.00000000000E+00  0.00000000000E+00  0.70851688339E+03  0.70851688339E+03  0.00000000000E+00 0. -1.
         21   -1    0    0  501  503 -0.00000000000E+00 -0.00000000000E+00 -0.57642106929E+02  0.57642106929E+02  0.00000000000E+00 0. -1.
          6    2    1    2  501    0 -0.13154776269E+02 -0.70166355594E+02  0.17108482814E+03  0.25156535208E+03  0.17005511562E+03 0.  0.
         24    2    3    3    0    0  0.47833646959E+02 -0.24064052574E+02  0.14071839261E+03  0.16916862569E+03  0.77131196629E+02 0.  0.
         -6    2    1    2    0  502  0.13154776269E+02  0.70166355594E+02  0.47978994832E+03  0.51459363824E+03  0.17179014062E+03 0.  0.
        -24    2    5    5    0    0 -0.22233798667E+02 -0.95789798327E+01  0.13716069030E+03  0.16099984841E+03  0.80757647108E+02 0.  0.
          5    1    3    3  501    0 -0.60988423228E+02 -0.46102303020E+02  0.30366435537E+02  0.82396726384E+02  0.47000000000E+01 0. -1.
        -11    1    4    4    0    0  0.26713666277E+02  0.25619532976E+02  0.78534839681E+02  0.86819937109E+02  0.00000000000E+00 0.  1.
         12    1    4    4    0    0  0.21119980682E+02 -0.49683585550E+02  0.62183552926E+02  0.82348688585E+02  0.00000000000E+00 0. -1.
         -5    1    5    5    0  502  0.35388574936E+02  0.79745335427E+02  0.34262925802E+03  0.35359378983E+03  0.47000000000E+01 0.  1.
         13    1    6    6    0    0 -0.74613259206E+01  0.35709853729E+02  0.64881166880E+02  0.74434070516E+02  0.00000000000E+00 0. -1.
        -14    1    6    6    0    0 -0.14772472747E+02 -0.45288833562E+02  0.72279523423E+02  0.86565777896E+02  0.00000000000E+00 0.  1.
</event>
<event>
12    1  0.8226261E-002  0.1787059E+03  0.7818608E-02  0.1169291E+00
         21   -1    0    0  501  502  0.00000000000E+00  0.00000000000E+00  0.13652796113E+03  0.13652796113E+03  0.00000000000E+00 0.  1.
         21   -1    0    0  502  503 -0.00000000000E+00 -0.00000000000E+00 -0.23291130334E+03  0.23291130334E+03  0.00000000000E+00 0.  1.
         -6    2    1    2    0  503  0.48119606697E+02  0.15711820154E+02 -0.42620449443E+02  0.18371802916E+03  0.17138685389E+03 0.  0.
        -24    2    3    3    0    0  0.96886020822E+02 -0.69488870122E+01 -0.18682444246E+02  0.12466899116E+03  0.75882379861E+02 0.  0.
          6    2    1    2  501    0 -0.48119606697E+02 -0.15711820154E+02 -0.53762892775E+02  0.18572123531E+03  0.17041000781E+03 0.  0.
         24    2    5    5    0    0  0.21260321983E+02 -0.54214970331E+02 -0.25238673790E+02  0.10127132029E+03  0.78915304982E+02 0.  0.
          5    1    5    5  501    0 -0.69379928679E+02  0.38503150177E+02 -0.28524218984E+02  0.84449915013E+02  0.47000000000E+01 0. -1.
        -11    1    6    6    0    0  0.20769875517E+02 -0.80368795279E+01  0.24696694544E+02  0.33255163252E+02  0.00000000000E+00 0.  1.
         12    1    6    6    0    0  0.49044646611E+00 -0.46178090803E+02 -0.49935368334E+02  0.68016157041E+02  0.00000000000E+00 0. -1.
         -5    1    3    3    0  503 -0.48766414125E+02  0.22660707167E+02 -0.23938005198E+02  0.59049038000E+02  0.47000000000E+01 0.  1.
         11    1    4    4    0    0  0.78531527347E+02  0.10370871687E+02  0.16948634762E+02  0.81006246594E+02  0.00000000000E+00 0. -1.
        -12    1    4    4    0    0  0.18354493475E+02 -0.17319758699E+02 -0.35631079008E+02  0.43662744570E+02  0.00000000000E+00 0.  1.
</event>
<event>
12    1  0.8226261E-002  0.1745691E+03  0.7818608E-02  0.1173495E+00
         21   -1    0    0  501  502  0.00000000000E+00  0.00000000000E+00  0.15253851346E+03  0.15253851346E+03  0.00000000000E+00 0. -1.
         21   -1    0    0  502  503 -0.00000000000E+00 -0.00000000000E+00 -0.19891730733E+03  0.19891730733E+03  0.00000000000E+00 0. -1.
         -6    2    1    2    0  503 -0.33661066797E+01 -0.18429246104E+02 -0.32966834492E+02  0.17637227966E+03  0.17224808001E+03 0.  0.
        -24    2    3    3    0    0  0.19000852786E+02 -0.67612807190E+02 -0.50894535879E+02  0.11925139001E+03  0.81842019370E+02 0.  0.
          6    2    1    2  501    0  0.33661066797E+01  0.18429246104E+02 -0.13411959376E+02  0.17508354113E+03  0.17356093436E+03 0.  0.
         24    2    5    5    0    0  0.54559448049E+02 -0.31137090217E+02 -0.12884991747E+02  0.10366962378E+03  0.81456222132E+02 0.  0.
          5    1    5    5  501    0 -0.51193341370E+02  0.49566336320E+02 -0.52696762945E+00  0.71413917353E+02  0.47000000000E+01 0. -1.
        -13    1    6    6    0    0  0.27000344554E+02 -0.49078807672E+02 -0.33103990769E+02  0.65066290607E+02  0.00000000000E+00 0.  1.
         14    1    6    6    0    0  0.27559103496E+02  0.17941717455E+02  0.20218999022E+02  0.38603333174E+02  0.00000000000E+00 0. -1.
         -5    1    3    3    0  503 -0.22366959465E+02  0.49183561086E+02  0.17927701387E+02  0.57120889645E+02  0.47000000000E+01 0.  1.
         11    1    4    4    0    0 -0.19124518998E+02 -0.24997463387E+02 -0.53433882093E+02  0.62014515706E+02  0.00000000000E+00 0. -1.
        -12    1    4    4    0    0  0.38125371784E+02 -0.42615343802E+02  0.25393462136E+01  0.57236874305E+02  0.00000000000E+00 0.  1.
</event>
<event>
12    1  0.8226261E-002  0.1980738E+03  0.7818608E-02  0.1151415E+00
         21   -1    0    0  501  502  0.00000000000E+00  0.00000000000E+00  0.22408837640E+03  0.22408837640E+03  0.00000000000E+00 0.  1.
         21   -1    0    0  502  503 -0.00000000000E+00 -0.00000000000E+00 -0.44445555380E+03  0.44445555380E+03  0.00000000000E+00 0.  1.
         -6    2    1    2    0  503  0.85686670950E+02  0.51826197410E+02 -0.37047814739E+03  0.42001520287E+03  0.17067674895E+03 0.  0.
        -24    2    3    3    0    0  0.78239415377E+02  0.10301741425E+03 -0.26225060099E+03  0.29996815336E+03  0.66869436616E+02 0.  0.
          6    2    1    2  501    0 -0.85686670950E+02 -0.51826197410E+02  0.15011096999E+03  0.24852872733E+03  0.17089489365E+03 0.  0.
         24    2    5    5    0    0 -0.11228587645E+03 -0.29820112867E+02  0.65122320809E+02  0.15667587772E+03  0.82517009222E+02 0.  0.
          5    1    5    5  501    0  0.26599205499E+02 -0.22006084543E+02  0.84988649184E+02  0.91852849604E+02  0.47000000000E+01 0. -1.
        -11    1    6    6    0    0 -0.10033394912E+03 -0.80485033124E+01  0.79242937127E+02  0.12810590477E+03  0.00000000000E+00 0.  1.
         12    1    6    6    0    0 -0.11951927329E+02 -0.21771609555E+02 -0.14120616318E+02  0.28569972955E+02  0.00000000000E+00 0. -1.
         -5    1    3    3    0  503  0.74472555729E+01 -0.51191216838E+02 -0.10822754640E+03  0.12004704951E+03  0.47000000000E+01 0.  1.
         11    1    4    4    0    0  0.13364522749E+02  0.66144378697E+02 -0.15758272765E+03  0.17142346792E+03  0.00000000000E+00 0. -1.
        -12    1    4    4    0    0  0.64874892628E+02  0.36873035551E+02 -0.10466787334E+03  0.12854468544E+03  0.00000000000E+00 0.  1.
</event>
<event>
12    1  0.8226261E-002  0.1739136E+03  0.7818608E-02  0.1173953E+00
         21   -1    0    0  501  502  0.00000000000E+00  0.00000000000E+00  0.19865327518E+03  0.19865327518E+03  0.00000000000E+00 0. -1.
         21   -1    0    0  502  503 -0.00000000000E+00 -0.00000000000E+00 -0.22815901890E+03  0.22815901890E+03  0.00000000000E+00 0. -1.
         -6    2    1    2    0  503 -0.24974008019E+02  0.10513482923E+02 -0.13818152746E+03  0.22173578547E+03  0.17128452828E+03 0.  0.
        -24    2    3    3    0    0 -0.71508902167E+02  0.43951963307E+02 -0.95829891666E+02  0.15032584640E+03  0.79807228938E+02 0.  0.
          6    2    1    2  501    0  0.24974008019E+02 -0.10513482923E+02  0.10867578373E+03  0.20507650862E+03  0.17178973781E+03 0.  0.
         24    2    5    5    0    0 -0.42192095357E+02  0.86372692724E+01  0.30239616653E+02  0.99946308111E+02  0.84970905365E+02 0.  0.
          5    1    5    5  501    0  0.67166103376E+02 -0.19150752196E+02  0.78436167078E+02  0.10513020051E+03  0.47000000000E+01 0. -1.
        -11    1    6    6    0    0  0.38418227244E+01 -0.11108417131E+02 -0.23627071172E+02  0.26389297550E+02  0.00000000000E+00 0.  1.
         12    1    6    6    0    0 -0.46033918081E+02  0.19745686403E+02  0.53866687825E+02  0.73557010561E+02  0.00000000000E+00 0. -1.
         -5    1    3    3    0  503  0.46534894148E+02 -0.33438480384E+02 -0.42351635790E+02  0.71409939069E+02  0.47000000000E+01 0.  1.
         13    1    4    4    0    0 -0.36567747887E+02  0.14943656252E+02 -0.97169884263E+02  0.10489279983E+03  0.00000000000E+00 0. -1.
        -14    1    4    4    0    0 -0.34941154280E+02  0.29008307056E+02  0.13399925964E+01  0.45433046572E+02  0.00000000000E+00 0.  1.
</event>
<event>
12    1  0.8226261E-002  0.1781702E+03  0.7818608E-02  0.1169983E+00
         21   -1    0    0  501  502  0.00000000000E+00  0.00000000000E+00  0.45482935834E+03  0.45482935834E+03  0.00000000000E+00 0. -1.
         21   -1    0    0  502  503 -0.00000000000E+00 -0.00000000000E+00 -0.95286425417E+02  0.95286425417E+02  0.00000000000E+00 0. -1.
         -6    2    1    2    0  503  0.48946695056E+02  0.11137367530E+01  0.35161384842E+02  0.18002390609E+03  0.16963273391E+03 0.  0.
        -24    2    3    3    0    0  0.29194875580E+01  0.23957997449E+02 -0.38749921824E+02  0.89883264147E+02  0.77426969997E+02 0.  0.
          6    2    1    2  501    0 -0.48946695056E+02 -0.11137367530E+01  0.32438154808E+03  0.37009187767E+03  0.17131138262E+03 0.  0.
         24    2    5    5    0    0  0.12947781298E+02 -0.50786814683E+02  0.20865955491E+03  0.22969240980E+03  0.80454009708E+02 0.  0.
          5    1    5    5  501    0 -0.61894476355E+02  0.49673077930E+02  0.11572199317E+03  0.14039946787E+03  0.47000000000E+01 0. -1.
        -11    1    6    6    0    0  0.22217140510E+01 -0.70919423239E+02  0.13400745126E+03  0.15163277218E+03  0.00000000000E+00 0.  1.
         12    1    6    6    0    0  0.10726067248E+02  0.20132608556E+02  0.74652103649E+02  0.78059637619E+02  0.00000000000E+00 0. -1.
         -5    1    3    3    0  503  0.46027207498E+02 -0.22844260696E+02  0.73911306666E+02  0.90140641943E+02  0.47000000000E+01 0.  1.
         13    1    4    4    0    0  0.35262237226E+02  0.13222464787E+02 -0.41074831518E+02  0.55726122541E+02  0.00000000000E+00 0. -1.
        -14    1    4    4    0    0 -0.32342749668E+02  0.10735532662E+02  0.23249096938E+01  0.34157141606E+02  0.00000000000E+00 0.  1.
</event>
<event>
12    1  0.8226261E-002  0.1789449E+03  0.7818608E-02  0.1169023E+00
         21   -1    0    0  501  502  0.00000000000E+00  0.00000000000E+00  0.18497664565E+03  0.18497664565E+03  0.00000000000E+00 0. -1.
         21   -1    0    0  502  503 -0.00000000000E+00 -0.00000000000E+00 -0.13518864508E+04  0.13518864508E+04  0.00000000000E+00 0. -1.
         -6    2    1    2    0  503  0.24627136012E+02  0.41156236480E+02 -0.13014034320E+04  0.13136484253E+04  0.17239768203E+03 0.  0.
        -24    2    3    3    0    0  0.66559887117E+02 -0.11843238664E+02 -0.94563192978E+03  0.95148444063E+03  0.80823346037E+02 0.  0.
          6    2    1    2  501    0 -0.24627136012E+02 -0.41156236480E+02  0.13449362691E+03  0.22321467112E+03  0.17156900098E+03 0.  0.
         24    2    5    5    0    0  0.26444351661E+02  0.71592731439E+01  0.12886883351E+02  0.82669392291E+02  0.76925923671E+02 0.  0.
          5    1    5    5  501    0 -0.51071487673E+02 -0.48315509624E+02  0.12160674356E+03  0.14054527883E+03  0.47000000000E+01 0. -1.
        -11    1    6    6    0    0 -0.11052138814E+02  0.33584474092E+02  0.98195095235E+01  0.36694542369E+02  0.00000000000E+00 0.  1.
         12    1    6    6    0    0  0.37496490475E+02 -0.26425200948E+02  0.30673738274E+01  0.45974849922E+02  0.00000000000E+00 0. -1.
         -5    1    3    3    0  503 -0.41932751106E+02  0.52999475144E+02 -0.35577150227E+03  0.36216398469E+03  0.47000000000E+01 0.  1.
         13    1    4    4    0    0  0.61845677449E+02  0.19868647555E+02 -0.43239949360E+03  0.43725161296E+03  0.00000000000E+00 0. -1.
        -14    1    4    4    0    0  0.47142096689E+01 -0.31711886219E+02 -0.51323243618E+03  0.51423282767E+03  0.00000000000E+00 0.  1.
</event>
<event>
12    1  0.8226261E-002  0.2475043E+03  0.7818608E-02  0.1115231E+00
         21   -1    0    0  503  502  0.00000000000E+00  0.00000000000E+00  0.79755642508E+02  0.79755642508E+02  0.00000000000E+00 0. -1.
         21   -1    0    0  501  503 -0.00000000000E+00 -0.00000000000E+00 -0.76178892565E+03  0.76178892565E+03  0.00000000000E+00 0. -1.
          6    2    1    2  501    0 -0.15174327828E+03 -0.90015388963E+02 -0.34697106607E+03  0.42498114882E+03  0.17056161178E+03 0.  0.
         24    2    3    3    0    0 -0.34245457615E+01 -0.25174690364E+02 -0.15556550291E+03  0.17426030362E+03  0.74300303999E+02 0.  0.
         -6    2    1    2    0  502  0.15174327828E+03  0.90015388963E+02 -0.33506221707E+03  0.41656341933E+03  0.17357880131E+03 0.  0.
        -24    2    5    5    0    0  0.68310984778E+02  0.38360140960E+02 -0.28425295826E+03  0.30596105487E+03  0.81697807547E+02 0.  0.
          5    1    3    3  501    0 -0.14831873252E+03 -0.64840698599E+02 -0.19140556316E+03  0.25072084520E+03  0.47000000000E+01 0. -1.
        -13    1    4    4    0    0 -0.30240241903E+02 -0.18873381880E+02 -0.13568517849E+03  0.14028950223E+03  0.00000000000E+00 0.  1.
         14    1    4    4    0    0  0.26815696141E+02 -0.63013084838E+01 -0.19880324415E+02  0.33970801389E+02  0.00000000000E+00 0. -1.
         -5    1    5    5    0  502  0.83432293501E+02  0.51655248003E+02 -0.50809258810E+02  0.11060236447E+03  0.47000000000E+01 0.  1.
         13    1    6    6    0    0  0.40795555785E+02  0.62714869731E+02 -0.16487699987E+03  0.18105760780E+03  0.00000000000E+00 0. -1.
        -14    1    6    6    0    0  0.27515428993E+02 -0.24354728771E+02 -0.11937595839E+03  0.12490344706E+03  0.00000000000E+00 0.  1.
</event>
<event>
12    1  0.8226261E-002  0.3204400E+03  0.7818608E-02  0.1075558E+00
         21   -1    0    0  503  502  0.00000000000E+00  0.00000000000E+00  0.58866182345E+03  0.58866182345E+03  0.00000000000E+00 0. -1.
         21   -1    0    0  501  503 -0.00000000000E+00 -0.00000000000E+00 -0.20032118898E+03  0.20032118898E+03  0.00000000000E+00 0.  1.
          6    2    1    2  501    0 -0.18704111142E+03  0.19592824397E+03  0.51177100640E+02  0.32450101404E+03  0.17120034561E+03 0.  0.
         24    2    3    3    0    0 -0.29145786694E+02  0.26723410875E+02  0.19604263103E+02  0.90877078661E+02  0.79439906365E+02 0.  0.
         -6    2    1    2    0  502  0.18704111142E+03 -0.19592824397E+03  0.33716353383E+03  0.46448199840E+03  0.16938720183E+03 0.  0.
        -24    2    5    5    0    0  0.15741578957E+03 -0.13827716783E+03  0.15768674151E+03  0.27360162944E+03  0.78054066073E+02 0.  0.
          5    1    3    3  501    0 -0.15789532472E+03  0.16920483310E+03  0.31572837537E+02  0.23362393538E+03  0.47000000000E+01 0. -1.
        -11    1    4    4    0    0  0.10144636601E+02 -0.15282417596E+02 -0.15049961414E+02  0.23726931490E+02  0.00000000000E+00 0.  1.
         12    1    4    4    0    0 -0.39290423296E+02  0.42005828471E+02  0.34654224517E+02  0.67150147171E+02  0.00000000000E+00 0. -1.
         -5    1    5    5    0  502  0.29625321846E+02 -0.57651076140E+02  0.17947679232E+03  0.19088036896E+03  0.47000000000E+01 0.  1.
         13    1    6    6    0    0  0.63488247304E+02 -0.11563335125E+02  0.59706704003E+02  0.87916771823E+02  0.00000000000E+00 0. -1.
        -14    1    6    6    0    0  0.93927542267E+02 -0.12671383271E+03  0.97980037510E+02  0.18568485761E+03  0.00000000000E+00 0.  1.
</event>
<event>
12    1  0.8226261E-002  0.1738312E+03  0.7818608E-02  0.1174154E+00
         21   -1    0    0  503  502  0.00000000000E+00  0.00000000000E+00  0.31315807429E+02  0.31315807429E+02  0.00000000000E+00 0.  1.
         21   -1    0    0  501  503 -0.00000000000E+00 -0.00000000000E+00 -0.10499016442E+04  0.10499016442E+04  0.00000000000E+00 0.  1.
          6    2    1    2  501    0  0.43145069868E+00  0.21075933080E+02 -0.66912775599E+03  0.69133873853E+03  0.17254830177E+03 0.  0.
         24    2    3    3    0    0 -0.30455227347E+02 -0.42675620254E+02 -0.48652384203E+03  0.49541904368E+03  0.77368278673E+02 0.  0.
         -6    2    1    2    0  502 -0.43145069868E+00 -0.21075933080E+02 -0.34945808080E+03  0.38987871313E+03  0.17158111669E+03 0.  0.
        -24    2    5    5    0    0  0.16846695879E+02 -0.77567789110E+02 -0.24444422232E+03  0.26929735213E+03  0.80420849080E+02 0.  0.
          5    1    3    3  501    0  0.30886678046E+02  0.63751553334E+02 -0.18260391396E+03  0.19591969485E+03  0.47000000000E+01 0. -1.
        -11    1    4    4    0    0 -0.35235034742E+02 -0.29565803777E+02 -0.47527518709E+03  0.47749570458E+03  0.00000000000E+00 0.  1.
         12    1    4    4    0    0  0.47798073943E+01 -0.13109816477E+02 -0.11248654939E+02  0.17923339106E+02  0.00000000000E+00 0. -1.
         -5    1    5    5    0  502 -0.17278146578E+02  0.56491856031E+02 -0.10501385848E+03  0.12058136100E+03  0.47000000000E+01 0.  1.
         13    1    6    6    0    0 -0.24823697576E+02 -0.63709022850E+02 -0.16319620472E+03  0.17694082850E+03  0.00000000000E+00 0. -1.
        -14    1    6    6    0    0  0.41670393456E+02 -0.13858766260E+02 -0.81248017598E+02  0.92356523628E+02  0.00000000000E+00 0.  1.
</event>
<event>
12    1  0.8226261E-002  0.2093643E+03  0.7818608E-02  0.1142120E+00
         21   -1    0    0  501  502  0.00000000000E+00  0.00000000000E+00  0.10812777840E+04  0.10812777840E+04  0.00000000000E+00 0. -1.
         21   -1    0    0  502  503 -0.00000000000E+00 -0.00000000000E+00 -0.40678168156E+02  0.40678168156E+02  0.00000000000E+00 0. -1.
         -6    2    1    2    0  503  0.54562658258E+02 -0.10621722897E+03  0.48243561491E+03  0.52590639097E+03  0.17197158521E+03 0.  0.
        -24    2    3    3    0    0  0.60450261018E+02 -0.38142934978E+02  0.41957376869E+03  0.43294147781E+03  0.79290972289E+02 0.  0.
          6    2    1    2  501    0 -0.54562658258E+02  0.10621722897E+03  0.55816400097E+03  0.59604956123E+03  0.17166491795E+03 0.  0.
         24    2    5    5    0    0 -0.21239418300E+02  0.10765049198E+03  0.23402237568E+03  0.27016250133E+03  0.78622919633E+02 0.  0.
          5    1    5    5  501    0 -0.33323239958E+02 -0.14332630134E+01  0.32414162529E+03  0.32588705990E+03  0.47000000000E+01 0. -1.
        -13    1    6    6    0    0  0.17189721288E+01 -0.11960849109E+02  0.32751998760E+02  0.34910030068E+02  0.00000000000E+00 0.  1.
         14    1    6    6    0    0 -0.22958390429E+02  0.11961134109E+03  0.20127037692E+03  0.23525247126E+03  0.00000000000E+00 0. -1.
         -5    1    3    3    0  503 -0.58876027598E+01 -0.68074293990E+02  0.62861846221E+02  0.92964913160E+02  0.47000000000E+01 0.  1.
         13    1    4    4    0    0  0.76404463185E+02 -0.41425209474E+02  0.30242640804E+03  0.31466716107E+03  0.00000000000E+00 0. -1.
        -14    1    4    4    0    0 -0.15954202167E+02  0.32822744969E+01  0.11714736065E+03  0.11827431673E+03  0.00000000000E+00 0.  1.
</event>
<event>
12    1  0.8226261E-002  0.2383243E+03  0.7818608E-02  0.1121419E+00
         21   -1    0    0  501  502  0.00000000000E+00  0.00000000000E+00  0.42822157642E+02  0.42822157642E+02  0.00000000000E+00 0. -1.
         21   -1    0    0  502  503 -0.00000000000E+00 -0.00000000000E+00 -0.15547661763E+04  0.15547661763E+04  0.00000000000E+00 0. -1.
         -6    2    1    2    0  503 -0.15495791474E+03  0.43429211786E+02 -0.10770453254E+04  0.11030979682E+04  0.17578521723E+03 0.  0.
        -24    2    3    3    0    0 -0.43655949179E+02  0.17382491940E+02 -0.22606536265E+03  0.24446210461E+03  0.80300557137E+02 0.  0.
          6    2    1    2  501    0  0.15495791474E+03 -0.43429211786E+02 -0.43489869324E+03  0.49449036578E+03  0.17171428794E+03 0.  0.
         24    2    5    5    0    0  0.18340863066E+03 -0.29714638601E+02 -0.35799483266E+03  0.41122076432E+03  0.80128217584E+02 0.  0.
          5    1    5    5  501    0 -0.28450715913E+02 -0.13714573186E+02 -0.76903860588E+02  0.83269601458E+02  0.47000000000E+01 0. -1.
        -13    1    6    6    0    0  0.93390751036E+01 -0.22524033033E+02 -0.75345936761E+02  0.79193185150E+02  0.00000000000E+00 0.  1.
         14    1    6    6    0    0  0.17406955555E+03 -0.71906055679E+01 -0.28264889589E+03  0.33202757917E+03  0.00000000000E+00 0. -1.
         -5    1    3    3    0  503 -0.11130196556E+03  0.26046719846E+02 -0.85097996277E+03  0.85863586356E+03  0.47000000000E+01 0.  1.
         13    1    4    4    0    0 -0.50934322610E+02 -0.20153725608E+02 -0.13599797554E+03  0.14661489429E+03  0.00000000000E+00 0. -1.
        -14    1    4    4    0    0  0.72783734312E+01  0.37536217549E+02 -0.90067387108E+02  0.97847210323E+02  0.00000000000E+00 0.  1.
</event>
<event>
12    1  0.8226261E-002  0.2019621E+03  0.7818608E-02  0.1149481E+00
         21   -1    0    0  501  502  0.00000000000E+00  0.00000000000E+00  0.90456638851E+03  0.90456638851E+03  0.00000000000E+00 0.  1.
         21   -1    0    0  502  503 -0.00000000000E+00 -0.00000000000E+00 -0.44235256430E+02  0.44235256430E+02  0.00000000000E+00 0.  1.
         -6    2    1    2    0  503  0.22915526247E+02  0.10927366915E+03  0.36829022897E+03  0.41692484863E+03  0.16038323024E+03 0.  0.
        -24    2    3    3    0    0 -0.41844729929E+02  0.90292684952E+02  0.26326977428E+03  0.29200265507E+03  0.77787056382E+02 0.  0.
          6    2    1    2  501    0 -0.22915526247E+02 -0.10927366915E+03  0.49204090311E+03  0.53187679631E+03  0.16829385017E+03 0.  0.
         24    2    5    5    0    0 -0.62014243943E+02 -0.10220787772E+03  0.27073661828E+03  0.30698501874E+03  0.81543047105E+02 0.  0.
          5    1    5    5  501    0  0.39098717696E+02 -0.70657914251E+01  0.22130428483E+03  0.22489177757E+03  0.47000000000E+01 0. -1.
        -11    1    6    6    0    0 -0.26435473761E+02 -0.95909664943E+02  0.23905637715E+03  0.25893136071E+03  0.00000000000E+00 0.  1.
         12    1    6    6    0    0 -0.35578770181E+02 -0.62982127792E+01  0.31680241128E+02  0.48053658027E+02  0.00000000000E+00 0. -1.
         -5    1    3    3    0  503  0.64760256176E+02  0.18980984195E+02  0.10502045469E+03  0.12492219356E+03  0.47000000000E+01 0.  1.
         11    1    4    4    0    0 -0.76095327206E+01 -0.57516583524E+01  0.93362838960E+02  0.93848847945E+02  0.00000000000E+00 0. -1.
        -12    1    4    4    0    0 -0.34235197209E+02  0.96044343305E+02  0.16990693532E+03  0.19815380713E+03  0.00000000000E+00 0.  1.
</event>
<event>
12    1  0.8226261E-002  0.2318832E+03  0.7818608E-02  0.1125415E+00
         21   -1    0    0  501  502  0.00000000000E+00  0.00000000000E+00  0.11035016995E+04  0.11035016995E+04  0.00000000000E+00 0.  1.
         21   -1    0    0  502  503 -0.00000000000E+00 -0.00000000000E+00 -0.53978865976E+02  0.53978865976E+02  0.00000000000E+00 0.  1.
         -6    2    1    2    0  503  0.15269075962E+03 -0.26642602953E+02  0.34174758508E+03  0.41268822154E+03  0.17174358773E+03 0.  0.
        -24    2    3    3    0    0  0.97828210259E+02  0.11384167202E+02  0.31721829675E+03  0.34141613334E+03  0.78978290213E+02 0.  0.
          6    2    1    2  501    0 -0.15269075962E+03  0.26642602953E+02  0.70777524844E+03  0.74479234393E+03  0.17246894477E+03 0.  0.
         24    2    5    5    0    0 -0.13171920387E+03  0.38933678149E+02  0.70199337990E+03  0.71936801142E+03  0.76353457456E+02 0.  0.
          5    1    5    5  501    0 -0.20971555747E+02 -0.12291075196E+02  0.57818685391E+01  0.25424332513E+02  0.47000000000E+01 0. -1.
        -13    1    6    6    0    0 -0.40356035485E+02  0.32371594460E+02  0.12714505835E+03  0.13726760576E+03  0.00000000000E+00 0.  1.
         14    1    6    6    0    0 -0.91363168387E+02  0.65620836895E+01  0.57484832155E+03  0.58210040566E+03  0.00000000000E+00 0. -1.
         -5    1    3    3    0  503  0.54862549361E+02 -0.38026770156E+02  0.24529288330E+02  0.71272088203E+02  0.47000000000E+01 0.  1.
         13    1    4    4    0    0  0.27119909708E+01 -0.24215150645E+02  0.71443768343E+02  0.75484703423E+02  0.00000000000E+00 0. -1.
        -14    1    4    4    0    0  0.95116219288E+02  0.35599317847E+02  0.24577452841E+03  0.26593142991E+03  0.00000000000E+00 0.  1.
</event>
<event>
12    1  0.8226261E-002  0.2033870E+03  0.7818608E-02  0.1147290E+00
         21   -1    0    0  503  502  0.00000000000E+00  0.00000000000E+00  0.19811780668E+03  0.19811780668E+03  0.00000000000E+00 0. -1.
         21   -1    0    0  501  503 -0.00000000000E+00 -0.00000000000E+00 -0.22322602976E+03  0.22322602976E+03  0.00000000000E+00 0.  1.
          6    2    1    2  501    0  0.50654640227E+02  0.90887854378E+02 -0.69525329528E+02  0.21494195866E+03  0.17475634322E+03 0.  0.
         24    2    3    3    0    0 -0.16113771547E+02  0.99321040831E+02 -0.72300868511E+02  0.14742208705E+03  0.79884500241E+02 0.  0.
         -6    2    1    2    0  502 -0.50654640227E+02 -0.90887854378E+02  0.44417106447E+02  0.20640187779E+03  0.17263360380E+03 0.  0.
        -24    2    5    5    0    0 -0.33126050097E+02 -0.12895662721E+03  0.50898938522E+02  0.16373353960E+03  0.80565644970E+02 0.  0.
          5    1    3    3  501    0  0.66768411774E+02 -0.84331864530E+01  0.27755389828E+01  0.67519871603E+02  0.47000000000E+01 0. -1.
        -11    1    4    4    0    0  0.20974548492E+02  0.64136136265E+02 -0.12291459144E+02  0.68589034309E+02  0.00000000000E+00 0.  1.
         12    1    4    4    0    0 -0.37088320039E+02  0.35184904566E+02 -0.60009409366E+02  0.78833052745E+02  0.00000000000E+00 0. -1.
         -5    1    5    5    0  502 -0.17528590130E+02  0.38068772834E+02 -0.64818320749E+01  0.42668338192E+02  0.47000000000E+01 0.  1.
         13    1    6    6    0    0 -0.27586960919E+02 -0.25941470030E+01  0.17997327077E+02  0.33040487184E+02  0.00000000000E+00 0. -1.
        -14    1    6    6    0    0 -0.55390891783E+01 -0.12636248021E+03  0.32901611445E+02  0.13069305241E+03  0.00000000000E+00 0.  1.
</event>
<event>
12    1  0.8226261E-002  0.2170379E+03  0.7818608E-02  0.1136263E+00
         21   -1    0    0  501  502  0.00000000000E+00  0.00000000000E+00  0.10084953103E+04  0.10084953103E+04  0.00000000000E+00 0. -1.
         21   -1    0    0  502  503 -0.00000000000E+00 -0.00000000000E+00 -0.49019390450E+02  0.49019390450E+02  0.00000000000E+00 0. -1.
         -6    2    1    2    0  503  0.13011560488E+03  0.56176053386E+01  0.59790082414E+03  0.63580154474E+03  0.17261686089E+03 0.  0.
        -24    2    3    3    0    0  0.43206372065E+02 -0.37571715884E+02  0.16797262075E+03  0.19503076272E+03  0.80893588513E+02 0.  0.
          6    2    1    2  501    0 -0.13011560488E+03 -0.56176053386E+01  0.36157509574E+03  0.42171315604E+03  0.17361972236E+03 0.  0.
         24    2    5    5    0    0 -0.15990128359E+03 -0.21481624073E+01  0.25706230672E+03  0.31288192541E+03  0.79000219106E+02 0.  0.
          5    1    5    5  501    0  0.29785678709E+02 -0.34694429313E+01  0.10451278902E+03  0.10883123062E+03  0.47000000000E+01 0. -1.
        -11    1    6    6    0    0 -0.12144994668E+02 -0.18100493560E+02  0.87379723389E+01  0.23483630963E+02  0.00000000000E+00 0.  1.
         12    1    6    6    0    0 -0.14775628892E+03  0.15952331153E+02  0.24832433438E+03  0.28939829445E+03  0.00000000000E+00 0. -1.
         -5    1    3    3    0  503  0.86909232818E+02  0.43189321223E+02  0.42992820339E+03  0.44077078203E+03  0.47000000000E+01 0.  1.
         13    1    4    4    0    0  0.36024203789E+02  0.19750202998E+02  0.76757156584E+02  0.87060179554E+02  0.00000000000E+00 0. -1.
        -14    1    4    4    0    0  0.71821682762E+01 -0.57321918882E+02  0.91215464166E+02  0.10797058316E+03  0.00000000000E+00 0.  1.
</event>
<event>
12    1  0.8226261E-002  0.1973663E+03  0.7818608E-02  0.1152170E+00
         21   -1    0    0  503  502  0.00000000000E+00  0.00000000000E+00  0.58897389987E+02  0.58897389987E+02  0.00000000000E+00 0.  1.
         21   -1    0    0  501  503 -0.00000000000E+00 -0.00000000000E+00 -0.10776569279E+04  0.10776569279E+04  0.00000000000E+00 0.  1.
          6    2    1    2  501    0  0.32388856993E+02  0.89820892763E+02 -0.86312616517E+03  0.88520757473E+03  0.17172315663E+03 0.  0.
         24    2    3    3    0    0  0.85266749311E+01 -0.18999991224E+02 -0.29559790120E+03  0.30682897128E+03  0.79575087624E+02 0.  0.
         -6    2    1    2    0  502 -0.32388856993E+02 -0.89820892763E+02 -0.15563337280E+03  0.25134674321E+03  0.17273276400E+03 0.  0.
        -24    2    5    5    0    0 -0.16222552303E+02 -0.79163374058E+02 -0.18387379323E+03  0.21678457518E+03  0.81584123493E+02 0.  0.
          5    1    3    3  501    0  0.23862182062E+02  0.10882088399E+03 -0.56752826397E+03  0.57837860345E+03  0.47000000000E+01 0. -1.
        -11    1    4    4    0    0 -0.12717221461E+02  0.26918292509E+02 -0.14287158074E+03  0.14594043571E+03  0.00000000000E+00 0.  1.
         12    1    4    4    0    0  0.21243896392E+02 -0.45918283733E+02 -0.15272632046E+03  0.16088853557E+03  0.00000000000E+00 0. -1.
         -5    1    5    5    0  502 -0.16166304690E+02 -0.10657518705E+02  0.28240420433E+02  0.34562168024E+02  0.47000000000E+01 0.  1.
         11    1    6    6    0    0 -0.48315339188E+02 -0.32624247881E+02 -0.93345785039E+02  0.11005520949E+03  0.00000000000E+00 0. -1.
        -12    1    6    6    0    0  0.32092786885E+02 -0.46539126178E+02 -0.90528008190E+02  0.10672936570E+03  0.00000000000E+00 0.  1.
</event>
<event>
12    1  0.8226261E-002  0.2192655E+03  0.7818608E-02  0.1135284E+00
         21   -1    0    0  501  502  0.00000000000E+00  0.00000000000E+00  0.61439444261E+02  0.61439444261E+02  0.00000000000E+00 0.  1.
         21   -1    0    0  502  503 -0.00000000000E+00 -0.00000000000E+00 -0.11427333075E+04  0.11427333075E+04  0.00000000000E+00 0.  1.
         -6    2    1    2    0  503  0.12235516776E+03 -0.37670156754E+02 -0.19144130236E+03  0.28770402235E+03  0.17243550805E+03 0.  0.
        -24    2    3    3    0    0  0.60514234940E+02 -0.66604672536E+02 -0.18266345863E+03  0.21870657517E+03  0.79802705910E+02 0.  0.
          6    2    1    2  501    0 -0.12235516776E+03  0.37670156754E+02 -0.88985256088E+03  0.91646872942E+03  0.17800989892E+03 0.  0.
         24    2    5    5    0    0 -0.12362464609E+03  0.87109520438E+02 -0.71240421756E+03  0.73219755206E+03  0.75646311085E+02 0.  0.
          5    1    5    5  501    0  0.12694783300E+01 -0.49439363684E+02 -0.17744834332E+03  0.18427117736E+03  0.47000000000E+01 0. -1.
        -13    1    6    6    0    0 -0.32812081561E+02 -0.11235861991E+02 -0.12401102078E+03  0.12876960265E+03  0.00000000000E+00 0.  1.
         14    1    6    6    0    0 -0.90812564530E+02  0.98345382429E+02 -0.58839319678E+03  0.60342794942E+03  0.00000000000E+00 0. -1.
         -5    1    3    3    0  503  0.61840932821E+02  0.28934515782E+02 -0.87778437298E+01  0.68997447172E+02  0.47000000000E+01 0.  1.
         11    1    4    4    0    0  0.72424116034E+01 -0.46552527921E+02 -0.30191882972E+02  0.55956591918E+02  0.00000000000E+00 0. -1.
        -12    1    4    4    0    0  0.53271823336E+02 -0.20052144615E+02 -0.15247157566E+03  0.16274998326E+03  0.00000000000E+00 0.  1.
</event>
<event>
12    1  0.8226261E-002  0.1848578E+03  0.7818608E-02  0.1163727E+00
         21   -1    0    0  501  502  0.00000000000E+00  0.00000000000E+00  0.96160538681E+03  0.96160538681E+03  0.00000000000E+00 0. -1.
         21   -1    0    0  502  503 -0.00000000000E+00 -0.00000000000E+00 -0.75644171555E+02  0.75644171555E+02  0.00000000000E+00 0.  1.
         -6    2    1    2    0  503 -0.55325018523E+02 -0.23152240565E+02  0.64556707672E+02  0.19580592474E+03  0.17485853637E+03 0.  0.
        -24    2    3    3    0    0 -0.62729453328E+02  0.57479315367E+01 -0.22175244612E+02  0.10396602519E+03  0.79681678503E+02 0.  0.
          6    2    1    2  501    0  0.55325018523E+02  0.23152240565E+02  0.82140450759E+03  0.84144363363E+03  0.17240980126E+03 0.  0.
         24    2    5    5    0    0  0.81418150717E+02  0.12702265237E+02  0.79299561389E+03  0.80120424033E+03  0.79346885646E+02 0.  0.
          5    1    5    5  501    0 -0.26093132194E+02  0.10449975327E+02  0.28408893699E+02  0.40239393301E+02  0.47000000000E+01 0. -1.
        -11    1    6    6    0    0  0.70049826673E+02  0.62285620924E+01  0.30379608510E+03  0.31182981660E+03  0.00000000000E+00 0.  1.
         12    1    6    6    0    0  0.11368324044E+02  0.64737031448E+01  0.48919952879E+03  0.48937442372E+03  0.00000000000E+00 0. -1.
         -5    1    3    3    0  503  0.74044348048E+01 -0.28900172101E+02  0.86731952284E+02  0.91839899549E+02  0.47000000000E+01 0.  1.
         13    1    4    4    0    0 -0.57241089023E+02  0.37414636166E+02 -0.80368904914E+01  0.68854839197E+02  0.00000000000E+00 0. -1.
        -14    1    4    4    0    0 -0.54883643041E+01 -0.31666704629E+02 -0.14138354121E+02  0.35111185996E+02  0.00000000000E+00 0.  1.
</event>
<event>
12    1  0.8226261E-002  0.2105484E+03  0.7818608E-02  0.1141300E+00
         21   -1    0    0  501  502  0.00000000000E+00  0.00000000000E+00  0.67397847019E+03  0.67397847019E+03  0.00000000000E+00 0. -1.
         21   -1    0    0  502  503 -0.00000000000E+00 -0.00000000000E+00 -0.11199465514E+03  0.11199465514E+03  0.00000000000E+00 0. -1.
         -6    2    1    2    0  503  0.31905290237E+02  0.11627647023E+03  0.27481438140E+02  0.21149646505E+03  0.17157319200E+03 0.  0.
        -24    2    3    3    0    0  0.28809139816E+02 -0.48295441114E+01 -0.78263362280E+01  0.85223024507E+02  0.79676981206E+02 0.  0.
          6    2    1    2  501    0 -0.31905290237E+02 -0.11627647023E+03  0.53450237691E+03  0.57447666028E+03  0.17260497448E+03 0.  0.
         24    2    5    5    0    0 -0.20330811311E+01 -0.98129266620E+02  0.52180593244E+03  0.53699386986E+03  0.80296318405E+02 0.  0.
          5    1    5    5  501    0 -0.29872209106E+02 -0.18147203608E+02  0.12696444465E+02  0.37482790420E+02  0.47000000000E+01 0. -1.
        -11    1    6    6    0    0 -0.11280633861E+02  0.67821534934E+01  0.14950064040E+03  0.15007895184E+03  0.00000000000E+00 0.  1.
         12    1    6    6    0    0  0.92475527299E+01 -0.10491142011E+03  0.37230529205E+03  0.38691491802E+03  0.00000000000E+00 0. -1.
         -5    1    3    3    0  503  0.30961504209E+01  0.12110601434E+03  0.35307774368E+02  0.12627344055E+03  0.47000000000E+01 0.  1.
         11    1    4    4    0    0  0.76873024227E+01  0.35488245606E+02 -0.14733320054E+02  0.39186488928E+02  0.00000000000E+00 0. -1.
        -12    1    4    4    0    0  0.21121837393E+02 -0.40317789717E+02  0.69069838263E+01  0.46036535579E+02  0.00000000000E+00 0.  1.
</event>
<event>
12    1  0.8226261E-002  0.2082515E+03  0.7818608E-02  0.1143520E+00
         21   -1    0    0  501  502  0.00000000000E+00  0.00000000000E+00  0.73763027842E+02  0.73763027842E+02  0.00000000000E+00 0. -1.
         21   -1    0    0  502  503 -0.00000000000E+00 -0.00000000000E+00 -0.70303070804E+03  0.70303070804E+03  0.00000000000E+00 0. -1.
         -6    2    1    2    0  503 -0.30768775090E+02  0.11305743585E+03 -0.47878715618E+03  0.52211666960E+03  0.17216263945E+03 0.  0.
        -24    2    3    3    0    0  0.25443747148E+02  0.10893368026E+03 -0.41204900223E+03  0.43463567618E+03  0.81301044302E+02 0.  0.
          6    2    1    2  501    0  0.30768775090E+02 -0.11305743585E+03 -0.15048052402E+03  0.25467706629E+03  0.16878186710E+03 0.  0.
         24    2    5    5    0    0 -0.23271912068E+02 -0.64641136397E+02 -0.14832806308E+03  0.18193603929E+03  0.79871457291E+02 0.  0.
          5    1    5    5  501    0  0.54040687158E+02 -0.48416299456E+02 -0.21524609458E+01  0.72741027004E+02  0.47000000000E+01 0. -1.
        -11    1    6    6    0    0 -0.16064965738E+02 -0.10084480488E+02 -0.11717303311E+03  0.11869835534E+03  0.00000000000E+00 0.  1.
         12    1    6    6    0    0 -0.72069463299E+01 -0.54556655909E+02 -0.31155029962E+02  0.63237683950E+02  0.00000000000E+00 0. -1.
         -5    1    3    3    0  503 -0.56212522238E+02  0.41237555974E+01 -0.66738153950E+02  0.87480993417E+02  0.47000000000E+01 0.  1.
         11    1    4    4    0    0 -0.25712630027E+02  0.68229096012E+02 -0.21647304899E+03  0.22842269988E+03  0.00000000000E+00 0. -1.
        -12    1    4    4    0    0  0.51156377174E+02  0.40704584244E+02 -0.19557595325E+03  0.20621297629E+03  0.00000000000E+00 0.  1.
</event>
<event>
12    1  0.8226261E-002  0.2118737E+03  0.7818608E-02  0.1140387E+00
         21   -1    0    0  503  502  0.00000000000E+00  0.00000000000E+00  0.56881043960E+03  0.56881043960E+03  0.00000000000E+00 0.  1.
         21   -1    0    0  501  503 -0.00000000000E+00 -0.00000000000E+00 -0.78567359926E+02  0.78567359926E+02  0.00000000000E+00 0. -1.
          6    2    1    2  501    0  0.37282804920E+01  0.12284735781E+03  0.26088332837E+03  0.33513373972E+03  0.17073118955E+03 0.  0.
         24    2    3    3    0    0 -0.52150406763E+02  0.28259310460E+02  0.11275540640E+03  0.15065258172E+03  0.80400032053E+02 0.  0.
         -6    2    1    2    0  502 -0.37282804920E+01 -0.12284735781E+03  0.22935975130E+03  0.31224405980E+03  0.17258355648E+03 0.  0.
        -24    2    5    5    0    0  0.25806439230E+02 -0.10988595084E+03  0.80813498132E+02  0.16016389321E+03  0.79879638890E+02 0.  0.
          5    1    3    3  501    0  0.55878687255E+02  0.94588047347E+02  0.14812792197E+03  0.18448115800E+03  0.47000000000E+01 0. -1.
        -13    1    4    4    0    0  0.13274831468E+02  0.30281239859E+02  0.26498880843E+02  0.42371751485E+02  0.00000000000E+00 0.  1.
         14    1    4    4    0    0 -0.65425238231E+02 -0.20219293991E+01  0.86256525555E+02  0.10828083024E+03  0.00000000000E+00 0. -1.
         -5    1    5    5    0  502 -0.29534719722E+02 -0.12961406968E+02  0.14854625317E+03  0.15208016659E+03  0.47000000000E+01 0.  1.
         13    1    6    6    0    0  0.53930553690E+02 -0.66397901176E+02  0.41109955164E+02  0.94906344970E+02  0.00000000000E+00 0. -1.
        -14    1    6    6    0    0 -0.28124114460E+02 -0.43488049663E+02  0.39703542968E+02  0.65257548237E+02  0.00000000000E+00 0.  1.
</event>
<event>
12    1  0.8226261E-002  0.2392941E+03  0.7818608E-02  0.1120277E+00
         21   -1    0    0  501  502  0.00000000000E+00  0.00000000000E+00  0.73332060109E+02  0.73332060109E+02  0.00000000000E+00 0.  1.
         21   -1    0    0  502  503 -0.00000000000E+00 -0.00000000000E+00 -0.10509329746E+04  0.10509329746E+04  0.00000000000E+00 0. -1.
         -6    2    1    2    0  503 -0.22138151399E+02  0.16457547972E+03 -0.20363598332E+03  0.31415183329E+03  0.17218761391E+03 0.  0.
        -24    2    3    3    0    0  0.25483697427E+02  0.11639449795E+03 -0.19956683311E+03  0.24612319613E+03  0.80948185963E+02 0.  0.
          6    2    1    2  501    0  0.22138151399E+02 -0.16457547972E+03 -0.77396493120E+03  0.81011320145E+03  0.17229770212E+03 0.  0.
         24    2    5    5    0    0  0.79467029043E+02 -0.11041234183E+03 -0.56309281516E+03  0.58492575721E+03  0.80985980449E+02 0.  0.
          5    1    5    5  501    0 -0.57328877644E+02 -0.54163137891E+02 -0.21087211604E+03  0.22518744424E+03  0.47000000000E+01 0. -1.
        -11    1    6    6    0    0 -0.14166227764E+02 -0.39447629089E+01 -0.31726360219E+02  0.34968630174E+02  0.00000000000E+00 0.  1.
         12    1    6    6    0    0  0.93633256806E+02 -0.10646757892E+03 -0.53136645494E+03  0.54995712703E+03  0.00000000000E+00 0. -1.
         -5    1    3    3    0  503 -0.47621848826E+02  0.48180981776E+02 -0.40691502121E+01  0.68028637160E+02  0.47000000000E+01 0.  1.
         13    1    4    4    0    0  0.84169769345E+01 -0.42727875495E+01  0.28421184243E+01  0.98579841396E+01  0.00000000000E+00 0. -1.
        -14    1    4    4    0    0  0.17066720492E+02  0.12066728550E+03 -0.20240895153E+03  0.23626521199E+03  0.00000000000E+00 0.  1.
</event>
<event>
12    1  0.8226261E-002  0.2107819E+03  0.7818608E-02  0.1141596E+00
         21   -1    0    0  501  502  0.00000000000E+00  0.00000000000E+00  0.68716531739E+03  0.68716531739E+03  0.00000000000E+00 0. -1.
         21   -1    0    0  502  503 -0.00000000000E+00 -0.00000000000E+00 -0.15511128872E+03  0.15511128872E+03  0.00000000000E+00 0. -1.
         -6    2    1    2    0  503 -0.80510391238E+02  0.81826864822E+02 -0.56488312096E+02  0.21821989309E+03  0.17678074961E+03 0.  0.
        -24    2    3    3    0    0  0.27660644473E+02  0.23564458662E+02 -0.36934635468E+02  0.93721229610E+02  0.78096777255E+02 0.  0.
          6    2    1    2  501    0  0.80510391238E+02 -0.81826864822E+02  0.58854234077E+03  0.62405671302E+03  0.17287896140E+03 0.  0.
         24    2    5    5    0    0  0.97935031875E+02 -0.44171202598E+02  0.55326977948E+03  0.56939584422E+03  0.81005017878E+02 0.  0.
          5    1    5    5  501    0 -0.17424640637E+02 -0.37655662224E+02  0.35272561286E+02  0.54660868805E+02  0.47000000000E+01 0. -1.
        -11    1    6    6    0    0  0.60865051854E+01 -0.51848485072E+01  0.25010805373E+03  0.25023582225E+03  0.00000000000E+00 0.  1.
         12    1    6    6    0    0  0.91848526690E+02 -0.38986354091E+02  0.30316172575E+03  0.31916002197E+03  0.00000000000E+00 0. -1.
         -5    1    3    3    0  503 -0.10817103571E+03  0.58262406160E+02 -0.19553676628E+02  0.12449866348E+03  0.47000000000E+01 0.  1.
         13    1    4    4    0    0  0.16610820878E+02  0.47015728373E+02 -0.44375732380E+02  0.66750308680E+02  0.00000000000E+00 0. -1.
        -14    1    4    4    0    0  0.11049823595E+02 -0.23451269711E+02  0.74410969111E+01  0.26970920930E+02  0.00000000000E+00 0.  1.
</event>
<event>
12    1  0.8226261E-002  0.1812010E+03  0.7818608E-02  0.1166870E+00
         21   -1    0    0  501  502  0.00000000000E+00  0.00000000000E+00  0.80009710529E+02  0.80009710529E+02  0.00000000000E+00 0.  1.
         21   -1    0    0  502  503 -0.00000000000E+00 -0.00000000000E+00 -0.50409169147E+03  0.50409169147E+03  0.00000000000E+00 0.  1.
         -6    2    1    2    0  503  0.27203933083E+02  0.43980812642E+02 -0.33982172162E+03  0.38511374902E+03  0.17366470954E+03 0.  0.
        -24    2    3    3    0    0  0.73081852967E+02  0.65546031848E+02 -0.18554941470E+03  0.22265797998E+03  0.74234434240E+02 0.  0.
          6    2    1    2  501    0 -0.27203933083E+02 -0.43980812642E+02 -0.84260259317E+02  0.19898765298E+03  0.17269026864E+03 0.  0.
         24    2    5    5    0    0  0.26162026831E+01 -0.77970331511E+01  0.25043150266E+02  0.79958951642E+02  0.75489312688E+02 0.  0.
          5    1    5    5  501    0 -0.29820135766E+02 -0.36183779491E+02 -0.10930340958E+03  0.11902870134E+03  0.47000000000E+01 0. -1.
        -11    1    6    6    0    0 -0.13567723631E+02 -0.33185098653E+02  0.33096761566E+02  0.48792719983E+02  0.00000000000E+00 0.  1.
         12    1    6    6    0    0  0.16183926314E+02  0.25388065502E+02 -0.80536112999E+01  0.31166231660E+02  0.00000000000E+00 0. -1.
         -5    1    3    3    0  503 -0.45877919884E+02 -0.21565219206E+02 -0.15427230692E+03  0.16245576904E+03  0.47000000000E+01 0.  1.
         11    1    4    4    0    0  0.34428787388E+02 -0.11706939410E+02 -0.62605657402E+02  0.72400705591E+02  0.00000000000E+00 0. -1.
        -12    1    4    4    0    0  0.38653065579E+02  0.77252971258E+02 -0.12294375730E+03  0.15025727439E+03  0.00000000000E+00 0.  1.
</event>
<event>
12    1  0.8226261E-002  0.2514850E+03  0.7818608E-02  0.1113149E+00
         21   -1    0    0  501  502  0.00000000000E+00  0.00000000000E+00  0.10815307432E+04  0.10815307432E+04  0.00000000000E+00 0.  1.
         21   -1    0    0  502  503 -0.00000000000E+00 -0.00000000000E+00 -0.10340808650E+03  0.10340808650E+03  0.00000000000E+00 0.  1.
         -6    2    1    2    0  503  0.11036277234E+03  0.13736429595E+03  0.96298570360E+02  0.26929184426E+03  0.17943185729E+03 0.  0.
        -24    2    3    3    0    0  0.86616904534E+02  0.33456125627E+02 -0.13432016801E+02  0.11624392413E+03  0.68632574836E+02 0.  0.
          6    2    1    2  501    0 -0.11036277234E+03 -0.13736429595E+03  0.88182408633E+03  0.91564698544E+03  0.17247258154E+03 0.  0.
         24    2    5    5    0    0 -0.60381038528E+02 -0.20653677995E+01  0.41510668284E+03  0.42712759136E+03  0.80462945504E+02 0.  0.
          5    1    5    5  501    0 -0.49981733816E+02 -0.13529892815E+03  0.46671740349E+03  0.48851939408E+03  0.47000000000E+01 0. -1.
        -13    1    6    6    0    0  0.77084796364E+01 -0.23135595936E+02  0.57010487254E+02  0.62007032783E+02  0.00000000000E+00 0.  1.
         14    1    6    6    0    0 -0.68089518164E+02  0.21070228137E+02  0.35809619559E+03  0.36512055857E+03  0.00000000000E+00 0. -1.
         -5    1    3    3    0  503  0.23745867809E+02  0.10390817032E+03  0.10973058716E+03  0.15304792013E+03  0.47000000000E+01 0.  1.
         11    1    4    4    0    0  0.61191448478E+02  0.26685671116E+02  0.23609093077E+02  0.70808952016E+02  0.00000000000E+00 0. -1.
        -12    1    4    4    0    0  0.25425456057E+02  0.67704545111E+01 -0.37041109878E+02  0.45434972114E+02  0.00000000000E+00 0.  1.
</event>
<event>
12    1  0.8226261E-002  0.2158518E+03  0.7818608E-02  0.1137470E+00
         21   -1    0    0  501  502  0.00000000000E+00  0.00000000000E+00  0.29358763189E+03  0.29358763189E+03  0.00000000000E+00 0. -1.
         21   -1    0    0  502  503 -0.00000000000E+00 -0.00000000000E+00 -0.40275879306E+03  0.40275879306E+03  0.00000000000E+00 0. -1.
         -6    2    1    2    0  503 -0.11684339404E+03  0.61945802391E+02 -0.32669767906E+03  0.39156531275E+03  0.17059413672E+03 0.  0.
        -24    2    3    3    0    0 -0.11069228720E+03  0.30727265663E+02 -0.12651917943E+03  0.18881927737E+03  0.80303607900E+02 0.  0.
          6    2    1    2  501    0  0.11684339404E+03 -0.61945802391E+02  0.21752651789E+03  0.30478111220E+03  0.16758305167E+03 0.  0.
         24    2    5    5    0    0  0.40566540038E+02  0.22678548936E+02  0.61052209526E+02  0.11116877150E+03  0.80443537445E+02 0.  0.
          5    1    5    5  501    0  0.76276854002E+02 -0.84624351328E+02  0.15647430836E+03  0.19361234070E+03  0.47000000000E+01 0. -1.
        -11    1    6    6    0    0  0.16075428700E+02 -0.15188061968E+02 -0.12117902721E+02  0.25217854798E+02  0.00000000000E+00 0.  1.
         12    1    6    6    0    0  0.24491111337E+02  0.37866610905E+02  0.73170112247E+02  0.85950916704E+02  0.00000000000E+00 0. -1.
         -5    1    3    3    0  503 -0.61511068430E+01  0.31218536728E+02 -0.20017849963E+03  0.20274603539E+03  0.47000000000E+01 0.  1.
         11    1    4    4    0    0 -0.44611477708E+02  0.13802952878E+02 -0.10871535271E+03  0.11832046892E+03  0.00000000000E+00 0. -1.
        -12    1    4    4    0    0 -0.66080809488E+02  0.16924312786E+02 -0.17803826718E+02  0.70498808442E+02  0.00000000000E+00 0.  1.
</event>
<event>
12    1  0.8226261E-002  0.2654576E+03  0.7818608E-02  0.1103956E+00
         21   -1    0    0  503  502  0.00000000000E+00  0.00000000000E+00  0.15323017151E+03  0.15323017151E+03  0.00000000000E+00 0. -1.
         21   -1    0    0  501  503 -0.00000000000E+00 -0.00000000000E+00 -0.63806623854E+03  0.63806623854E+03  0.00000000000E+00 0. -1.
          6    2    1    2  501    0  0.12062801593E+01  0.20232494566E+03 -0.45172484952E+03  0.52378172468E+03  0.17133334962E+03 0.  0.
         24    2    3    3    0    0  0.22151088552E+02  0.30574842825E+02 -0.12575597993E+03  0.15470913459E+03  0.81822112525E+02 0.  0.
         -6    2    1    2    0  502 -0.12062801593E+01 -0.20232494566E+03 -0.33111217512E+02  0.26751468537E+03  0.17184561506E+03 0.  0.
        -24    2    5    5    0    0  0.19309270930E+02 -0.16926584100E+03  0.32596044921E+02  0.19100764926E+03  0.79985292759E+02 0.  0.
          5    1    3    3  501    0 -0.20944808392E+02  0.17175010284E+03 -0.32596886958E+03  0.36907259009E+03  0.47000000000E+01 0. -1.
        -11    1    4    4    0    0  0.18929662061E+02  0.77465846118E+01 -0.12971465193E+03  0.13131729743E+03  0.00000000000E+00 0.  1.
         12    1    4    4    0    0  0.32214264901E+01  0.22828258214E+02  0.39586719955E+01  0.23391837159E+02  0.00000000000E+00 0. -1.
         -5    1    5    5    0  502 -0.20515551089E+02 -0.33059104657E+02 -0.65707262433E+02  0.76507036105E+02  0.47000000000E+01 0.  1.
         13    1    6    6    0    0 -0.27178603814E+02 -0.96412662082E+02  0.50316115742E+01  0.10029653548E+03  0.00000000000E+00 0. -1.
        -14    1    6    6    0    0  0.46487874744E+02 -0.72853178921E+02  0.27564433347E+02  0.90711113778E+02  0.00000000000E+00 0.  1.
</event>
<event>
12    1  0.8226261E-002  0.2074660E+03  0.7818608E-02  0.1143648E+00
         21   -1    0    0  503  502  0.00000000000E+00  0.00000000000E+00  0.68061547937E+02  0.68061547937E+02  0.00000000000E+00 0.  1.
         21   -1    0    0  501  503 -0.00000000000E+00 -0.00000000000E+00 -0.68053471478E+03  0.68053471478E+03  0.00000000000E+00 0.  1.
          6    2    1    2  501    0  0.11355359401E+03 -0.22121840725E+02 -0.20596682640E+03  0.29234311106E+03  0.17221604589E+03 0.  0.
         24    2    3    3    0    0  0.91658333517E+02 -0.80350340576E+02 -0.14706253616E+03  0.20654237659E+03  0.78580763892E+02 0.  0.
         -6    2    1    2    0  502 -0.11355359401E+03  0.22121840725E+02 -0.40650634044E+03  0.45625315165E+03  0.17185964920E+03 0.  0.
        -24    2    5    5    0    0 -0.66603929163E+02  0.46212102908E+02 -0.37907622054E+03  0.39659484762E+03  0.83767836019E+02 0.  0.
          5    1    3    3  501    0  0.21895260491E+02  0.58228499851E+02 -0.58904290242E+02  0.85800734471E+02  0.47000000000E+01 0. -1.
        -13    1    4    4    0    0  0.36609200827E+02 -0.32814750483E+02 -0.82797577992E+01  0.49855750157E+02  0.00000000000E+00 0.  1.
         14    1    4    4    0    0  0.55049132690E+02 -0.47535590093E+02 -0.13878277836E+03  0.15668662644E+03  0.00000000000E+00 0. -1.
         -5    1    5    5    0  502 -0.46949664845E+02 -0.24090262183E+02 -0.27430119905E+02  0.59658304025E+02  0.47000000000E+01 0.  1.
         11    1    6    6    0    0 -0.32938573081E+02 -0.22241555311E+02 -0.11226828662E+03  0.11909577893E+03  0.00000000000E+00 0. -1.
        -12    1    6    6    0    0 -0.33665356083E+02  0.68453658219E+02 -0.26680793392E+03  0.27749906869E+03  0.00000000000E+00 0.  1.
</event>
<event>
12    1  0.8226261E-002  0.2026875E+03  0.7818608E-02  0.1147865E+00
         21   -1    0    0  501  502  0.00000000000E+00  0.00000000000E+00  0.40993354228E+03  0.40993354228E+03  0.00000000000E+00 0. -1.
         21   -1    0    0  502  503 -0.00000000000E+00 -0.00000000000E+00 -0.19464138792E+03  0.19464138792E+03  0.00000000000E+00 0. -1.
         -6    2    1    2    0  503 -0.72506631296E+02 -0.74223393637E+02 -0.10412705142E+03  0.22627496955E+03  0.17202207783E+03 0.  0.
        -24    2    3    3    0    0 -0.64109477601E+02 -0.11681517462E+03 -0.81524131740E+02  0.17710634159E+03  0.83454550710E+02 0.  0.
          6    2    1    2  501    0  0.72506631296E+02  0.74223393637E+02  0.31941920578E+03  0.37829996064E+03  0.17411463883E+03 0.  0.
         24    2    5    5    0    0  0.28084465529E+02 -0.18903034113E+01  0.58237384166E+02  0.10261053823E+03  0.79655628738E+02 0.  0.
          5    1    5    5  501    0  0.44422165767E+02  0.76113697048E+02  0.26118182162E+03  0.27568942242E+03  0.47000000000E+01 0. -1.
        -11    1    6    6    0    0  0.36107275167E+01 -0.32285758462E+02  0.54447866461E+02  0.63403294196E+02  0.00000000000E+00 0.  1.
         12    1    6    6    0    0  0.24473738012E+02  0.30395455051E+02  0.37895177046E+01  0.39207244031E+02  0.00000000000E+00 0. -1.
         -5    1    3    3    0  503 -0.83971536953E+01  0.42591780985E+02 -0.22602919681E+02  0.49168627963E+02  0.47000000000E+01 0.  1.
         11    1    4    4    0    0 -0.65331516972E+02 -0.44248134683E+02 -0.18644119024E+02  0.81078404689E+02  0.00000000000E+00 0. -1.
        -12    1    4    4    0    0  0.12220393714E+01 -0.72567039939E+02 -0.62880012715E+02  0.96027936897E+02  0.00000000000E+00 0.  1.
</event>
<event>
12    1  0.8226261E-002  0.1771290E+03  0.7818608E-02  0.1171064E+00
         21   -1    0    0  501  502  0.00000000000E+00  0.00000000000E+00  0.75042908042E+03  0.75042908042E+03  0.00000000000E+00 0. -1.
         21   -1    0    0  502  503 -0.00000000000E+00 -0.00000000000E+00 -0.41778858955E+02  0.41778858955E+02  0.00000000000E+00 0. -1.
         -6    2    1    2    0  503 -0.37648066734E+02 -0.21967083474E+02  0.31743585179E+03  0.36351095702E+03  0.17168216619E+03 0.  0.
        -24    2    3    3    0    0  0.11434127543E+02 -0.24476108193E+02  0.66943331345E+02  0.10819948098E+03  0.80597139702E+02 0.  0.
          6    2    1    2  501    0  0.37648066734E+02  0.21967083474E+02  0.39121436968E+03  0.42869698235E+03  0.16980132494E+03 0.  0.
         24    2    5    5    0    0 -0.32704502819E+01  0.51946777856E+02  0.12618230688E+03  0.15881331960E+03  0.81182093706E+02 0.  0.
          5    1    5    5  501    0  0.40918517016E+02 -0.29979694382E+02  0.26503206280E+03  0.26988366275E+03  0.47000000000E+01 0. -1.
        -11    1    6    6    0    0 -0.40974081683E+02  0.24940211497E+02  0.47671085040E+02  0.67627079400E+02  0.00000000000E+00 0.  1.
         12    1    6    6    0    0  0.37703631401E+02  0.27006566360E+02  0.78511221840E+02  0.91186240202E+02  0.00000000000E+00 0. -1.
         -5    1    3    3    0  503 -0.49082194277E+02  0.25090247187E+01  0.25049252044E+03  0.25531147604E+03  0.47000000000E+01 0.  1.
         13    1    4    4    0    0 -0.71453484103E+01  0.24080992331E+02  0.45474863118E+02  0.51951067083E+02  0.00000000000E+00 0. -1.
        -14    1    4    4    0    0  0.18579475953E+02 -0.48557100524E+02  0.21468468227E+02  0.56248413898E+02  0.00000000000E+00 0.  1.
</event>
<event>
12    1  0.8226261E-002  0.2092055E+03  0.7818608E-02  0.1142875E+00
         21   -1    0    0  501  502  0.00000000000E+00  0.00000000000E+00  0.87638946398E+02  0.87638946398E+02  0.00000000000E+00 0.  1.
         21   -1    0    0  502  503 -0.00000000000E+00 -0.00000000000E+00 -0.72065311545E+03  0.72065311545E+03  0.00000000000E+00 0.  1.
         -6    2    1    2    0  503 -0.98580347840E+02 -0.65159800337E+02 -0.54622276602E+03  0.58491558114E+03  0.17263557681E+03 0.  0.
        -24    2    3    3    0    0 -0.25242043513E+02 -0.83339724535E+02 -0.20526959113E+03  0.23565897921E+03  0.76268466569E+02 0.  0.
          6    2    1    2  501    0  0.98580347840E+02  0.65159800337E+02 -0.86791403034E+02  0.22337648071E+03  0.16852424138E+03 0.  0.
         24    2    5    5    0    0  0.77049018595E+02  0.77382094633E+02 -0.11034985374E+01  0.13405968725E+03  0.77757586126E+02 0.  0.
          5    1    5    5  501    0  0.21531329246E+02 -0.12222294295E+02 -0.85687904496E+02  0.89316793459E+02  0.47000000000E+01 0. -1.
        -11    1    6    6    0    0  0.59311052114E+02  0.62228126876E+02  0.33553346030E+02  0.92282000992E+02  0.00000000000E+00 0.  1.
         12    1    6    6    0    0  0.17737966481E+02  0.15153967757E+02 -0.34656844567E+02  0.41777686257E+02  0.00000000000E+00 0. -1.
         -5    1    3    3    0  503 -0.73338304327E+02  0.18179924197E+02 -0.34095317488E+03  0.34925660193E+03  0.47000000000E+01 0.  1.
         11    1    4    4    0    0  0.21006231092E+02 -0.45994624988E+02 -0.13171422457E+03  0.14108651327E+03  0.00000000000E+00 0. -1.
        -12    1    4    4    0    0 -0.46248274604E+02 -0.37345099547E+02 -0.73555366562E+02  0.94572465941E+02  0.00000000000E+00 0.  1.
</event>
<event>
12    1  0.8226261E-002  0.2845672E+03  0.7818608E-02  0.1093314E+00
         21   -1    0    0  503  502  0.00000000000E+00  0.00000000000E+00  0.13411153245E+03  0.13411153245E+03  0.00000000000E+00 0.  1.
         21   -1    0    0  501  503 -0.00000000000E+00 -0.00000000000E+00 -0.62824535855E+03  0.62824535855E+03  0.00000000000E+00 0. -1.
          6    2    1    2  501    0 -0.22614507550E+03  0.57946500154E+01 -0.32478283990E+03  0.43181293463E+03  0.17263645120E+03 0.  0.
         24    2    3    3    0    0 -0.12227782642E+03 -0.62904006565E+02 -0.17138272501E+03  0.23417286760E+03  0.80969825331E+02 0.  0.
         -6    2    1    2    0  502  0.22614507550E+03 -0.57946500154E+01 -0.16935098620E+03  0.33054395636E+03  0.17147704633E+03 0.  0.
        -24    2    5    5    0    0  0.14792628540E+03 -0.69360381573E+02 -0.10329288136E+03  0.20994319115E+03  0.81937022947E+02 0.  0.
          5    1    3    3  501    0 -0.10386724908E+03  0.68698656580E+02 -0.15340011489E+03  0.19764006703E+03  0.47000000000E+01 0. -1.
        -11    1    4    4    0    0 -0.92222098535E+02 -0.46151500279E+02 -0.63903492503E+02  0.12131996040E+03  0.00000000000E+00 0.  1.
         12    1    4    4    0    0 -0.30055727888E+02 -0.16752506286E+02 -0.10747923250E+03  0.11285290721E+03  0.00000000000E+00 0. -1.
         -5    1    5    5    0  502  0.78218790105E+02  0.63565731557E+02 -0.66058104841E+02  0.12060076521E+03  0.47000000000E+01 0.  1.
         11    1    6    6    0    0  0.14788574857E+02 -0.87476476593E+01 -0.52258623359E+02  0.55010789862E+02  0.00000000000E+00 0. -1.
        -12    1    6    6    0    0  0.13313771054E+03 -0.60612733914E+02 -0.51034257997E+02  0.15493240129E+03  0.00000000000E+00 0.  1.
</event>
<event>
12    1  0.8226261E-002  0.2003622E+03  0.7818608E-02  0.1149592E+00
         21   -1    0    0  503  502  0.00000000000E+00  0.00000000000E+00  0.50980944734E+03  0.50980944734E+03  0.00000000000E+00 0.  1.
         21   -1    0    0  501  503 -0.00000000000E+00 -0.00000000000E+00 -0.14540155955E+03  0.14540155955E+03  0.00000000000E+00 0.  1.
          6    2    1    2  501    0 -0.49109907597E+02 -0.88872456968E+02 -0.40281505626E+02  0.20363764441E+03  0.17185922697E+03 0.  0.
         24    2    3    3    0    0  0.25173528216E+02 -0.58719132198E+02  0.21410637030E+02  0.10236937546E+03  0.77067701702E+02 0.  0.
         -6    2    1    2    0  502  0.49109907597E+02  0.88872456968E+02  0.40468939342E+03  0.45157336248E+03  0.17272782035E+03 0.  0.
        -24    2    5    5    0    0  0.10375594239E+02  0.11698968611E+03  0.23440752891E+03  0.27463006934E+03  0.81734605666E+02 0.  0.
          5    1    3    3  501    0 -0.74283435812E+02 -0.30153324770E+02 -0.61692142655E+02  0.10126826895E+03  0.47000000000E+01 0. -1.
        -11    1    4    4    0    0 -0.23171496163E+02 -0.18044846454E+02 -0.11000439473E+02  0.31361511229E+02  0.00000000000E+00 0.  1.
         12    1    4    4    0    0  0.48345024379E+02 -0.40674285744E+02  0.32411076502E+02  0.71007864234E+02  0.00000000000E+00 0. -1.
         -5    1    5    5    0  502  0.38734313358E+02 -0.28117229145E+02  0.17028186451E+03  0.17694329314E+03  0.47000000000E+01 0.  1.
         11    1    6    6    0    0  0.16878931730E+02  0.37967658043E+02  0.20163065600E+02  0.46184311276E+02  0.00000000000E+00 0. -1.
        -12    1    6    6    0    0 -0.65033374912E+01  0.79022028070E+02  0.21424446331E+03  0.22844575806E+03  0.00000000000E+00 0.  1.
</event>
<event>
12    1  0.8226261E-002  0.2948775E+03  0.7818608E-02  0.1087924E+00
         21   -1    0    0  501  502  0.00000000000E+00  0.00000000000E+00  0.10784011211E+04  0.10784011211E+04  0.00000000000E+00 0.  1.
         21   -1    0    0  502  503 -0.00000000000E+00 -0.00000000000E+00 -0.91203474011E+02  0.91203474011E+02  0.00000000000E+00 0. -1.
         -6    2    1    2    0  503  0.56063201040E+02  0.23137142655E+03  0.29315368052E+03  0.41580264153E+03  0.17400269184E+03 0.  0.
        -24    2    3    3    0    0  0.98496972656E+02  0.17495669745E+03  0.17410275359E+03  0.27731632511E+03  0.79253238178E+02 0.  0.
          6    2    1    2  501    0 -0.56063201040E+02 -0.23137142655E+03  0.69404396661E+03  0.75380195362E+03  0.17275571817E+03 0.  0.
         24    2    5    5    0    0  0.49830065633E+01 -0.16714784563E+03  0.58142120176E+03  0.61042383474E+03  0.81261377779E+02 0.  0.
          5    1    5    5  501    0 -0.61046207604E+02 -0.64223580922E+02  0.11262276485E+03  0.14337811887E+03  0.47000000000E+01 0. -1.
        -13    1    6    6    0    0 -0.16606574843E+02 -0.12065927776E+03  0.29014667969E+03  0.31467369666E+03  0.00000000000E+00 0.  1.
         14    1    6    6    0    0  0.21589581407E+02 -0.46488567862E+02  0.29127452207E+03  0.29575013808E+03  0.00000000000E+00 0. -1.
         -5    1    3    3    0  503 -0.42433771616E+02  0.56414729102E+02  0.11905092692E+03  0.13848631641E+03  0.47000000000E+01 0.  1.
         13    1    4    4    0    0  0.52486330044E+02  0.12438381199E+03  0.68179200635E+02  0.15124335002E+03  0.00000000000E+00 0. -1.
        -14    1    4    4    0    0  0.46010642612E+02  0.50572885456E+02  0.10592355296E+03  0.12607297509E+03  0.00000000000E+00 0.  1.
</event>
<event>
12    1  0.8226261E-002  0.1947380E+03  0.7818608E-02  0.1154294E+00
         21   -1    0    0  503  502  0.00000000000E+00  0.00000000000E+00  0.62549161895E+03  0.62549161895E+03  0.00000000000E+00 0. -1.
         21   -1    0    0  501  503 -0.00000000000E+00 -0.00000000000E+00 -0.73155205044E+02  0.73155205044E+02  0.00000000000E+00 0. -1.
          6    2    1    2  501    0 -0.89012739519E+02  0.91300916369E+00  0.13140888687E+03  0.23492806681E+03  0.17320161559E+03 0.  0.
         24    2    3    3    0    0 -0.32170929267E+02 -0.62142722604E+02  0.44708797985E+02  0.11349490777E+03  0.77366212323E+02 0.  0.
         -6    2    1    2    0  502  0.89012739519E+02 -0.91300916369E+00  0.42092752703E+03  0.46371875718E+03  0.17300578421E+03 0.  0.
        -24    2    5    5    0    0  0.13700265428E+02 -0.52128268142E+02  0.17741981920E+03  0.20369363286E+03  0.84310439512E+02 0.  0.
          5    1    3    3  501    0 -0.56841810252E+02  0.63055731768E+02  0.86700088890E+02  0.12143315904E+03  0.47000000000E+01 0. -1.
        -11    1    4    4    0    0 -0.49369262758E+02 -0.41388714759E+02  0.38393061410E+01  0.64537509142E+02  0.00000000000E+00 0.  1.
         12    1    4    4    0    0  0.17198333491E+02 -0.20754007846E+02  0.40869491844E+02  0.48957398625E+02  0.00000000000E+00 0. -1.
         -5    1    5    5    0  502  0.75312474091E+02  0.51215258978E+02  0.24350770783E+03  0.26002512432E+03  0.47000000000E+01 0.  1.
         11    1    6    6    0    0 -0.74875029037E+00 -0.42938322341E+02  0.18114770863E+03  0.18616861307E+03  0.00000000000E+00 0. -1.
        -12    1    6    6    0    0  0.14449015718E+02 -0.91899458011E+01 -0.37278894257E+01  0.17525019789E+02  0.00000000000E+00 0.  1.
</event>
<event>
12    1  0.8226261E-002  0.1837135E+03  0.7818608E-02  0.1164638E+00
         21   -1    0    0  501  502  0.00000000000E+00  0.00000000000E+00  0.11959998811E+04  0.11959998811E+04  0.00000000000E+00 0.  1.
         21   -1    0    0  502  503 -0.00000000000E+00 -0.00000000000E+00 -0.45307498121E+02  0.45307498121E+02  0.00000000000E+00 0. -1.
         -6    2    1    2    0  503  0.42106061998E+02 -0.50327787076E+02  0.19300826837E+03  0.26646355557E+03  0.17159495382E+03 0.  0.
        -24    2    3    3    0    0  0.22498755774E+02 -0.89808260096E+02  0.84094747220E+02  0.14887359300E+03  0.80744675303E+02 0.  0.
          6    2    1    2  501    0 -0.42106061998E+02  0.50327787076E+02  0.95768411458E+03  0.97484382363E+03  0.16986998126E+03 0.  0.
         24    2    5    5    0    0 -0.37147959866E+02 -0.56580324998E+00  0.24528375496E+03  0.26059519555E+03  0.79783735458E+02 0.  0.
          5    1    5    5  501    0 -0.49581021329E+01  0.50893590326E+02  0.71240035963E+03  0.71424862808E+03  0.47000000000E+01 0. -1.
        -13    1    6    6    0    0 -0.18643837019E+02  0.11636324171E+02  0.23523356207E+03  0.23625796373E+03  0.00000000000E+00 0.  1.
         14    1    6    6    0    0 -0.18504122846E+02 -0.12202127421E+02  0.10050192885E+02  0.24337231826E+02  0.00000000000E+00 0. -1.
         -5    1    3    3    0  503  0.19607306225E+02  0.39480473020E+02  0.10891352115E+03  0.11758996257E+03  0.47000000000E+01 0.  1.
         11    1    4    4    0    0 -0.29632836386E+02 -0.20728884243E+02  0.21572966296E+02  0.42109197440E+02  0.00000000000E+00 0. -1.
        -12    1    4    4    0    0  0.52131592160E+02 -0.69079375852E+02  0.62521780924E+02  0.10676439556E+03  0.00000000000E+00 0.  1.
</event>
<event>
12    1  0.8226261E-002  0.1850575E+03  0.7818608E-02  0.1163590E+00
         21   -1    0    0  501  502  0.00000000000E+00  0.00000000000E+00  0.37827532022E+03  0.37827532022E+03  0.00000000000E+00 0. -1.
         21   -1    0    0  502  503 -0.00000000000E+00 -0.00000000000E+00 -0.13958795172E+03  0.13958795172E+03  0.00000000000E+00 0.  1.
         -6    2    1    2    0  503  0.19115983803E+02  0.61487163811E+02 -0.35542667235E+02  0.18843981900E+03  0.17349406917E+03 0.  0.
        -24    2    3    3    0    0  0.49262954699E+01 -0.27667653788E+02  0.15774309836E+02  0.84490548235E+02  0.78102858059E+02 0.  0.
          6    2    1    2  501    0 -0.19115983803E+02 -0.61487163811E+02  0.27423003574E+03  0.32942345295E+03  0.17079697509E+03 0.  0.
         24    2    5    5    0    0 -0.61268697751E+02 -0.49761683638E+02  0.10332146890E+03  0.15294068779E+03  0.80532288950E+02 0.  0.
          5    1    5    5  501    0  0.42152713948E+02 -0.11725480173E+02  0.17090856684E+03  0.17648276516E+03  0.47000000000E+01 0. -1.
        -11    1    6    6    0    0  0.17382157559E+02 -0.20346691867E+02  0.13471424609E+02  0.29960082649E+02  0.00000000000E+00 0.  1.
         12    1    6    6    0    0 -0.78650855310E+02 -0.29414991770E+02  0.89850044289E+02  0.12298060514E+03  0.00000000000E+00 0. -1.
         -5    1    3    3    0  503  0.14189688333E+02  0.89154817598E+02 -0.51316977071E+02  0.10394927076E+03  0.47000000000E+01 0.  1.
         11    1    4    4    0    0  0.40376664903E+02 -0.24903907703E+02  0.95893142815E+01  0.48398704899E+02  0.00000000000E+00 0. -1.
        -12    1    4    4    0    0 -0.35450369433E+02 -0.27637460847E+01  0.61849955550E+01  0.36091843335E+02  0.00000000000E+00 0.  1.
</event>
<event>
12    1  0.8226261E-002  0.2148174E+03  0.7818608E-02  0.1137975E+00
         21   -1    0    0  501  502  0.00000000000E+00  0.00000000000E+00  0.28641322484E+03  0.28641322484E+03  0.00000000000E+00 0.  1.
         21   -1    0    0  502  503 -0.00000000000E+00 -0.00000000000E+00 -0.18017370562E+03  0.18017370562E+03  0.00000000000E+00 0. -1.
         -6    2    1    2    0  503  0.18831443109E+02  0.12661692148E+03 -0.24131140661E+02  0.21530420861E+03  0.17142672558E+03 0.  0.
        -24    2    3    3    0    0  0.11374301191E+02  0.14813003619E+03  0.16772871729E+02  0.16825475272E+03  0.77178042460E+02 0.  0.
          6    2    1    2  501    0 -0.18831443109E+02 -0.12661692148E+03  0.13037065988E+03  0.25128272184E+03  0.17251095410E+03 0.  0.
         24    2    5    5    0    0  0.13273595342E+02 -0.44084929976E+02 -0.79316576831E+01  0.86990652162E+02  0.73381148709E+02 0.  0.
          5    1    5    5  501    0 -0.32105038451E+02 -0.82531991501E+02  0.13830231757E+03  0.16429206968E+03  0.47000000000E+01 0. -1.
        -13    1    6    6    0    0 -0.23683758701E+02 -0.16065543553E+02  0.18045559578E+02  0.33832888383E+02  0.00000000000E+00 0.  1.
         14    1    6    6    0    0  0.36957354043E+02 -0.28019386423E+02 -0.25977217261E+02  0.53157763779E+02  0.00000000000E+00 0. -1.
         -5    1    3    3    0  503  0.74571419175E+01 -0.21513114712E+02 -0.40904012390E+02  0.47049455893E+02  0.47000000000E+01 0.  1.
         11    1    4    4    0    0 -0.30730797082E+02  0.93071700373E+02  0.12540449436E+02  0.98812884644E+02  0.00000000000E+00 0. -1.
        -12    1    4    4    0    0  0.42105098274E+02  0.55058335816E+02  0.42324222930E+01  0.69441868077E+02  0.00000000000E+00 0.  1.
</event>
<event>
12    1  0.8226261E-002  0.2075251E+03  0.7818608E-02  0.1143934E+00
         21   -1    0    0  501  502  0.00000000000E+00  0.00000000000E+00  0.20251240488E+04  0.20251240488E+04  0.00000000000E+00 0.  1.
         21   -1    0    0  502  503 -0.00000000000E+00 -0.00000000000E+00 -0.45437223528E+02  0.45437223528E+02  0.00000000000E+00 0.  1.
         -6    2    1    2    0  503  0.93264407788E+02  0.65751525912E+02  0.22949625872E+03  0.30811023117E+03  0.17100254053E+03 0.  0.
        -24    2    3    3    0    0 -0.81340660565E+01 -0.46335535595E+01  0.11291993625E+03  0.13826371555E+03  0.79235788537E+02 0.  0.
          6    2    1    2  501    0 -0.93264407788E+02 -0.65751525912E+02  0.17501905666E+04  0.17624510412E+04  0.17333534058E+03 0.  0.
         24    2    5    5    0    0 -0.12169038237E+03 -0.74327398790E+02  0.11388616523E+04  0.11503834689E+04  0.77737706574E+02 0.  0.
          5    1    5    5  501    0  0.28425974580E+02  0.85758728779E+01  0.61132891426E+03  0.61206757228E+03  0.47000000000E+01 0. -1.
        -13    1    6    6    0    0 -0.69650556126E+02 -0.23323544263E+02  0.32167272913E+03  0.32995231830E+03  0.00000000000E+00 0.  1.
         14    1    6    6    0    0 -0.52039826242E+02 -0.51003854527E+02  0.81718892316E+03  0.82043115057E+03  0.00000000000E+00 0. -1.
         -5    1    3    3    0  503  0.10139847384E+03  0.70385079471E+02  0.11657632247E+03  0.16984651562E+03  0.47000000000E+01 0.  1.
         13    1    4    4    0    0 -0.30653788836E+02  0.56123544420E+01  0.10479816557E+02  0.32878257975E+02  0.00000000000E+00 0. -1.
        -14    1    4    4    0    0  0.22519722780E+02 -0.10245908002E+02  0.10244011970E+03  0.10538545758E+03  0.00000000000E+00 0.  1.
</event>
<event>
12    1  0.8226261E-002  0.1729553E+03  0.7818608E-02  0.1175014E+00
         21   -1    0    0  503  502  0.00000000000E+00  0.00000000000E+00  0.15722948069E+03  0.15722948069E+03  0.00000000000E+00 0.  1.
         21   -1    0    0  501  503 -0.00000000000E+00 -0.00000000000E+00 -0.26578618036E+03  0.26578618036E+03  0.00000000000E+00 0.  1.
          6    2    1    2  501    0  0.23049804329E+02 -0.13919830593E+02 -0.16762019780E+03  0.24025346364E+03  0.17000041447E+03 0.  0.
         24    2    3    3    0    0  0.56160589311E+02 -0.17283897853E+02 -0.44212484490E+02  0.11235039591E+03  0.84941878721E+02 0.  0.
         -6    2    1    2    0  502 -0.23049804329E+02  0.13919830593E+02  0.59063498135E+02  0.18276219741E+03  0.17084633103E+03 0.  0.
        -24    2    5    5    0    0 -0.35542199178E+02 -0.23211878697E+02 -0.22058503922E+02  0.92553035002E+02  0.79230344299E+02 0.  0.
          5    1    3    3  501    0 -0.33110784982E+02  0.33640672604E+01 -0.12340771331E+03  0.12790306773E+03  0.47000000000E+01 0. -1.
        -13    1    4    4    0    0 -0.21607978188E+02 -0.13315693099E+02 -0.96293065570E+01  0.27146564218E+02  0.00000000000E+00 0.  1.
         14    1    4    4    0    0  0.77768567500E+02 -0.39682047543E+01 -0.34583177933E+02  0.85203831697E+02  0.00000000000E+00 0. -1.
         -5    1    5    5    0  502  0.12492394849E+02  0.37131709290E+02  0.81122002057E+02  0.90209162404E+02  0.47000000000E+01 0.  1.
         11    1    6    6    0    0 -0.27373819865E+02 -0.40929698559E+02  0.14314072614E+02  0.51278249901E+02  0.00000000000E+00 0. -1.
        -12    1    6    6    0    0 -0.81683793135E+01  0.17717819862E+02 -0.36372576536E+02  0.41274785101E+02  0.00000000000E+00 0.  1.
</event>
<event>
12    1  0.8226261E-002  0.2059973E+03  0.7818608E-02  0.1144956E+00
         21   -1    0    0  501  502  0.00000000000E+00  0.00000000000E+00  0.15273095584E+03  0.15273095584E+03  0.00000000000E+00 0.  1.
         21   -1    0    0  502  503 -0.00000000000E+00 -0.00000000000E+00 -0.23939729997E+04  0.23939729997E+04  0.00000000000E+00 0. -1.
         -6    2    1    2    0  503 -0.68218115055E+01 -0.11159840546E+03 -0.23184194692E+04  0.23275531652E+04  0.17301491444E+03 0.  0.
        -24    2    3    3    0    0 -0.15657553085E+02 -0.12987846280E+03 -0.22655381452E+04  0.22707134322E+04  0.79767347100E+02 0.  0.
          6    2    1    2  501    0  0.68218115055E+01  0.11159840546E+03  0.77177425324E+02  0.21915079032E+03  0.17195921814E+03 0.  0.
         24    2    5    5    0    0  0.53974526872E+02  0.34297757381E+02  0.93829195423E+02  0.12696543244E+03  0.56804202375E+02 0.  0.
          5    1    5    5  501    0 -0.47152715366E+02  0.77300648082E+02 -0.16651770098E+02  0.92185357882E+02  0.47000000000E+01 0. -1.
        -13    1    6    6    0    0  0.60771111830E+02  0.41788631572E+02  0.72801038014E+02  0.10363111935E+03  0.00000000000E+00 0.  1.
         14    1    6    6    0    0 -0.67965849580E+01 -0.74908741901E+01  0.21028157408E+02  0.23334313087E+02  0.00000000000E+00 0. -1.
         -5    1    3    3    0  503  0.88357415792E+01  0.18280057334E+02 -0.52881323953E+02  0.56839733008E+02  0.47000000000E+01 0.  1.
         13    1    4    4    0    0  0.23656005879E+02 -0.38553284569E+02 -0.11044745289E+04  0.11054003561E+04  0.00000000000E+00 0. -1.
        -14    1    4    4    0    0 -0.39313558964E+02 -0.91325178229E+02 -0.11610636163E+04  0.11653130761E+04  0.00000000000E+00 0.  1.
</event>
<event>
12    1  0.8226261E-002  0.1747023E+03  0.7818608E-02  0.1173412E+00
         21   -1    0    0  503  502  0.00000000000E+00  0.00000000000E+00  0.86011962616E+02  0.86011962616E+02  0.00000000000E+00 0.  1.
         21   -1    0    0  501  503 -0.00000000000E+00 -0.00000000000E+00 -0.72065452180E+03  0.72065452180E+03  0.00000000000E+00 0.  1.
          6    2    1    2  501    0  0.63660100131E+00  0.25908069946E+02 -0.60654984276E+03  0.63120805569E+03  0.17276939678E+03 0.  0.
         24    2    3    3    0    0  0.47550679619E+02  0.64267530951E+02 -0.36131317068E+03  0.37855118490E+03  0.79764714127E+02 0.  0.
         -6    2    1    2    0  502 -0.63660100131E+00 -0.25908069946E+02 -0.28092716418E+02  0.17545842872E+03  0.17124493027E+03 0.  0.
        -24    2    5    5    0    0  0.61680771003E+02 -0.32681405884E+01 -0.37254469492E+02  0.10836111898E+03  0.80864320659E+02 0.  0.
          5    1    3    3  501    0 -0.46914078618E+02 -0.38359461005E+02 -0.24523667209E+03  0.25265687079E+03  0.47000000000E+01 0. -1.
        -13    1    4    4    0    0  0.68670554550E+02  0.35719309792E+02 -0.25067246019E+03  0.26235128445E+03  0.00000000000E+00 0.  1.
         14    1    4    4    0    0 -0.21119874931E+02  0.28548221159E+02 -0.11064071048E+03  0.11619990045E+03  0.00000000000E+00 0. -1.
         -5    1    5    5    0  502 -0.62317372004E+02 -0.22639929357E+02  0.91617530740E+01  0.67097309739E+02  0.47000000000E+01 0.  1.
         11    1    6    6    0    0  0.18573576332E+02 -0.30885101978E+01 -0.57668343548E+02  0.60664276808E+02  0.00000000000E+00 0. -1.
        -12    1    6    6    0    0  0.43107194671E+02 -0.17963039058E+00  0.20413874056E+02  0.47696842175E+02  0.00000000000E+00 0.  1.
</event>
<event>
12    1  0.8226261E-002  0.1739947E+03  0.7818608E-02  0.1176063E+00
         21   -1    0    0  503  502  0.00000000000E+00  0.00000000000E+00  0.39745657040E+02  0.39745657040E+02  0.00000000000E+00 0. -1.
         21   -1    0    0  501  503 -0.00000000000E+00 -0.00000000000E+00 -0.81857580017E+03  0.81857580017E+03  0.00000000000E+00 0. -1.
          6    2    1    2  501    0 -0.12611108266E+02  0.25451600109E+02 -0.52683081434E+03  0.55208979266E+03  0.16262105713E+03 0.  0.
         24    2    3    3    0    0 -0.28788325372E+02 -0.15923309248E+02 -0.48715419195E+03  0.49234107015E+03  0.63231346392E+02 0.  0.
         -6    2    1    2    0  502  0.12611108266E+02 -0.25451600109E+02 -0.25199932879E+03  0.30623166455E+03  0.17166055651E+03 0.  0.
        -24    2    5    5    0    0 -0.39097799106E+01 -0.39059395406E+02 -0.26550060833E+03  0.28049285362E+03  0.81515306296E+02 0.  0.
          5    1    3    3  501    0  0.16177217106E+02  0.41374909357E+02 -0.39676622392E+02  0.59748722513E+02  0.47000000000E+01 0. -1.
        -13    1    4    4    0    0  0.49129116605E+01 -0.26962739944E+02 -0.33453850468E+03  0.33565925752E+03  0.00000000000E+00 0.  1.
         14    1    4    4    0    0 -0.33701237032E+02  0.11039430696E+02 -0.15261568727E+03  0.15668181263E+03  0.00000000000E+00 0. -1.
         -5    1    5    5    0  502  0.16520888177E+02  0.13607795297E+02  0.13501279536E+02  0.25738810930E+02  0.47000000000E+01 0.  1.
         11    1    6    6    0    0 -0.24581780220E+02 -0.57133628428E+02 -0.20063425689E+03  0.21005385132E+03  0.00000000000E+00 0. -1.
        -12    1    6    6    0    0  0.20672000310E+02  0.18074233022E+02 -0.64866351435E+02  0.70439002297E+02  0.00000000000E+00 0.  1.
</event>
<event>
12    1  0.8226261E-002  0.2335291E+03  0.7818608E-02  0.1124241E+00
         21   -1    0    0  503  502  0.00000000000E+00  0.00000000000E+00  0.31972684730E+03  0.31972684730E+03  0.00000000000E+00 0. -1.
         21   -1    0    0  501  503 -0.00000000000E+00 -0.00000000000E+00 -0.39236050369E+03  0.39236050369E+03  0.00000000000E+00 0. -1.
          6    2    1    2  501    0  0.14690969635E+03 -0.55973983005E+02 -0.30417459936E+03  0.38348144162E+03  0.17268550464E+03 0.  0.
         24    2    3    3    0    0  0.10371893171E+03  0.28466457104E+02 -0.14177624957E+03  0.19535663174E+03  0.80596232221E+02 0.  0.
         -6    2    1    2    0  502 -0.14690969635E+03  0.55973983005E+02  0.23154094297E+03  0.32860590937E+03  0.17220653224E+03 0.  0.
        -24    2    5    5    0    0 -0.69665575140E+02 -0.34267504942E+02  0.11477839004E+03  0.16197528741E+03  0.83871095481E+02 0.  0.
          5    1    3    3  501    0  0.43190764637E+02 -0.84440440109E+02 -0.16239834979E+03  0.18812480987E+03  0.47000000000E+01 0. -1.
        -11    1    4    4    0    0 -0.98436824152E+01  0.17638202463E+02 -0.18411096212E+02  0.27330801915E+02  0.00000000000E+00 0.  1.
         12    1    4    4    0    0  0.11356261413E+03  0.10828254641E+02 -0.12336515336E+03  0.16802582983E+03  0.00000000000E+00 0. -1.
         -5    1    5    5    0  502 -0.77244121210E+02  0.90241487947E+02  0.11676255293E+03  0.16663062196E+03  0.47000000000E+01 0.  1.
         11    1    6    6    0    0 -0.42143590032E+02  0.24507399993E+02  0.57784487204E+02  0.75602525068E+02  0.00000000000E+00 0. -1.
        -12    1    6    6    0    0 -0.27521985108E+02 -0.58774904935E+02  0.56993902837E+02  0.86372762344E+02  0.00000000000E+00 0.  1.
</event>
<event>
12    1  0.8226261E-002  0.1695588E+03  0.7818608E-02  0.1178315E+00
         21   -1    0    0  501  502  0.00000000000E+00  0.00000000000E+00  0.51484722361E+03  0.51484722361E+03  0.00000000000E+00 0.  1.
         21   -1    0    0  502  503 -0.00000000000E+00 -0.00000000000E+00 -0.57975301804E+02  0.57975301804E+02  0.00000000000E+00 0.  1.
         -6    2    1    2    0  503 -0.21016440383E+02 -0.10850859789E+02  0.28350043941E+03  0.33033721505E+03  0.16790099634E+03 0.  0.
        -24    2    3    3    0    0 -0.48680124362E+02  0.39481799196E+02  0.22764862009E+03  0.25008653472E+03  0.82406393205E+02 0.  0.
          6    2    1    2  501    0  0.21016440383E+02  0.10850859789E+02  0.17337148240E+03  0.24248531037E+03  0.16787502171E+03 0.  0.
         24    2    5    5    0    0  0.10045209453E+02 -0.43616387174E+02  0.26243830871E+02  0.85145916882E+02  0.67511428957E+02 0.  0.
          5    1    5    5  501    0  0.10971230930E+02  0.54467246963E+02  0.14712765153E+03  0.15733939349E+03  0.47000000000E+01 0. -1.
        -13    1    6    6    0    0  0.37741900921E+02 -0.36154109459E+02  0.18395190387E+02  0.55407163303E+02  0.00000000000E+00 0.  1.
         14    1    6    6    0    0 -0.27696691468E+02 -0.74622777145E+01  0.78486404838E+01  0.29738753579E+02  0.00000000000E+00 0. -1.
         -5    1    3    3    0  503  0.27663683980E+02 -0.50332658985E+02  0.55851819319E+02  0.80250680328E+02  0.47000000000E+01 0.  1.
         11    1    4    4    0    0 -0.65497276577E+02  0.24098312358E+02  0.11015165169E+03  0.13039941821E+03  0.00000000000E+00 0. -1.
        -12    1    4    4    0    0  0.16817152215E+02  0.15383486839E+02  0.11749696840E+03  0.11968711651E+03  0.00000000000E+00 0.  1.
</event>
<event>
12    1  0.8226261E-002  0.1936553E+03  0.7818608E-02  0.1155421E+00
         21   -1    0    0  503  502  0.00000000000E+00  0.00000000000E+00  0.15581306192E+03  0.15581306192E+03  0.00000000000E+00 0. -1.
         21   -1    0    0  501  503 -0.00000000000E+00 -0.00000000000E+00 -0.24669162773E+03  0.24669162773E+03  0.00000000000E+00 0.  1.
          6    2    1    2  501    0 -0.75234281849E+02 -0.41790508879E+02 -0.10900827503E+02  0.19298429440E+03  0.17238754609E+03 0.  0.
         24    2    3    3    0    0 -0.50045986343E+02  0.76052129875E+01 -0.66006169528E+02  0.11467033467E+03  0.78930546834E+02 0.  0.
         -6    2    1    2    0  502  0.75234281849E+02  0.41790508879E+02 -0.79977738303E+02  0.20952039525E+03  0.17348116210E+03 0.  0.
        -24    2    5    5    0    0  0.24008779382E+02  0.38931350916E+02  0.24538903216E+02  0.92995525619E+02  0.77161768011E+02 0.  0.
          5    1    3    3  501    0 -0.25188295506E+02 -0.49395721866E+02  0.55105342025E+02  0.78313959732E+02  0.47000000000E+01 0. -1.
        -13    1    4    4    0    0 -0.66622078845E+02  0.16152885383E+02 -0.31492619074E+02  0.75440056681E+02  0.00000000000E+00 0.  1.
         14    1    4    4    0    0  0.16576092502E+02 -0.85476723955E+01 -0.34513550454E+02  0.39230277987E+02  0.00000000000E+00 0. -1.
         -5    1    5    5    0  502  0.51225502467E+02  0.28591579631E+01 -0.10451664152E+03  0.11652486963E+03  0.47000000000E+01 0.  1.
         13    1    6    6    0    0  0.34920545135E+02  0.53948665247E+02  0.26829637922E+01  0.64320301998E+02  0.00000000000E+00 0. -1.
        -14    1    6    6    0    0 -0.10911765754E+02 -0.15017314331E+02  0.21855939424E+02  0.28675223620E+02  0.00000000000E+00 0.  1.
</event>
<event>
12    1  0.8226261E-002  0.1903169E+03  0.7818608E-02  0.1158433E+00
         21   -1    0    0  501  502  0.00000000000E+00  0.00000000000E+00  0.87796601719E+02  0.87796601719E+02  0.00000000000E+00 0.  1.
         21   -1    0    0  502  503 -0.00000000000E+00 -0.00000000000E+00 -0.42389266555E+03  0.42389266555E+03  0.00000000000E+00 0.  1.
         -6    2    1    2    0  503 -0.73573135949E+02  0.30095742313E+02 -0.21374258583E+03  0.28543525319E+03  0.17166429661E+03 0.  0.
        -24    2    3    3    0    0  0.21261901734E+02  0.21765203168E+02 -0.51216698813E+02  0.97021251050E+02  0.76577936664E+02 0.  0.
          6    2    1    2  501    0  0.73573135949E+02 -0.30095742313E+02 -0.12235347801E+03  0.22625401408E+03  0.17292121115E+03 0.  0.
         24    2    5    5    0    0 -0.24415095162E+02 -0.33009351972E+02 -0.73584282137E+02  0.11666064282E+03  0.80680510758E+02 0.  0.
          5    1    5    5  501    0  0.97988231112E+02  0.29136096586E+01 -0.48769195873E+02  0.10959337126E+03  0.47000000000E+01 0. -1.
        -13    1    6    6    0    0  0.11098071610E+02 -0.49928173038E+02 -0.39819412961E+02  0.64819559586E+02  0.00000000000E+00 0.  1.
         14    1    6    6    0    0 -0.35513166772E+02  0.16918821066E+02 -0.33764869177E+02  0.51841083235E+02  0.00000000000E+00 0. -1.
         -5    1    3    3    0  503 -0.94835037684E+02  0.83305391454E+01 -0.16252588701E+03  0.18841400214E+03  0.47000000000E+01 0.  1.
         11    1    4    4    0    0  0.41783785248E+02  0.36944654318E+02 -0.42235345444E+02  0.69961536555E+02  0.00000000000E+00 0. -1.
        -12    1    4    4    0    0 -0.20521883514E+02 -0.15179451150E+02 -0.89813533691E+01  0.27059714495E+02  0.00000000000E+00 0.  1.
</event>
<event>
12    1  0.8226261E-002  0.2082847E+03  0.7818608E-02  0.1143088E+00
         21   -1    0    0  503  502  0.00000000000E+00  0.00000000000E+00  0.14241700162E+04  0.14241700162E+04  0.00000000000E+00 0. -1.
         21   -1    0    0  501  503 -0.00000000000E+00 -0.00000000000E+00 -0.60581280639E+02  0.60581280639E+02  0.00000000000E+00 0. -1.
          6    2    1    2  501    0 -0.35263077540E+02 -0.11216254662E+03  0.15798997140E+03  0.26142562469E+03  0.17192616054E+03 0.  0.
         24    2    3    3    0    0 -0.84673640704E+01 -0.62748613890E+02  0.74131317209E+01  0.10063003503E+03  0.77861188199E+02 0.  0.
         -6    2    1    2    0  502  0.35263077540E+02  0.11216254662E+03  0.12055987641E+04  0.12233256721E+04  0.17097777191E+03 0.  0.
        -24    2    5    5    0    0  0.34917287119E+02  0.34583494127E+02  0.98430781737E+03  0.98878270787E+03  0.80088257897E+02 0.  0.
          5    1    3    3  501    0 -0.26795713470E+02 -0.49413932731E+02  0.15057683968E+03  0.16079558966E+03  0.47000000000E+01 0. -1.
        -13    1    4    4    0    0 -0.35805118039E+02 -0.25754999094E+02  0.25794275369E+02  0.51094726714E+02  0.00000000000E+00 0.  1.
         14    1    4    4    0    0  0.27337753969E+02 -0.36993614796E+02 -0.18381143648E+02  0.49535308312E+02  0.00000000000E+00 0. -1.
         -5    1    5    5    0  502  0.34579042138E+00  0.77579052494E+02  0.22129094675E+03  0.23454296423E+03  0.47000000000E+01 0.  1.
         13    1    6    6    0    0  0.53543317519E+02  0.41694401144E+02  0.57520310600E+03  0.57919247500E+03  0.00000000000E+00 0. -1.
        -14    1    6    6    0    0 -0.18626030400E+02 -0.71109070172E+01  0.40910471136E+03  0.40959023288E+03  0.00000000000E+00 0.  1.
</event>
<event>
12    1  0.8226261E-002  0.2752246E+03  0.7818608E-02  0.1098467E+00
         21   -1    0    0  501  502  0.00000000000E+00  0.00000000000E+00  0.48919863723E+02  0.48919863723E+02  0.00000000000E+00 0. -1.
         21   -1    0    0  502  503 -0.00000000000E+00 -0.00000000000E+00 -0.17898461436E+04  0.17898461436E+04  0.00000000000E+00 0. -1.
         -6    2    1    2    0  503  0.13653221711E+03  0.16523744764E+03 -0.52747645867E+03  0.59449551323E+03  0.17102350827E+03 0.  0.
        -24    2    3    3    0    0  0.58089612548E+02  0.12928456535E+03 -0.44924436553E+03  0.47792706830E+03  0.80652840787E+02 0.  0.
          6    2    1    2  501    0 -0.13653221711E+03 -0.16523744764E+03 -0.12134498212E+04  0.12442704941E+04  0.17263873693E+03 0.  0.
         24    2    5    5    0    0 -0.16936776352E+03 -0.14503354091E+03 -0.10339510831E+04  0.10606179473E+04  0.78328925926E+02 0.  0.
          5    1    5    5  501    0  0.32835546405E+02 -0.20203906737E+02 -0.17949873813E+03  0.18365254679E+03  0.47000000000E+01 0. -1.
        -13    1    6    6    0    0 -0.76719504931E+02 -0.52187984231E+02 -0.60460860359E+03  0.61168703736E+03  0.00000000000E+00 0.  1.
         14    1    6    6    0    0 -0.92648258584E+02 -0.92845556675E+02 -0.42934247953E+03  0.44893090999E+03  0.00000000000E+00 0. -1.
         -5    1    3    3    0  503  0.78442604563E+02  0.35952882298E+02 -0.78232093143E+02  0.11656844493E+03  0.47000000000E+01 0.  1.
         13    1    4    4    0    0  0.16591717732E+02  0.11896939552E+03 -0.32077984739E+03  0.34253279063E+03  0.00000000000E+00 0. -1.
        -14    1    4    4    0    0  0.41497894816E+02  0.10315169824E+02 -0.12846451814E+03  0.13539427766E+03  0.00000000000E+00 0.  1.
</event>
<event>
12    1  0.8226261E-002  0.2105032E+03  0.7818608E-02  0.1141456E+00
         21   -1    0    0  501  502  0.00000000000E+00  0.00000000000E+00  0.81620930809E+02  0.81620930809E+02  0.00000000000E+00 0. -1.
         21   -1    0    0  502  503 -0.00000000000E+00 -0.00000000000E+00 -0.55312979215E+03  0.55312979215E+03  0.00000000000E+00 0. -1.
         -6    2    1    2    0  503 -0.80593048526E+02  0.89000611091E+02 -0.28539768737E+03  0.35377215410E+03  0.17113313185E+03 0.  0.
        -24    2    3    3    0    0 -0.72453461887E+02  0.72389574878E+02 -0.99189393342E+02  0.16658829219E+03  0.86158973148E+02 0.  0.
          6    2    1    2  501    0  0.80593048526E+02 -0.89000611091E+02 -0.18611117397E+03  0.28097856886E+03  0.17290239684E+03 0.  0.
         24    2    5    5    0    0  0.88273241345E+02 -0.11199464814E+03 -0.19554673774E+03  0.25454315766E+03  0.78858900080E+02 0.  0.
          5    1    5    5  501    0 -0.76801928190E+01  0.22994037047E+02  0.94355637681E+01  0.26435411196E+02  0.47000000000E+01 0. -1.
        -11    1    6    6    0    0 -0.34863009833E+01 -0.27052482522E+02 -0.79128142137E+02  0.83697395319E+02  0.00000000000E+00 0.  1.
         12    1    6    6    0    0  0.91759542328E+02 -0.84942165617E+02 -0.11641859561E+03  0.17084576234E+03  0.00000000000E+00 0. -1.
         -5    1    3    3    0  503 -0.81395866390E+01  0.16611036213E+02 -0.18620829402E+03  0.18718386191E+03  0.47000000000E+01 0.  1.
         11    1    4    4    0    0 -0.28301764381E+02  0.36568010925E+02 -0.99513098989E+02  0.10973179193E+03  0.00000000000E+00 0. -1.
        -12    1    4    4    0    0 -0.44151697506E+02  0.35821563953E+02  0.32370564749E+00  0.56856500262E+02  0.00000000000E+00 0.  1.
</event>
<event>
12    1  0.8226261E-002  0.1935872E+03  0.7818608E-02  0.1155726E+00
         21   -1    0    0  501  502  0.00000000000E+00  0.00000000000E+00  0.18661854329E+03  0.18661854329E+03  0.00000000000E+00 0.  1.
         21   -1    0    0  502  503 -0.00000000000E+00 -0.00000000000E+00 -0.22941090740E+03  0.22941090740E+03  0.00000000000E+00 0. -1.
         -6    2    1    2    0  503 -0.62458698298E+02  0.59597518435E+02 -0.97650041833E+02  0.21682146673E+03  0.17327164964E+03 0.  0.
        -24    2    3    3    0    0 -0.11377211433E+03  0.23971014486E+02 -0.53368469338E+02  0.14010600472E+03  0.57120885013E+02 0.  0.
          6    2    1    2  501    0  0.62458698298E+02 -0.59597518435E+02  0.54857677718E+02  0.19920798396E+03  0.17094298135E+03 0.  0.
         24    2    5    5    0    0 -0.40400372372E+01 -0.76756436798E+02 -0.18715223985E+01  0.11000707335E+03  0.78677703964E+02 0.  0.
          5    1    5    5  501    0  0.66498735535E+02  0.17158918363E+02  0.56729200116E+02  0.89200910606E+02  0.47000000000E+01 0. -1.
        -11    1    6    6    0    0  0.17036736956E+02 -0.85491193018E+02 -0.11079587956E+01  0.87179252477E+02  0.00000000000E+00 0.  1.
         12    1    6    6    0    0 -0.21076774194E+02  0.87347562197E+01 -0.76356360296E+00  0.22827820877E+02  0.00000000000E+00 0. -1.
         -5    1    3    3    0  503  0.51313416035E+02  0.35626503949E+02 -0.44281572495E+02  0.76715462010E+02  0.47000000000E+01 0.  1.
         11    1    4    4    0    0 -0.10266458868E+03  0.16290518934E+02 -0.64732068411E+02  0.12245668400E+03  0.00000000000E+00 0. -1.
        -12    1    4    4    0    0 -0.11107525655E+02  0.76804955518E+01  0.11363599073E+02  0.17649320723E+02  0.00000000000E+00 0.  1.
</event>
<event>
12    1  0.8226261E-002  0.1938040E+03  0.7818608E-02  0.1155563E+00
         21   -1    0    0  503  502  0.00000000000E+00  0.00000000000E+00  0.21557110255E+03  0.21557110255E+03  0.00000000000E+00 0. -1.
         21   -1    0    0  501  503 -0.00000000000E+00 -0.00000000000E+00 -0.20545327858E+03  0.20545327858E+03  0.00000000000E+00 0. -1.
          6    2    1    2  501    0  0.44449267896E+02 -0.72721637504E+02 -0.79585620172E+02  0.20746709529E+03  0.17159414533E+03 0.  0.
         24    2    3    3    0    0  0.38759243940E+02 -0.20603117300E+02  0.20285679259E+02  0.94572972454E+02  0.81275893736E+02 0.  0.
         -6    2    1    2    0  502 -0.44449267896E+02  0.72721637504E+02  0.89703444140E+02  0.21355728584E+03  0.17405698051E+03 0.  0.
        -24    2    5    5    0    0 -0.97167036016E+01  0.79438672448E+02 -0.37713992923E+01  0.11350177157E+03  0.80395968103E+02 0.  0.
          5    1    3    3  501    0  0.56900239561E+01 -0.52118520203E+02 -0.99871299430E+02  0.11289412284E+03  0.47000000000E+01 0. -1.
        -11    1    4    4    0    0 -0.19524451950E+02  0.14122026659E+02  0.13420215470E+01  0.24133729151E+02  0.00000000000E+00 0.  1.
         12    1    4    4    0    0  0.58283695890E+02 -0.34725143959E+02  0.18943657712E+02  0.70439243303E+02  0.00000000000E+00 0. -1.
         -5    1    5    5    0  502 -0.34732564294E+02 -0.67170349440E+01  0.93474843432E+02  0.10005551427E+03  0.47000000000E+01 0.  1.
         13    1    6    6    0    0 -0.13058034051E+02  0.81472114243E+02  0.23625053046E+02  0.85827505987E+02  0.00000000000E+00 0. -1.
        -14    1    6    6    0    0  0.33413304499E+01 -0.20334417953E+01 -0.27396452338E+02  0.27674265581E+02  0.00000000000E+00 0.  1.
</event>
<event>
12    1  0.8226261E-002  0.2219117E+03  0.7818608E-02  0.1133280E+00
         21   -1    0    0  501  502  0.00000000000E+00  0.00000000000E+00  0.24256172374E+03  0.24256172374E+03  0.00000000000E+00 0.  1.
         21   -1    0    0  502  503 -0.00000000000E+00 -0.00000000000E+00 -0.22411298231E+03  0.22411298231E+03  0.00000000000E+00 0. -1.
         -6    2    1    2    0  503  0.95399864844E+02  0.95151898198E+02  0.87349126171E+02  0.23848410591E+03  0.17632294515E+03 0.  0.
        -24    2    3    3    0    0 -0.11448810487E+02  0.39076433252E+02  0.72772611000E+02  0.11684668575E+03  0.81848959440E+02 0.  0.
          6    2    1    2  501    0 -0.95399864844E+02 -0.95151898198E+02 -0.68900384742E+02  0.22819060015E+03  0.17078837500E+03 0.  0.
         24    2    5    5    0    0 -0.83897948470E+02 -0.29489433940E+02  0.15760564787E+02  0.12033226868E+03  0.79517086282E+02 0.  0.
          5    1    5    5  501    0 -0.11501916374E+02 -0.65662464257E+02 -0.84660949529E+02  0.10785833147E+03  0.47000000000E+01 0. -1.
        -11    1    6    6    0    0  0.85310785923E+01  0.13607852987E+02 -0.37668249548E+01  0.16496724982E+02  0.00000000000E+00 0.  1.
         12    1    6    6    0    0 -0.92429027062E+02 -0.43097286928E+02  0.19527389741E+02  0.10383554369E+03  0.00000000000E+00 0. -1.
         -5    1    3    3    0  503  0.10684867533E+03  0.56075464946E+02  0.14576515171E+02  0.12163742016E+03  0.47000000000E+01 0.  1.
         13    1    4    4    0    0 -0.22454974549E+02  0.61746166405E+02  0.46861586916E+02  0.80702064881E+02  0.00000000000E+00 0. -1.
        -14    1    4    4    0    0  0.11006164062E+02 -0.22669733153E+02  0.25911024084E+02  0.36144620868E+02  0.00000000000E+00 0.  1.
</event>
<event>
12    1  0.8226261E-002  0.2093135E+03  0.7818608E-02  0.1142177E+00
         21   -1    0    0  503  502  0.00000000000E+00  0.00000000000E+00  0.22938337689E+03  0.22938337689E+03  0.00000000000E+00 0. -1.
         21   -1    0    0  501  503 -0.00000000000E+00 -0.00000000000E+00 -0.41751869411E+03  0.41751869411E+03  0.00000000000E+00 0. -1.
          6    2    1    2  501    0 -0.50930582043E+02  0.10745703920E+03 -0.33250496744E+03  0.39290160919E+03  0.17225324865E+03 0.  0.
         24    2    3    3    0    0 -0.71269042857E+02  0.86385106314E+02 -0.33399342599E+03  0.36320337940E+03  0.88450116663E+02 0.  0.
         -6    2    1    2    0  502  0.50930582043E+02 -0.10745703920E+03  0.14436965022E+03  0.25400046181E+03  0.17185080516E+03 0.  0.
        -24    2    5    5    0    0  0.17236637092E+02 -0.13768010090E+03  0.90749688374E+02  0.18367332841E+03  0.79040962706E+02 0.  0.
          5    1    3    3  501    0  0.20338460814E+02  0.21071932887E+02  0.14884585500E+01  0.29698229792E+02  0.47000000000E+01 0. -1.
        -11    1    4    4    0    0 -0.12813444914E+02 -0.12242616038E+02 -0.11986176666E+02  0.21394729470E+02  0.00000000000E+00 0.  1.
         12    1    4    4    0    0 -0.58455597943E+02  0.98627722352E+02 -0.32200724932E+03  0.34180864993E+03  0.00000000000E+00 0. -1.
         -5    1    5    5    0  502  0.33693944951E+02  0.30223061699E+02  0.53619961844E+02  0.70327133405E+02  0.47000000000E+01 0.  1.
         11    1    6    6    0    0 -0.82153142414E+01 -0.62821196864E+02  0.60253607268E-01  0.63356118836E+02  0.00000000000E+00 0. -1.
        -12    1    6    6    0    0  0.25451951334E+02 -0.74858904036E+02  0.90689434767E+02  0.12031720957E+03  0.00000000000E+00 0.  1.
</event>
<event>
12    1  0.8226261E-002  0.1909411E+03  0.7818608E-02  0.1157821E+00
         21   -1    0    0  501  502  0.00000000000E+00  0.00000000000E+00  0.12636129520E+04  0.12636129520E+04  0.00000000000E+00 0. -1.
         21   -1    0    0  502  503 -0.00000000000E+00 -0.00000000000E+00 -0.30360383823E+02  0.30360383823E+02  0.00000000000E+00 0. -1.
         -6    2    1    2    0  503  0.44566768851E+02 -0.68880295890E+02  0.76586829562E+03  0.78909061549E+03  0.17140321228E+03 0.  0.
        -24    2    3    3    0    0  0.70653721496E+02 -0.92319296601E+02  0.69920414270E+03  0.71361800366E+03  0.82761229414E+02 0.  0.
          6    2    1    2  501    0 -0.44566768851E+02  0.68880295890E+02  0.46738427255E+03  0.50488272032E+03  0.17241754842E+03 0.  0.
         24    2    5    5    0    0 -0.58705242785E+02  0.80994871771E+01  0.13791243304E+03  0.16952025047E+03  0.78774163972E+02 0.  0.
          5    1    5    5  501    0  0.14138473934E+02  0.60780808713E+02  0.32947183951E+03  0.33536246985E+03  0.47000000000E+01 0. -1.
        -11    1    6    6    0    0  0.49543142042E+01  0.95143398908E+01 -0.58994208424E+01  0.12242183591E+02  0.00000000000E+00 0.  1.
         12    1    6    6    0    0 -0.63659556989E+02 -0.14148527137E+01  0.14381185388E+03  0.15727806688E+03  0.00000000000E+00 0. -1.
         -5    1    3    3    0  503 -0.26086952646E+02  0.23439000711E+02  0.66664152917E+02  0.75472611833E+02  0.47000000000E+01 0.  1.
         11    1    4    4    0    0  0.27738442040E+02 -0.39039646951E+02  0.51322772968E+03  0.51545728990E+03  0.00000000000E+00 0. -1.
        -12    1    4    4    0    0  0.42915279457E+02 -0.53279649650E+02  0.18597641302E+03  0.19816071376E+03  0.00000000000E+00 0.  1.
</event>
<event>
12    1  0.8226261E-002  0.2264048E+03  0.7818608E-02  0.1129738E+00
         21   -1    0    0  501  502  0.00000000000E+00  0.00000000000E+00  0.47032024498E+03  0.47032024498E+03  0.00000000000E+00 0.  1.
         21   -1    0    0  502  503 -0.00000000000E+00 -0.00000000000E+00 -0.20544462862E+03  0.20544462862E+03  0.00000000000E+00 0. -1.
         -6    2    1    2    0  503 -0.11362030650E+03  0.91261326311E+02 -0.10033532462E+03  0.24764145777E+03  0.17326543369E+03 0.  0.
        -24    2    3    3    0    0 -0.36692336314E+02  0.18094659780E+02  0.14509579104E+02  0.91171922080E+02  0.80175103575E+02 0.  0.
          6    2    1    2  501    0  0.11362030650E+03 -0.91261326311E+02  0.36521094098E+03  0.42812341583E+03  0.16932933603E+03 0.  0.
         24    2    5    5    0    0 -0.60569415283E+01 -0.49056518921E+02  0.19029770559E+03  0.21197388569E+03  0.79224256848E+02 0.  0.
          5    1    5    5  501    0  0.11967724803E+03 -0.42204807389E+02  0.17491323538E+03  0.21614953013E+03  0.47000000000E+01 0. -1.
        -11    1    6    6    0    0 -0.94650255082E+01 -0.64063424468E+02  0.92162550209E+02  0.11263944568E+03  0.00000000000E+00 0.  1.
         12    1    6    6    0    0  0.34080839799E+01  0.15006905546E+02  0.98135155384E+02  0.99334440013E+02  0.00000000000E+00 0. -1.
         -5    1    3    3    0  503 -0.76927970190E+02  0.73166666531E+02 -0.11484490372E+03  0.15646953569E+03  0.47000000000E+01 0.  1.
         11    1    4    4    0    0 -0.15194283137E+02  0.45931021215E+02 -0.85312331580E+01  0.49125419989E+02  0.00000000000E+00 0. -1.
        -12    1    4    4    0    0 -0.21498053178E+02 -0.27836361436E+02  0.23040812262E+02  0.42046502091E+02  0.00000000000E+00 0.  1.
</event>
<event>
12    1  0.8226261E-002  0.2564999E+03  0.7818608E-02  0.1109390E+00
         21   -1    0    0  503  502  0.00000000000E+00  0.00000000000E+00  0.21431489909E+03  0.21431489909E+03  0.00000000000E+00 0. -1.
         21   -1    0    0  501  503 -0.00000000000E+00 -0.00000000000E+00 -0.52629057856E+03  0.52629057856E+03  0.00000000000E+00 0.  1.
          6    2    1    2  501    0  0.18656235004E+03 -0.36917713528E+02 -0.39570287605E+03  0.47156439427E+03  0.17211561174E+03 0.  0.
         24    2    3    3    0    0  0.64636017342E+02  0.10168021437E+01 -0.76179734828E+02  0.12743914692E+03  0.79110906619E+02 0.  0.
         -6    2    1    2    0  502 -0.18656235004E+03  0.36917713528E+02  0.83727196592E+02  0.26904108338E+03  0.17089304571E+03 0.  0.
        -24    2    5    5    0    0 -0.13027524107E+03 -0.16263254977E+02  0.10654419446E+03  0.18817601404E+03  0.82597911535E+02 0.  0.
          5    1    3    3  501    0  0.12192633269E+03 -0.37934515672E+02 -0.31952314123E+03  0.34412524735E+03  0.47000000000E+01 0. -1.
        -11    1    4    4    0    0  0.74502777333E+02  0.22322897936E+02 -0.50970540676E+02  0.92989094089E+02  0.00000000000E+00 0.  1.
         12    1    4    4    0    0 -0.98667599913E+01 -0.21306095792E+02 -0.25209194151E+02  0.34450052836E+02  0.00000000000E+00 0. -1.
         -5    1    5    5    0  502 -0.56287108965E+02  0.53180968505E+02 -0.22816997866E+02  0.80865069334E+02  0.47000000000E+01 0.  1.
         11    1    6    6    0    0 -0.39432472641E+01 -0.26099800498E+02  0.30741745264E+02  0.40519176779E+02  0.00000000000E+00 0. -1.
        -12    1    6    6    0    0 -0.12633199381E+03  0.98365455206E+01  0.75802449194E+02  0.14765683726E+03  0.00000000000E+00 0.  1.
</event>
<event>
12    1  0.8226261E-002  0.2481742E+03  0.7818608E-02  0.1114540E+00
         21   -1    0    0  503  502  0.00000000000E+00  0.00000000000E+00  0.76864495414E+03  0.76864495414E+03  0.00000000000E+00 0. -1.
         21   -1    0    0  501  503 -0.00000000000E+00 -0.00000000000E+00 -0.42719049316E+03  0.42719049316E+03  0.00000000000E+00 0.  1.
          6    2    1    2  501    0 -0.21189952510E+02  0.17801461402E+03 -0.36835409311E+03  0.44389223398E+03  0.17093086492E+03 0.  0.
         24    2    3    3    0    0  0.41479047175E+02  0.70018981924E+02 -0.16027389094E+03  0.20117857427E+03  0.90343397343E+02 0.  0.
         -6    2    1    2    0  502  0.21189952510E+02 -0.17801461402E+03  0.70980855409E+03  0.75194321332E+03  0.17161642027E+03 0.  0.
        -24    2    5    5    0    0  0.12605336700E+02 -0.20406723732E+03  0.64473426294E+03  0.68116759479E+03  0.80651661628E+02 0.  0.
          5    1    3    3  501    0 -0.62668999685E+02  0.10799563210E+03 -0.20808020217E+03  0.24271365971E+03  0.47000000000E+01 0. -1.
        -11    1    4    4    0    0 -0.53050717453E+00  0.68792256157E+02 -0.13659236044E+03  0.15293831723E+03  0.00000000000E+00 0.  1.
         12    1    4    4    0    0  0.42009554350E+02  0.12267257665E+01 -0.23681530500E+02  0.48240257043E+02  0.00000000000E+00 0. -1.
         -5    1    5    5    0  502  0.85846158104E+01  0.26052623301E+02  0.65074291152E+02  0.70775618530E+02  0.47000000000E+01 0.  1.
         13    1    6    6    0    0  0.44223266546E+02 -0.12019941054E+03  0.33217402885E+03  0.35601008559E+03  0.00000000000E+00 0. -1.
        -14    1    6    6    0    0 -0.31617929847E+02 -0.83867826787E+02  0.31256023408E+03  0.32515750920E+03  0.00000000000E+00 0.  1.
</event>
<event>
12    1  0.8226261E-002  0.1940455E+03  0.7818608E-02  0.1155213E+00
         21   -1    0    0  501  502  0.00000000000E+00  0.00000000000E+00  0.68485745354E+03  0.68485745354E+03  0.00000000000E+00 0. -1.
         21   -1    0    0  502  503 -0.00000000000E+00 -0.00000000000E+00 -0.67897664906E+02  0.67897664906E+02  0.00000000000E+00 0.  1.
         -6    2    1    2    0  503  0.86583198674E+02 -0.31362906489E+02  0.14045566312E+03  0.23825551832E+03  0.16898998939E+03 0.  0.
        -24    2    3    3    0    0 -0.58793893043E+01 -0.19226108358E+02  0.11494226536E+03  0.14145853743E+03  0.79966136489E+02 0.  0.
          6    2    1    2  501    0 -0.86583198674E+02  0.31362906489E+02  0.47650412551E+03  0.51449960012E+03  0.17080215074E+03 0.  0.
         24    2    5    5    0    0  0.21183122907E+02  0.70279611797E+01  0.20393589077E+03  0.22035456409E+03  0.80424930441E+02 0.  0.
          5    1    5    5  501    0 -0.10776632158E+03  0.24334945309E+02  0.27256823474E+03  0.29414503603E+03  0.47000000000E+01 0. -1.
        -11    1    6    6    0    0  0.40510485067E+02  0.26096187614E+02  0.17105516465E+03  0.17771319524E+03  0.00000000000E+00 0.  1.
         12    1    6    6    0    0 -0.19327362159E+02 -0.19068226434E+02  0.32880726122E+02  0.42641368853E+02  0.00000000000E+00 0. -1.
         -5    1    3    3    0  503  0.92462587978E+02 -0.12136798131E+02  0.25513397757E+02  0.96796980891E+02  0.47000000000E+01 0.  1.
         13    1    4    4    0    0 -0.33883197554E+02  0.15970476318E+02  0.50737517934E+02  0.63066813114E+02  0.00000000000E+00 0. -1.
        -14    1    4    4    0    0  0.28003808249E+02 -0.35196584676E+02  0.64204747430E+02  0.78391724320E+02  0.00000000000E+00 0.  1.
</event>
<event>
12    1  0.8226261E-002  0.3392868E+03  0.7818608E-02  0.1067227E+00
         21   -1    0    0  503  502  0.00000000000E+00  0.00000000000E+00  0.15758181576E+03  0.15758181576E+03  0.00000000000E+00 0. -1.
         21   -1    0    0  501  503 -0.00000000000E+00 -0.00000000000E+00 -0.16297899521E+04  0.16297899521E+04  0.00000000000E+00 0.  1.
          6    2    1    2  501    0  0.42790820090E+02  0.28834246891E+03 -0.14003125881E+04  0.14405512067E+04  0.17128923220E+03 0.  0.
         24    2    3    3    0    0  0.25390763958E+02  0.29792752415E+03 -0.13645271238E+04  0.13993526061E+04  0.82752305277E+02 0.  0.
         -6    2    1    2    0  502 -0.42790820090E+02 -0.28834246891E+03 -0.71895548246E+02  0.34682056118E+03  0.17361767806E+03 0.  0.
        -24    2    5    5    0    0 -0.47796944567E+02 -0.24120213521E+03  0.24283820012E+01  0.25854027486E+03  0.79838328824E+02 0.  0.
          5    1    3    3  501    0  0.17400056132E+02 -0.95850552381E+01 -0.35785464282E+02  0.41198600597E+02  0.47000000000E+01 0. -1.
        -13    1    4    4    0    0  0.42987539235E+02  0.13819427966E+03 -0.52496707344E+03  0.54455120573E+03  0.00000000000E+00 0.  1.
         14    1    4    4    0    0 -0.17596775277E+02  0.15973324448E+03 -0.83956005038E+03  0.85480140038E+03  0.00000000000E+00 0. -1.
         -5    1    5    5    0  502  0.50061244777E+01 -0.47140333704E+02 -0.74323930247E+02  0.88280286312E+02  0.47000000000E+01 0.  1.
         11    1    6    6    0    0 -0.11810140580E+02 -0.70832360356E+02 -0.35837868080E+02  0.80256186569E+02  0.00000000000E+00 0. -1.
        -12    1    6    6    0    0 -0.35986803987E+02 -0.17036977485E+03  0.38266250081E+02  0.17828408829E+03  0.00000000000E+00 0.  1.
</event>
<event>
12    1  0.8226261E-002  0.2666315E+03  0.7818608E-02  0.1103245E+00
         21   -1    0    0  501  502  0.00000000000E+00  0.00000000000E+00  0.14898196236E+03  0.14898196236E+03  0.00000000000E+00 0. -1.
         21   -1    0    0  502  503 -0.00000000000E+00 -0.00000000000E+00 -0.48307346996E+03  0.48307346996E+03  0.00000000000E+00 0. -1.
         -6    2    1    2    0  503 -0.18375583567E+03  0.88232633901E+02 -0.20267921031E+03  0.33479876787E+03  0.17163958705E+03 0.  0.
        -24    2    3    3    0    0 -0.14956280935E+03  0.11784524844E+03 -0.20298482146E+03  0.28932071396E+03  0.79038606148E+02 0.  0.
          6    2    1    2  501    0  0.18375583567E+03 -0.88232633901E+02 -0.13141229729E+03  0.29725666446E+03  0.17187532649E+03 0.  0.
         24    2    5    5    0    0  0.16268774653E+02 -0.45497074464E+02 -0.38210154535E+02  0.10082099289E+03  0.79813531963E+02 0.  0.
          5    1    5    5  501    0  0.16748706102E+03 -0.42735559437E+02 -0.93202142759E+02  0.19643567157E+03  0.47000000000E+01 0. -1.
        -13    1    6    6    0    0 -0.17267807208E+02 -0.27855468882E+02 -0.51175765552E+02  0.60770579166E+02  0.00000000000E+00 0.  1.
         14    1    6    6    0    0  0.33536581861E+02 -0.17641605582E+02  0.12965611017E+02  0.40050413724E+02  0.00000000000E+00 0. -1.
         -5    1    3    3    0  503 -0.34193026318E+02 -0.29612614541E+02  0.30561115084E+00  0.45478053904E+02  0.47000000000E+01 0.  1.
         13    1    4    4    0    0 -0.13702851910E+03  0.94357562303E+02 -0.12849680112E+03  0.21021796428E+03  0.00000000000E+00 0. -1.
        -14    1    4    4    0    0 -0.12534290258E+02  0.23487686138E+02 -0.74488020340E+02  0.79102749678E+02  0.00000000000E+00 0.  1.
</event>
<event>
12    1  0.8226261E-002  0.2133566E+03  0.7818608E-02  0.1139936E+00
         21   -1    0    0  501  502  0.00000000000E+00  0.00000000000E+00  0.37861461319E+03  0.37861461319E+03  0.00000000000E+00 0.  1.
         21   -1    0    0  502  503 -0.00000000000E+00 -0.00000000000E+00 -0.13549942013E+03  0.13549942013E+03  0.00000000000E+00 0.  1.
         -6    2    1    2    0  503 -0.11413815340E+03  0.53738579082E+02  0.21682978250E+03  0.30419759875E+03  0.17206298720E+03 0.  0.
        -24    2    3    3    0    0 -0.15727545976E+02  0.17906677013E+02  0.28545627950E+02  0.88694499672E+02  0.80522398207E+02 0.  0.
          6    2    1    2  501    0  0.11413815340E+03 -0.53738579082E+02  0.26285410561E+02  0.20991643457E+03  0.16570646864E+03 0.  0.
         24    2    5    5    0    0  0.13178821003E+03 -0.79643618889E+02  0.13860817895E+01  0.16960933644E+03  0.71092668050E+02 0.  0.
          5    1    5    5  501    0 -0.17650056631E+02  0.25905039807E+02  0.24899328772E+02  0.40307098132E+02  0.47000000000E+01 0. -1.
        -11    1    6    6    0    0  0.10324776630E+03 -0.55891493569E+02  0.31773916902E+02  0.12162870588E+03  0.00000000000E+00 0.  1.
         12    1    6    6    0    0  0.28540443737E+02 -0.23752125320E+02 -0.30387835112E+02  0.47980630558E+02  0.00000000000E+00 0. -1.
         -5    1    3    3    0  503 -0.98410607427E+02  0.35831902069E+02  0.18828415455E+03  0.21550309908E+03  0.47000000000E+01 0.  1.
         13    1    4    4    0    0 -0.44516056517E+02  0.28728916132E+02  0.21260396629E+02  0.57087952974E+02  0.00000000000E+00 0. -1.
        -14    1    4    4    0    0  0.28788510542E+02 -0.10822239119E+02  0.72852313209E+01  0.31606546698E+02  0.00000000000E+00 0.  1.
</event>
<event>
12    1  0.8226261E-002  0.1871418E+03  0.7818608E-02  0.1161147E+00
         21   -1    0    0  501  502  0.00000000000E+00  0.00000000000E+00  0.15616848812E+03  0.15616848812E+03  0.00000000000E+00 0.  1.
         21   -1    0    0  502  503 -0.00000000000E+00 -0.00000000000E+00 -0.22534267598E+03  0.22534267598E+03  0.00000000000E+00 0.  1.
         -6    2    1    2    0  503 -0.71534658446E+02 -0.17116952073E+02 -0.50186967449E+02  0.19340862336E+03  0.17169148634E+03 0.  0.
        -24    2    3    3    0    0 -0.88031690115E+01 -0.42653997804E+02  0.24383707620E+02  0.92560935971E+02  0.77949357644E+02 0.  0.
          6    2    1    2  501    0  0.71534658446E+02  0.17116952073E+02 -0.18987220418E+02  0.18810254074E+03  0.17208095155E+03 0.  0.
         24    2    5    5    0    0  0.93188866011E+02  0.48831961398E+02  0.17774586307E+02  0.13473338340E+03  0.82270428956E+02 0.  0.
          5    1    5    5  501    0 -0.21654207565E+02 -0.31715009325E+02 -0.36761806725E+02  0.53369157342E+02  0.47000000000E+01 0. -1.
        -11    1    6    6    0    0  0.55270356186E+02  0.56717416898E+02 -0.18874638982E+02  0.81412097683E+02  0.00000000000E+00 0.  1.
         12    1    6    6    0    0  0.37918509825E+02 -0.78854555001E+01  0.36649225289E+02  0.53321285713E+02  0.00000000000E+00 0. -1.
         -5    1    3    3    0  503 -0.62731489434E+02  0.25537045731E+02 -0.74570675070E+02  0.10084768739E+03  0.47000000000E+01 0.  1.
         11    1    4    4    0    0 -0.11747793430E+01  0.21633709167E+02 -0.37247152146E+01  0.21983425171E+02  0.00000000000E+00 0. -1.
        -12    1    4    4    0    0 -0.76283896685E+01 -0.64287706970E+02  0.28108422835E+02  0.70577510800E+02  0.00000000000E+00 0.  1.
</event>
<event>
12    1  0.8226261E-002  0.2488627E+03  0.7818608E-02  0.1114221E+00
         21   -1    0    0  501  502  0.00000000000E+00  0.00000000000E+00  0.13885610129E+03  0.13885610129E+03  0.00000000000E+00 0. -1.
         21   -1    0    0  502  503 -0.00000000000E+00 -0.00000000000E+00 -0.62223116197E+03  0.62223116197E+03  0.00000000000E+00 0.  1.
         -6    2    1    2    0  503 -0.52905110868E+02  0.17022628145E+03 -0.44502878916E+03  0.50928760689E+03  0.17189329743E+03 0.  0.
        -24    2    3    3    0    0  0.28903002344E+02  0.96411696903E+02 -0.30737916792E+03  0.33290544083E+03  0.78825635520E+02 0.  0.
          6    2    1    2  501    0  0.52905110868E+02 -0.17022628145E+03 -0.38346271517E+02  0.25179965637E+03  0.17365682467E+03 0.  0.
         24    2    5    5    0    0 -0.98480243683E+01 -0.92315265438E+02 -0.80221274604E+02  0.14324695819E+03  0.73926627907E+02 0.  0.
          5    1    5    5  501    0  0.62753135236E+02 -0.77911016016E+02  0.41875003088E+02  0.10855269818E+03  0.47000000000E+01 0. -1.
        -13    1    6    6    0    0 -0.41452721508E+02 -0.60879123931E+02 -0.43869554017E+02  0.85727088022E+02  0.00000000000E+00 0.  1.
         14    1    6    6    0    0  0.31604697139E+02 -0.31436141507E+02 -0.36351720587E+02  0.57519870165E+02  0.00000000000E+00 0. -1.
         -5    1    3    3    0  503 -0.81808113211E+02  0.73814584552E+02 -0.13764962124E+03  0.17638216607E+03  0.47000000000E+01 0.  1.
         11    1    4    4    0    0  0.10091074393E+01  0.56629336613E+02 -0.67310250775E+02  0.87969141876E+02  0.00000000000E+00 0. -1.
        -12    1    4    4    0    0  0.27893894904E+02  0.39782360290E+02 -0.24006891715E+03  0.24493629895E+03  0.00000000000E+00 0.  1.
</event>
<event>
12    1  0.8226261E-002  0.2219916E+03  0.7818608E-02  0.1132592E+00
         21   -1    0    0  501  502  0.00000000000E+00  0.00000000000E+00  0.14515706187E+03  0.14515706187E+03  0.00000000000E+00 0. -1.
         21   -1    0    0  502  503 -0.00000000000E+00 -0.00000000000E+00 -0.52279248421E+03  0.52279248421E+03  0.00000000000E+00 0.  1.
         -6    2    1    2    0  503  0.32431517317E+02 -0.13499569445E+03 -0.38767465653E+03  0.44673473315E+03  0.17321847955E+03 0.  0.
        -24    2    3    3    0    0 -0.40421470602E+02 -0.11533031641E+03 -0.23271732058E+03  0.27431619904E+03  0.78466862994E+02 0.  0.
          6    2    1    2  501    0 -0.32431517317E+02  0.13499569445E+03  0.10039234189E+02  0.22121481292E+03  0.17192895741E+03 0.  0.
         24    2    5    5    0    0  0.46913881883E+02  0.94214365796E+02  0.21977389352E+01  0.13153544969E+03  0.78863714306E+02 0.  0.
          5    1    5    5  501    0 -0.79345399200E+02  0.40781328651E+02  0.78414952539E+01  0.89679363226E+02  0.47000000000E+01 0. -1.
        -13    1    6    6    0    0  0.36454153359E+02  0.67770768090E+01 -0.17956395378E+02  0.41197890749E+02  0.00000000000E+00 0.  1.
         14    1    6    6    0    0  0.10459728524E+02  0.87437288987E+02  0.20154134313E+02  0.90337558945E+02  0.00000000000E+00 0. -1.
         -5    1    3    3    0  503  0.72852987920E+02 -0.19665378037E+02 -0.15495733595E+03  0.17241853412E+03  0.47000000000E+01 0.  1.
         11    1    4    4    0    0 -0.14794800138E+02 -0.47854254624E+02 -0.28301663420E+02  0.57531729932E+02  0.00000000000E+00 0. -1.
        -12    1    4    4    0    0 -0.25626670465E+02 -0.67476061786E+02 -0.20441565716E+03  0.21678446911E+03  0.00000000000E+00 0.  1.
</event>
<event>
12    1  0.8226261E-002  0.3161964E+03  0.7818608E-02  0.1078018E+00
         21   -1    0    0  501  502  0.00000000000E+00  0.00000000000E+00  0.34457812697E+03  0.34457812697E+03  0.00000000000E+00 0.  1.
         21   -1    0    0  502  503 -0.00000000000E+00 -0.00000000000E+00 -0.60218548972E+03  0.60218548972E+03  0.00000000000E+00 0. -1.
         -6    2    1    2    0  503  0.25841291189E+03 -0.16444543479E+02 -0.47160828670E+03  0.56495668959E+03  0.17237757680E+03 0.  0.
        -24    2    3    3    0    0  0.23899223870E+03  0.77925242890E+01 -0.47031972618E+03  0.53351868091E+03  0.79142431470E+02 0.  0.
          6    2    1    2  501    0 -0.25841291189E+03  0.16444543479E+02  0.21400092395E+03  0.38180692711E+03  0.18147307815E+03 0.  0.
         24    2    5    5    0    0 -0.22024434764E+03 -0.54849007185E+02  0.16087941380E+03  0.28493797179E+03  0.61574960228E+02 0.  0.
          5    1    5    5  501    0 -0.38168564254E+02  0.71293550664E+02  0.53121510144E+02  0.96868955313E+02  0.47000000000E+01 0. -1.
        -13    1    6    6    0    0 -0.17737333014E+03 -0.20609914433E+02  0.13716194937E+03  0.22516542179E+03  0.00000000000E+00 0.  1.
         14    1    6    6    0    0 -0.42871017503E+02 -0.34239092752E+02  0.23717464435E+02  0.59772550000E+02  0.00000000000E+00 0. -1.
         -5    1    3    3    0  503  0.19420673198E+02 -0.24237067768E+02 -0.12885605245E+01  0.31438008679E+02  0.47000000000E+01 0.  1.
         11    1    4    4    0    0  0.51961939577E+02  0.92934909977E+01 -0.18480420282E+03  0.19219522762E+03  0.00000000000E+00 0. -1.
        -12    1    4    4    0    0  0.18703029912E+03 -0.15009667088E+01 -0.28551552335E+03  0.34132345329E+03  0.00000000000E+00 0.  1.
</event>
<event>
12    1  0.8226261E-002  0.2057910E+03  0.7818608E-02  0.1145676E+00
         21   -1    0    0  503  502  0.00000000000E+00  0.00000000000E+00  0.27697372443E+02  0.27697372443E+02  0.00000000000E+00 0. -1.
         21   -1    0    0  501  503 -0.00000000000E+00 -0.00000000000E+00 -0.15925175826E+04  0.15925175826E+04  0.00000000000E+00 0.  1.
          6    2    1    2  501    0 -0.91710091028E+01  0.10505232553E+03 -0.58344189569E+03  0.61749200485E+03  0.17254515902E+03 0.  0.
         24    2    3    3    0    0  0.54940514249E+02  0.47013967803E+02 -0.41839129941E+03  0.43109852930E+03  0.74604887718E+02 0.  0.
         -6    2    1    2    0  502  0.91710091028E+01 -0.10505232553E+03 -0.98137831452E+03  0.10027229502E+04  0.17671960908E+03 0.  0.
        -24    2    5    5    0    0 -0.41224577765E+02 -0.77225084885E+02 -0.86270505743E+03  0.87073998754E+03  0.79151312228E+02 0.  0.
          5    1    3    3  501    0 -0.64111523352E+02  0.58038357727E+02 -0.16505059628E+03  0.18639347554E+03  0.47000000000E+01 0. -1.
        -11    1    4    4    0    0  0.31730305222E+02  0.54977992056E+02 -0.38180109365E+03  0.38704194475E+03  0.00000000000E+00 0.  1.
         12    1    4    4    0    0  0.23210209027E+02 -0.79640242532E+01 -0.36590205760E+02  0.44056584558E+02  0.00000000000E+00 0. -1.
         -5    1    5    5    0  502  0.50395586868E+02 -0.27827240644E+02 -0.11867325708E+03  0.13198296270E+03  0.47000000000E+01 0.  1.
         11    1    6    6    0    0 -0.46431064474E+02 -0.76413766358E+02 -0.49586514884E+03  0.50386223640E+03  0.00000000000E+00 0. -1.
        -12    1    6    6    0    0  0.52064867082E+01 -0.81131852733E+00 -0.36683990860E+03  0.36687775114E+03  0.00000000000E+00 0.  1.
</event>
<event>
12    1  0.8226261E-002  0.2460465E+03  0.7818608E-02  0.1115839E+00
         21   -1    0    0  503  502  0.00000000000E+00  0.00000000000E+00  0.23956467243E+04  0.23956467243E+04  0.00000000000E+00 0.  1.
         21   -1    0    0  501  503 -0.00000000000E+00 -0.00000000000E+00 -0.12225198836E+03  0.12225198836E+03  0.00000000000E+00 0. -1.
          6    2    1    2  501    0  0.36973787117E+02 -0.17188785137E+03  0.15382133571E+02  0.24652684192E+03  0.17212315175E+03 0.  0.
         24    2    3    3    0    0 -0.47259498839E+02 -0.83692753268E+02 -0.13788153011E+01  0.12333333073E+03  0.77274006990E+02 0.  0.
         -6    2    1    2    0  502 -0.36973787117E+02  0.17188785137E+03  0.22580126024E+04  0.22713718708E+04  0.17203711324E+03 0.  0.
        -24    2    5    5    0    0 -0.58727875180E+01  0.40300522451E+02  0.50680635437E+03  0.51494711848E+03  0.81604119121E+02 0.  0.
          5    1    3    3  501    0  0.84233285956E+02 -0.88195098101E+02  0.16760948872E+02  0.12319351119E+03  0.47000000000E+01 0. -1.
        -13    1    4    4    0    0  0.17390441397E+02 -0.34036088870E+01  0.87345183879E+01  0.19756108345E+02  0.00000000000E+00 0.  1.
         14    1    4    4    0    0 -0.64649940236E+02 -0.80289144381E+02 -0.10113333689E+02  0.10357722238E+03  0.00000000000E+00 0. -1.
         -5    1    5    5    0  502 -0.31100999599E+02  0.13158732892E+03  0.17512062480E+04  0.17564247523E+04  0.47000000000E+01 0.  1.
         13    1    6    6    0    0  0.23854667666E+02  0.32839834735E+01  0.35670012816E+03  0.35751197343E+03  0.00000000000E+00 0. -1.
        -14    1    6    6    0    0 -0.29727455184E+02  0.37016538977E+02  0.15010622621E+03  0.15743514505E+03  0.00000000000E+00 0.  1.
</event>
<event>
12    1  0.8226261E-002  0.3848160E+03  0.7818608E-02  0.1049243E+00
         21   -1    0    0  503  502  0.00000000000E+00  0.00000000000E+00  0.57235115102E+03  0.57235115102E+03  0.00000000000E+00 0. -1.
         21   -1    0    0  501  503 -0.00000000000E+00 -0.00000000000E+00 -0.32472987116E+03  0.32472987116E+03  0.00000000000E+00 0.  1.
          6    2    1    2  501    0 -0.16319245509E+03 -0.30317701889E+03  0.32698245570E+03  0.50497611518E+03  0.17185827995E+03 0.  0.
         24    2    3    3    0    0 -0.18540897783E+03 -0.27502139986E+03  0.26102414156E+03  0.42975044157E+03  0.80861487182E+02 0.  0.
         -6    2    1    2    0  502  0.16319245509E+03  0.30317701889E+03 -0.79361175846E+02  0.39210490699E+03  0.16999994022E+03 0.  0.
        -24    2    5    5    0    0  0.50397739582E+02  0.62964035774E+02 -0.11214835526E+01  0.11539483389E+03  0.82524590325E+02 0.  0.
          5    1    3    3  501    0  0.22216522745E+02 -0.28155619027E+02  0.65958314144E+02  0.75225673612E+02  0.47000000000E+01 0. -1.
        -11    1    4    4    0    0 -0.11072859808E+03 -0.92848785144E+02  0.10922859775E+03  0.18114250165E+03  0.00000000000E+00 0.  1.
         12    1    4    4    0    0 -0.74680379752E+02 -0.18217261472E+03  0.15179554381E+03  0.24860793993E+03  0.00000000000E+00 0. -1.
         -5    1    5    5    0  502  0.11279471551E+03  0.24021298312E+03 -0.78239692293E+02  0.27671007310E+03  0.47000000000E+01 0.  1.
         13    1    6    6    0    0  0.64762420378E+02  0.32317218479E+02  0.20508338114E+02  0.75227426087E+02  0.00000000000E+00 0. -1.
        -14    1    6    6    0    0 -0.14364680796E+02  0.30646817295E+02 -0.21629821666E+02  0.40167407808E+02  0.00000000000E+00 0.  1.
</event>
<event>
12    1  0.8226261E-002  0.2061101E+03  0.7818608E-02  0.1144804E+00
         21   -1    0    0  501  502  0.00000000000E+00  0.00000000000E+00  0.79197894320E+02  0.79197894320E+02  0.00000000000E+00 0. -1.
         21   -1    0    0  502  503 -0.00000000000E+00 -0.00000000000E+00 -0.54045256018E+03  0.54045256018E+03  0.00000000000E+00 0. -1.
         -6    2    1    2    0  503  0.98388577832E+02 -0.53689263966E+02 -0.19943756992E+03  0.28680429311E+03  0.17296967635E+03 0.  0.
        -24    2    3    3    0    0  0.13722613997E+03 -0.38968886937E+02 -0.17653874450E+03  0.23914412170E+03  0.75328580197E+02 0.  0.
          6    2    1    2  501    0 -0.98388577832E+02  0.53689263966E+02 -0.26181709593E+03  0.33284616139E+03  0.17226585882E+03 0.  0.
         24    2    5    5    0    0 -0.24440031027E+02  0.33189320101E+02 -0.40187097590E+02  0.98260182610E+02  0.79631743599E+02 0.  0.
          5    1    5    5  501    0 -0.73948546805E+02  0.20499943865E+02 -0.22162999834E+03  0.23458597878E+03  0.47000000000E+01 0. -1.
        -13    1    6    6    0    0 -0.37248858361E+02  0.53725595934E+02 -0.31241545705E+02  0.72456547570E+02  0.00000000000E+00 0.  1.
         14    1    6    6    0    0  0.12808827334E+02 -0.20536275833E+02 -0.89455518858E+01  0.25803635041E+02  0.00000000000E+00 0. -1.
         -5    1    3    3    0  503 -0.38837562140E+02 -0.14720377029E+02 -0.22898825422E+02  0.47660171407E+02  0.47000000000E+01 0.  1.
         11    1    4    4    0    0  0.37494569006E+02 -0.46500519523E+02 -0.50328463412E+02  0.78109508066E+02  0.00000000000E+00 0. -1.
        -12    1    4    4    0    0  0.99731570966E+02  0.75316325863E+01 -0.12621028109E+03  0.16103461364E+03  0.00000000000E+00 0.  1.
</event>
<event>
12    1  0.8226261E-002  0.2049120E+03  0.7818608E-02  0.1146051E+00
         21   -1    0    0  503  502  0.00000000000E+00  0.00000000000E+00  0.94093537259E+02  0.94093537259E+02  0.00000000000E+00 0.  1.
         21   -1    0    0  501  503 -0.00000000000E+00 -0.00000000000E+00 -0.50274645691E+03  0.50274645691E+03  0.00000000000E+00 0. -1.
          6    2    1    2  501    0 -0.10566249824E+03 -0.23138562638E+02 -0.30712973171E+03  0.36815707606E+03  0.17178767110E+03 0.  0.
         24    2    3    3    0    0 -0.19834153339E+02 -0.36896100273E+02 -0.24562076645E+03  0.26156806426E+03  0.79583763885E+02 0.  0.
         -6    2    1    2    0  502  0.10566249824E+03  0.23138562638E+02 -0.10152318794E+03  0.22868291810E+03  0.17403724523E+03 0.  0.
        -24    2    5    5    0    0  0.85177387322E+02 -0.35784141229E+02 -0.19242521992E+02  0.12532082259E+03  0.82458121774E+02 0.  0.
          5    1    3    3  501    0 -0.85828344902E+02  0.13757537634E+02 -0.61508965253E+02  0.10658901180E+03  0.47000000000E+01 0. -1.
        -13    1    4    4    0    0  0.13472190155E+01  0.24163397622E+02 -0.86538883527E+02  0.89859129452E+02  0.00000000000E+00 0.  1.
         14    1    4    4    0    0 -0.21181372355E+02 -0.61059497895E+02 -0.15908188293E+03  0.17170893481E+03  0.00000000000E+00 0. -1.
         -5    1    5    5    0  502  0.20485110920E+02  0.58922703868E+02 -0.82280665948E+02  0.10336209552E+03  0.47000000000E+01 0.  1.
         13    1    6    6    0    0 -0.57500445240E+01  0.17230836076E+02  0.77005373314E+00  0.18181246015E+02  0.00000000000E+00 0. -1.
        -14    1    6    6    0    0  0.90927431846E+02 -0.53014977305E+02 -0.20012575725E+02  0.10713957657E+03  0.00000000000E+00 0.  1.
</event>
<event>
12    1  0.8226261E-002  0.1872700E+03  0.7818608E-02  0.1161106E+00
         21   -1    0    0  501  502  0.00000000000E+00  0.00000000000E+00  0.15890807797E+02  0.15890807797E+02  0.00000000000E+00 0.  1.
         21   -1    0    0  502  503 -0.00000000000E+00 -0.00000000000E+00 -0.28047729563E+04  0.28047729563E+04  0.00000000000E+00 0.  1.
         -6    2    1    2    0  503  0.61827790076E+02 -0.40312027410E+02 -0.20519986717E+04  0.20605262923E+04  0.17211135127E+03 0.  0.
        -24    2    3    3    0    0  0.14476817793E+02  0.31955198458E+02 -0.62826920365E+03  0.63416997117E+03  0.78858399134E+02 0.  0.
          6    2    1    2  501    0 -0.61827790076E+02  0.40312027410E+02 -0.73688347680E+03  0.76013747184E+03  0.17135922074E+03 0.  0.
         24    2    5    5    0    0 -0.18553375606E+02  0.89316658382E+02 -0.50002360933E+03  0.51437576688E+03  0.78975480113E+02 0.  0.
          5    1    5    5  501    0 -0.43274414470E+02 -0.49004630972E+02 -0.23685986747E+03  0.24576170496E+03  0.47000000000E+01 0. -1.
        -11    1    6    6    0    0 -0.32282465875E+02  0.61839173841E+02 -0.18262928784E+03  0.19549858772E+03  0.00000000000E+00 0.  1.
         12    1    6    6    0    0  0.13729090268E+02  0.27477484541E+02 -0.31739432149E+03  0.31887717916E+03  0.00000000000E+00 0. -1.
         -5    1    3    3    0  503  0.47350972283E+02 -0.72267225868E+02 -0.14237294681E+04  0.14263563211E+04  0.47000000000E+01 0.  1.
         13    1    4    4    0    0 -0.20850814565E+02 -0.10147299718E+02 -0.33456540054E+03  0.33536805364E+03  0.00000000000E+00 0. -1.
        -14    1    4    4    0    0  0.35327632358E+02  0.42102498176E+02 -0.29370380311E+03  0.29880191753E+03  0.00000000000E+00 0.  1.
</event>
<event>
12    1  0.8226261E-002  0.2263822E+03  0.7818608E-02  0.1129458E+00
         21   -1    0    0  503  502  0.00000000000E+00  0.00000000000E+00  0.51018519091E+02  0.51018519091E+02  0.00000000000E+00 0. -1.
         21   -1    0    0  501  503 -0.00000000000E+00 -0.00000000000E+00 -0.17354203142E+04  0.17354203142E+04  0.00000000000E+00 0.  1.
          6    2    1    2  501    0  0.14417059547E+03  0.22874396740E+02 -0.14257301263E+04  0.14435911104E+04  0.17303324060E+03 0.  0.
         24    2    3    3    0    0  0.61374063914E+02 -0.19407608622E+01 -0.11521528656E+04  0.11566457057E+04  0.81255895864E+02 0.  0.
         -6    2    1    2    0  502 -0.14417059547E+03 -0.22874396740E+02 -0.25867166876E+03  0.34284772285E+03  0.17124581810E+03 0.  0.
        -24    2    5    5    0    0 -0.99067938865E+02 -0.21718519068E+02 -0.65081028516E+02  0.14401359178E+03  0.78855714844E+02 0.  0.
          5    1    3    3  501    0  0.82796531557E+02  0.24815157602E+02 -0.27357726074E+03  0.28694540470E+03  0.47000000000E+01 0. -1.
        -11    1    4    4    0    0  0.61089857600E+02 -0.67319350582E+01 -0.41960541448E+03  0.42408253148E+03  0.00000000000E+00 0.  1.
         12    1    4    4    0    0  0.28420631350E+00  0.47911741959E+01 -0.73254745111E+03  0.73256317424E+03  0.00000000000E+00 0. -1.
         -5    1    5    5    0  502 -0.45102656606E+02 -0.11558776719E+01 -0.19359064025E+03  0.19883413107E+03  0.47000000000E+01 0.  1.
         11    1    6    6    0    0 -0.54824673322E+02 -0.47502253389E+02 -0.56816360154E+02  0.92142865503E+02  0.00000000000E+00 0. -1.
        -12    1    6    6    0    0 -0.44243265544E+02  0.25783734321E+02 -0.82646683615E+01  0.51870726278E+02  0.00000000000E+00 0.  1.
</event>
<event>
12    1  0.8226261E-002  0.3258515E+03  0.7818608E-02  0.1073138E+00
         21   -1    0    0  501  502  0.00000000000E+00  0.00000000000E+00  0.12650916506E+03  0.12650916506E+03  0.00000000000E+00 0. -1.
         21   -1    0    0  502  503 -0.00000000000E+00 -0.00000000000E+00 -0.98398136022E+03  0.98398136022E+03  0.00000000000E+00 0. -1.
         -6    2    1    2    0  503 -0.20929599771E+03 -0.17855749009E+03 -0.64341178375E+03  0.72061738927E+03  0.17211364363E+03 0.  0.
        -24    2    3    3    0    0 -0.12821351200E+03 -0.12205330863E+03 -0.25912011296E+03  0.32379341035E+03  0.79769824086E+02 0.  0.
          6    2    1    2  501    0  0.20929599771E+03  0.17855749009E+03 -0.21406041141E+03  0.38987313601E+03  0.17461847132E+03 0.  0.
         24    2    5    5    0    0  0.17212603258E+02  0.54214044313E+02 -0.61165291602E+02  0.11463445669E+03  0.78513880638E+02 0.  0.
          5    1    5    5  501    0  0.19208339445E+03  0.12434344578E+03 -0.15289511981E+03  0.27523867932E+03  0.47000000000E+01 0. -1.
        -11    1    6    6    0    0  0.24936025612E+02  0.72729441447E+02 -0.48000617830E+02  0.90639044228E+02  0.00000000000E+00 0.  1.
         12    1    6    6    0    0 -0.77234223541E+01 -0.18515397133E+02 -0.13164673773E+02  0.23995412466E+02  0.00000000000E+00 0. -1.
         -5    1    3    3    0  503 -0.81082485707E+02 -0.56504181457E+02 -0.38429167079E+03  0.39682397892E+03  0.47000000000E+01 0.  1.
         13    1    4    4    0    0 -0.83688413503E+02 -0.84537165526E+02 -0.22943590558E+03  0.25843977573E+03  0.00000000000E+00 0. -1.
        -14    1    4    4    0    0 -0.44525098498E+02 -0.37516143107E+02 -0.29684207383E+02  0.65353634619E+02  0.00000000000E+00 0.  1.
</event>
<event>
12    1  0.8226261E-002  0.2258265E+03  0.7818608E-02  0.1129735E+00
         21   -1    0    0  503  502  0.00000000000E+00  0.00000000000E+00  0.14070443391E+03  0.14070443391E+03  0.00000000000E+00 0. -1.
         21   -1    0    0  501  503 -0.00000000000E+00 -0.00000000000E+00 -0.38643507811E+03  0.38643507811E+03  0.00000000000E+00 0.  1.
          6    2    1    2  501    0  0.12061110912E+03 -0.83265151329E+02 -0.55538799069E+02  0.23189294881E+03  0.17090832759E+03 0.  0.
         24    2    3    3    0    0  0.55215170046E+02 -0.74570665949E+02 -0.95247623067E+02  0.15474955230E+03  0.79156901231E+02 0.  0.
         -6    2    1    2    0  502 -0.12061110912E+03  0.83265151329E+02 -0.19019184513E+03  0.29524656321E+03  0.17180649017E+03 0.  0.
        -24    2    5    5    0    0  0.71730072934E+01  0.32972800032E+02 -0.59360289896E+02  0.10551758058E+03  0.80446617201E+02 0.  0.
          5    1    3    3  501    0  0.65395939070E+02 -0.86944853802E+01  0.39708823998E+02  0.77143396517E+02  0.47000000000E+01 0. -1.
        -11    1    4    4    0    0  0.43756652412E+02 -0.65298482220E+02 -0.24281275024E+02  0.82268564636E+02  0.00000000000E+00 0.  1.
         12    1    4    4    0    0  0.11458517634E+02 -0.92721837296E+01 -0.70966348043E+02  0.72480987659E+02  0.00000000000E+00 0. -1.
         -5    1    5    5    0  502 -0.12778411641E+03  0.50292351298E+02 -0.13083155523E+03  0.18972898263E+03  0.47000000000E+01 0.  1.
         13    1    6    6    0    0 -0.35883319105E+02  0.10305455153E+02 -0.17076732558E+02  0.41053986295E+02  0.00000000000E+00 0. -1.
        -14    1    6    6    0    0  0.43056326398E+02  0.22667344878E+02 -0.42283557338E+02  0.64463594283E+02  0.00000000000E+00 0.  1.
</event>
<event>
12    1  0.8226261E-002  0.2251862E+03  0.7818608E-02  0.1130127E+00
         21   -1    0    0  503  502  0.00000000000E+00  0.00000000000E+00  0.20174920898E+03  0.20174920898E+03  0.00000000000E+00 0. -1.
         21   -1    0    0  501  503 -0.00000000000E+00 -0.00000000000E+00 -0.10557080182E+04  0.10557080182E+04  0.00000000000E+00 0. -1.
          6    2    1    2  501    0 -0.12919179251E+03 -0.66070935316E+02 -0.97595758741E+03  0.10015997361E+04  0.17220026454E+03 0.  0.
         24    2    3    3    0    0 -0.35768506212E+02  0.25448440096E+02 -0.48414291398E+03  0.49267197154E+03  0.80026878256E+02 0.  0.
         -6    2    1    2    0  502  0.12919179251E+03  0.66070935316E+02  0.12199877817E+03  0.25585749114E+03  0.17182393940E+03 0.  0.
        -24    2    5    5    0    0  0.12250366545E+03  0.10666590570E+03  0.11044342679E+03  0.21286564529E+03  0.82032121343E+02 0.  0.
          5    1    3    3  501    0 -0.93423286299E+02 -0.91519375412E+02 -0.49181467343E+03  0.50892776452E+03  0.47000000000E+01 0. -1.
        -13    1    4    4    0    0 -0.56352751633E+02  0.19721335249E+02 -0.43509710135E+03  0.43917428350E+03  0.00000000000E+00 0.  1.
         14    1    4    4    0    0  0.20584245421E+02  0.57271048478E+01 -0.49045812629E+02  0.53497688043E+02  0.00000000000E+00 0. -1.
         -5    1    5    5    0  502  0.66881270577E+01 -0.40594970389E+02  0.11555351378E+02  0.42991845854E+02  0.47000000000E+01 0.  1.
         11    1    6    6    0    0  0.40537892951E+02  0.79196807036E+02  0.27647680387E+02  0.93165708500E+02  0.00000000000E+00 0. -1.
        -12    1    6    6    0    0  0.81965772502E+02  0.27469098669E+02  0.82795746407E+02  0.11969993679E+03  0.00000000000E+00 0.  1.
</event>
<event>
12    1  0.8226261E-002  0.1980198E+03  0.7818608E-02  0.1151637E+00
         21   -1    0    0  501  502  0.00000000000E+00  0.00000000000E+00  0.20326259169E+03  0.20326259169E+03  0.00000000000E+00 0.  1.
         21   -1    0    0  502  503 -0.00000000000E+00 -0.00000000000E+00 -0.19194950500E+03  0.19194950500E+03  0.00000000000E+00 0.  1.
         -6    2    1    2    0  503 -0.46625990566E+00 -0.96170348237E+02  0.36431760638E+01  0.19704377636E+03  0.17194191983E+03 0.  0.
        -24    2    3    3    0    0 -0.23115971705E+02 -0.44955841552E+02  0.61438263750E+02  0.11643175927E+03  0.85007755388E+02 0.  0.
          6    2    1    2  501    0  0.46625990566E+00  0.96170348237E+02  0.76699106338E+01  0.19816832033E+03  0.17309795601E+03 0.  0.
         24    2    5    5    0    0 -0.42078892093E+02  0.70108323330E+02 -0.45144257405E+02  0.12536210187E+03  0.83617237741E+02 0.  0.
          5    1    5    5  501    0  0.42545151999E+02  0.26062024907E+02  0.52814168039E+02  0.72806218461E+02  0.47000000000E+01 0. -1.
        -13    1    6    6    0    0 -0.36203187990E+00  0.59752610691E+02  0.42254416820E+01  0.59902920704E+02  0.00000000000E+00 0.  1.
         14    1    6    6    0    0 -0.41716860213E+02  0.10355712639E+02 -0.49369699087E+02  0.65459181161E+02  0.00000000000E+00 0. -1.
         -5    1    3    3    0  503  0.22649711799E+02 -0.51214506685E+02 -0.57795087686E+02  0.80612017095E+02  0.47000000000E+01 0.  1.
         13    1    4    4    0    0  0.13215827386E+02  0.17922228947E+02  0.29845571765E+02  0.37237380921E+02  0.00000000000E+00 0. -1.
        -14    1    4    4    0    0 -0.36331799091E+02 -0.62878070499E+02  0.31592691985E+02  0.79194378347E+02  0.00000000000E+00 0.  1.
</event>
<event>
12    1  0.8226261E-002  0.1818474E+03  0.7818608E-02  0.1166349E+00
         21   -1    0    0  501  502  0.00000000000E+00  0.00000000000E+00  0.25949981965E+03  0.25949981965E+03  0.00000000000E+00 0. -1.
         21   -1    0    0  502  503 -0.00000000000E+00 -0.00000000000E+00 -0.12934013394E+03  0.12934013394E+03  0.00000000000E+00 0. -1.
         -6    2    1    2    0  503 -0.56788189079E+02 -0.46114387949E+01  0.36469727846E+02  0.18546834195E+03  0.17269134613E+03 0.  0.
        -24    2    3    3    0    0 -0.68740782841E+02  0.78647655496E+01 -0.35238861324E+02  0.11155804542E+03  0.80101625369E+02 0.  0.
          6    2    1    2  501    0  0.56788189079E+02  0.46114387949E+01  0.93689957865E+02  0.20337161164E+03  0.17127767055E+03 0.  0.
         24    2    5    5    0    0 -0.12231956428E+02  0.38198236802E+02  0.90241147555E+02  0.12639214828E+03  0.78884627039E+02 0.  0.
          5    1    5    5  501    0  0.69020145507E+02 -0.33586798007E+02  0.34488103103E+01  0.76979463357E+02  0.47000000000E+01 0. -1.
        -11    1    6    6    0    0 -0.97961410101E+01 -0.21832233448E+02  0.94896051713E+01  0.25742249364E+02  0.00000000000E+00 0.  1.
         12    1    6    6    0    0 -0.24358154181E+01  0.60030470251E+02  0.80751542383E+02  0.10064989892E+03  0.00000000000E+00 0. -1.
         -5    1    3    3    0  503  0.11952593762E+02 -0.12476204345E+02  0.71708589170E+02  0.73910296531E+02  0.47000000000E+01 0.  1.
         13    1    4    4    0    0 -0.29359601015E+02  0.66372303872E+01  0.25304087022E+02  0.39323476690E+02  0.00000000000E+00 0. -1.
        -14    1    4    4    0    0 -0.39381181826E+02  0.12275351625E+01 -0.60542948346E+02  0.72234568725E+02  0.00000000000E+00 0.  1.
</event>
<event>
12    1  0.8226261E-002  0.2079751E+03  0.7818608E-02  0.1143463E+00
         21   -1    0    0  501  502  0.00000000000E+00  0.00000000000E+00  0.22733622103E+03  0.22733622103E+03  0.00000000000E+00 0.  1.
         21   -1    0    0  502  503 -0.00000000000E+00 -0.00000000000E+00 -0.65598509503E+03  0.65598509503E+03  0.00000000000E+00 0. -1.
         -6    2    1    2    0  503 -0.94044401769E+02  0.64214910270E+02 -0.58718726576E+03  0.62293059124E+03  0.17402796392E+03 0.  0.
        -24    2    3    3    0    0 -0.11301472659E+03  0.62016437328E+02 -0.30990453396E+03  0.34495125772E+03  0.79575015628E+02 0.  0.
          6    2    1    2  501    0  0.94044401769E+02 -0.64214910270E+02  0.15853839176E+03  0.26039072482E+03  0.17233979141E+03 0.  0.
         24    2    5    5    0    0  0.10272343976E+03 -0.93322237344E+02  0.16402509703E+03  0.22916964020E+03  0.79707882141E+02 0.  0.
          5    1    5    5  501    0 -0.86790379940E+01  0.29107327073E+02 -0.54867052702E+01  0.31221084616E+02  0.47000000000E+01 0. -1.
        -11    1    6    6    0    0  0.40083214137E+02 -0.70591314874E+02  0.13264503849E+03  0.15551367794E+03  0.00000000000E+00 0.  1.
         12    1    6    6    0    0  0.62640225626E+02 -0.22730922470E+02  0.31380058544E+02  0.73655962263E+02  0.00000000000E+00 0. -1.
         -5    1    3    3    0  503  0.18970324819E+02  0.21984729424E+01 -0.27728273180E+03  0.27797933351E+03  0.47000000000E+01 0.  1.
         11    1    4    4    0    0 -0.11047744131E+03  0.66755260938E+02 -0.31312371800E+03  0.33868568419E+03  0.00000000000E+00 0. -1.
        -12    1    4    4    0    0 -0.25372852825E+01 -0.47388236107E+01  0.32191840416E+01  0.62655735341E+01  0.00000000000E+00 0.  1.
</event>
<event>
12    1  0.8226261E-002  0.1922876E+03  0.7818608E-02  0.1156504E+00
         21   -1    0    0  501  502  0.00000000000E+00  0.00000000000E+00  0.47112731089E+03  0.47112731089E+03  0.00000000000E+00 0. -1.
         21   -1    0    0  502  503 -0.00000000000E+00 -0.00000000000E+00 -0.18973744595E+03  0.18973744595E+03  0.00000000000E+00 0. -1.
         -6    2    1    2    0  503  0.77376676911E+02 -0.36174617095E+02 -0.11246014060E+03  0.22275953188E+03  0.17227528194E+03 0.  0.
        -24    2    3    3    0    0  0.65991985264E+02 -0.89089184611E+02 -0.92678700714E+02  0.16494121278E+03  0.79526330063E+02 0.  0.
          6    2    1    2  501    0 -0.77376676911E+02  0.36174617095E+02  0.39385000554E+03  0.43810522496E+03  0.17182144283E+03 0.  0.
         24    2    5    5    0    0 -0.64493858162E+02  0.80576085443E+02  0.20081236283E+03  0.23955276611E+03  0.80049730789E+02 0.  0.
          5    1    5    5  501    0 -0.12882818750E+02 -0.44401468348E+02  0.19303764272E+03  0.19855245885E+03  0.47000000000E+01 0. -1.
        -11    1    6    6    0    0  0.13244677279E+02  0.34000532758E+02  0.84977225192E+02  0.92480195207E+02  0.00000000000E+00 0.  1.
         12    1    6    6    0    0 -0.77738535441E+02  0.46575552685E+02  0.11583513763E+03  0.14707257090E+03  0.00000000000E+00 0. -1.
         -5    1    3    3    0  503  0.11384691648E+02  0.52914567517E+02 -0.19781439888E+02  0.57818319099E+02  0.47000000000E+01 0.  1.
         13    1    4    4    0    0 -0.11398111472E+01 -0.61738247709E+02 -0.57464554077E+02  0.84350965465E+02  0.00000000000E+00 0. -1.
        -14    1    4    4    0    0  0.67131796411E+02 -0.27350936903E+02 -0.35214146638E+02  0.80590247315E+02  0.00000000000E+00 0.  1.
</event>
<event>
12    1  0.8226261E-002  0.1974717E+03  0.7818608E-02  0.1154506E+00
         21   -1    0    0  503  502  0.00000000000E+00  0.00000000000E+00  0.22109427011E+03  0.22109427011E+03  0.00000000000E+00 0. -1.
         21   -1    0    0  501  503 -0.00000000000E+00 -0.00000000000E+00 -0.54817053028E+03  0.54817053028E+03  0.00000000000E+00 0. -1.
          6    2    1    2  501    0 -0.67687372208E+02 -0.43493471626E+02 -0.48617908408E+03  0.52475248824E+03  0.18033804282E+03 0.  0.
         24    2    3    3    0    0 -0.97961273018E+02 -0.37452049325E+02 -0.47270602642E+03  0.49074335511E+03  0.79868555514E+02 0.  0.
         -6    2    1    2    0  502  0.67687372208E+02  0.43493471626E+02  0.15910282390E+03  0.24451231215E+03  0.16732991301E+03 0.  0.
        -24    2    5    5    0    0 -0.11891071387E+01  0.68278523343E+02  0.73634625246E+02  0.13188384693E+03  0.85486375052E+02 0.  0.
          5    1    3    3  501    0  0.30273900810E+02 -0.60414223009E+01 -0.13473057662E+02  0.34009133133E+02  0.47000000000E+01 0. -1.
        -11    1    4    4    0    0 -0.77633932373E+02 -0.53050798097E+02 -0.43571190819E+03  0.44574239373E+03  0.00000000000E+00 0.  1.
         12    1    4    4    0    0 -0.20327340645E+02  0.15598748771E+02 -0.36994118228E+02  0.45000961372E+02  0.00000000000E+00 0. -1.
         -5    1    5    5    0  502  0.68876479346E+02 -0.24785051717E+02  0.85468198659E+02  0.11262846522E+03  0.47000000000E+01 0.  1.
         13    1    6    6    0    0 -0.24114701302E+02 -0.94709417316E+01  0.30650332795E+02  0.40133034481E+02  0.00000000000E+00 0. -1.
        -14    1    6    6    0    0  0.22925594163E+02  0.77749465075E+02  0.42984292451E+02  0.91750812447E+02  0.00000000000E+00 0.  1.
</event>
<event>
12    1  0.8226261E-002  0.1807694E+03  0.7818608E-02  0.1168501E+00
         21   -1    0    0  501  502  0.00000000000E+00  0.00000000000E+00  0.40124038064E+03  0.40124038064E+03  0.00000000000E+00 0. -1.
         21   -1    0    0  502  503 -0.00000000000E+00 -0.00000000000E+00 -0.92334602951E+02  0.92334602951E+02  0.00000000000E+00 0. -1.
         -6    2    1    2    0  503 -0.47617126492E+02  0.18807931112E+02  0.62203869091E+02  0.19117246834E+03  0.17336799680E+03 0.  0.
        -24    2    3    3    0    0 -0.93825482442E+02  0.60870780945E+01  0.69876501388E+02  0.14240781365E+03  0.80975220074E+02 0.  0.
          6    2    1    2  501    0  0.47617126492E+02 -0.18807931112E+02  0.24670190860E+03  0.30240251525E+03  0.16722535847E+03 0.  0.
         24    2    5    5    0    0  0.44150619625E+01 -0.66114493727E+02  0.19147818037E+03  0.21769077223E+03  0.79591203680E+02 0.  0.
          5    1    5    5  501    0  0.43202064529E+02  0.47306562614E+02  0.55223728228E+02  0.84711743019E+02  0.47000000000E+01 0. -1.
        -13    1    6    6    0    0 -0.29595705155E+02 -0.20771434630E+01  0.72824790340E+02  0.78636317161E+02  0.00000000000E+00 0.  1.
         14    1    6    6    0    0  0.34010767118E+02 -0.64037350264E+02  0.11865339003E+03  0.13905445507E+03  0.00000000000E+00 0. -1.
         -5    1    3    3    0  503  0.46208355950E+02  0.12720853018E+02 -0.76726322978E+01  0.48764654695E+02  0.47000000000E+01 0.  1.
         11    1    4    4    0    0 -0.54433295297E+02  0.23053309131E+02 -0.15035691062E+01  0.59132896250E+02  0.00000000000E+00 0. -1.
        -12    1    4    4    0    0 -0.39392187145E+02 -0.16966231036E+02  0.71380070495E+02  0.83274917397E+02  0.00000000000E+00 0.  1.
</event>
<event>
12    1  0.8226261E-002  0.2006376E+03  0.7818608E-02  0.1150911E+00
         21   -1    0    0  503  502  0.00000000000E+00  0.00000000000E+00  0.70486381225E+02  0.70486381225E+02  0.00000000000E+00 0.  1.
         21   -1    0    0  501  503 -0.00000000000E+00 -0.00000000000E+00 -0.56835157735E+03  0.56835157735E+03  0.00000000000E+00 0. -1.
          6    2    1    2  501    0  0.99981160023E+02  0.23921613367E+02 -0.18463850106E+03  0.26686160981E+03  0.16295786810E+03 0.  0.
         24    2    3    3    0    0  0.10390207305E+03  0.50218274190E+02 -0.19282962534E+03  0.23864685398E+03  0.80321483172E+02 0.  0.
         -6    2    1    2    0  502 -0.99981160023E+02 -0.23921613367E+02 -0.31322669506E+03  0.37197634876E+03  0.17229905858E+03 0.  0.
        -24    2    5    5    0    0 -0.22104907124E+02 -0.65451557744E+02 -0.21705094983E+03  0.24135739524E+03  0.79810676522E+02 0.  0.
          5    1    3    3  501    0 -0.39209130275E+01 -0.26296660824E+02  0.81911242884E+01  0.28214755830E+02  0.47000000000E+01 0. -1.
        -11    1    4    4    0    0  0.33717231460E+02  0.24854329824E+02 -0.12859232133E+02  0.43817225601E+02  0.00000000000E+00 0.  1.
         12    1    4    4    0    0  0.70184841591E+02  0.25363944366E+02 -0.17997039321E+03  0.19482962838E+03  0.00000000000E+00 0. -1.
         -5    1    5    5    0  502 -0.77876252899E+02  0.41529944377E+02 -0.96175745237E+02  0.13061895352E+03  0.47000000000E+01 0.  1.
         11    1    6    6    0    0  0.29238373168E+02 -0.23333410747E+02 -0.58213455309E+02  0.69196364801E+02  0.00000000000E+00 0. -1.
        -12    1    6    6    0    0 -0.51343280292E+02 -0.42118146996E+02 -0.15883749452E+03  0.17216103044E+03  0.00000000000E+00 0.  1.
</event>
<event>
12    1  0.8226261E-002  0.1829278E+03  0.7818608E-02  0.1165696E+00
         21   -1    0    0  501  502  0.00000000000E+00  0.00000000000E+00  0.94967611037E+02  0.94967611037E+02  0.00000000000E+00 0. -1.
         21   -1    0    0  502  503 -0.00000000000E+00 -0.00000000000E+00 -0.89495861894E+03  0.89495861894E+03  0.00000000000E+00 0.  1.
         -6    2    1    2    0  503 -0.41481573086E+02 -0.48019188976E+02 -0.78612680225E+03  0.80647379997E+03  0.16845793956E+03 0.  0.
        -24    2    3    3    0    0 -0.50085059823E+02 -0.77104501088E+02 -0.74616369803E+03  0.75608416747E+03  0.80308073871E+02 0.  0.
          6    2    1    2  501    0  0.41481573086E+02  0.48019188976E+02 -0.13864205649E+02  0.18345243001E+03  0.17156927015E+03 0.  0.
         24    2    5    5    0    0  0.52159382140E+02 -0.32563998849E+02 -0.10760995978E+02  0.10197000444E+03  0.80629198211E+02 0.  0.
          5    1    5    5  501    0 -0.10677809054E+02  0.80583187826E+02 -0.31032096701E+01  0.81482425569E+02  0.47000000000E+01 0. -1.
        -13    1    6    6    0    0  0.28336691026E+02 -0.12027976687E+02 -0.45609956225E+02  0.55026433541E+02  0.00000000000E+00 0.  1.
         14    1    6    6    0    0  0.23822691114E+02 -0.20536022163E+02  0.34848960246E+02  0.46943570896E+02  0.00000000000E+00 0. -1.
         -5    1    3    3    0  503  0.86034867364E+01  0.29085312112E+02 -0.39963104221E+02  0.50389632502E+02  0.47000000000E+01 0.  1.
         13    1    4    4    0    0  0.21431544900E+02 -0.11428606243E+02 -0.18409170193E+03  0.18568704553E+03  0.00000000000E+00 0. -1.
        -14    1    4    4    0    0 -0.71516604723E+02 -0.65675894846E+02 -0.56207199610E+03  0.57039712194E+03  0.00000000000E+00 0.  1.
</event>
<event>
12    1  0.8226261E-002  0.2234140E+03  0.7818608E-02  0.1131391E+00
         21   -1    0    0  501  502  0.00000000000E+00  0.00000000000E+00  0.12804119206E+03  0.12804119206E+03  0.00000000000E+00 0. -1.
         21   -1    0    0  502  503 -0.00000000000E+00 -0.00000000000E+00 -0.52207432013E+03  0.52207432013E+03  0.00000000000E+00 0.  1.
         -6    2    1    2    0  503 -0.11678326617E+03 -0.81036242065E+02 -0.36073441915E+03  0.42423366486E+03  0.17216177698E+03 0.  0.
        -24    2    3    3    0    0 -0.32256228420E+01 -0.80232225490E+02 -0.18142049781E+03  0.21193303559E+03  0.74529188239E+02 0.  0.
          6    2    1    2  501    0  0.11678326617E+03  0.81036242065E+02 -0.33298708924E+02  0.22588184733E+03  0.17236183207E+03 0.  0.
         24    2    5    5    0    0  0.99288033375E+02  0.99379552384E+02 -0.74354644562E+02  0.17740257284E+03  0.78794991465E+02 0.  0.
          5    1    5    5  501    0  0.17495232793E+02 -0.18343310319E+02  0.41055935638E+02  0.48479274489E+02  0.47000000000E+01 0. -1.
        -11    1    6    6    0    0 -0.11201539676E+02  0.18715739548E+02 -0.21844347390E+02  0.30869546657E+02  0.00000000000E+00 0.  1.
         12    1    6    6    0    0  0.11048957305E+03  0.80663812836E+02 -0.52510297172E+02  0.14653302619E+03  0.00000000000E+00 0. -1.
         -5    1    3    3    0  503 -0.11355764333E+03 -0.80401657495E+00 -0.17931392133E+03  0.21230062926E+03  0.47000000000E+01 0.  1.
         11    1    4    4    0    0  0.22330148581E+02 -0.17523812954E+01 -0.68467418095E+02  0.72038140707E+02  0.00000000000E+00 0. -1.
        -12    1    4    4    0    0 -0.25555771423E+02 -0.78479844194E+02 -0.11295307972E+03  0.13989489489E+03  0.00000000000E+00 0.  1.
</event>
<event>
12    1  0.8226261E-002  0.1934960E+03  0.7818608E-02  0.1155502E+00
         21   -1    0    0  501  502  0.00000000000E+00  0.00000000000E+00  0.10370368531E+04  0.10370368531E+04  0.00000000000E+00 0. -1.
         21   -1    0    0  502  503 -0.00000000000E+00 -0.00000000000E+00 -0.26127428491E+03  0.26127428491E+03  0.00000000000E+00 0. -1.
         -6    2    1    2    0  503 -0.86569455755E+02  0.53429344516E+01 -0.21503200560E+03  0.28879908534E+03  0.17217238641E+03 0.  0.
        -24    2    3    3    0    0 -0.35649627225E+02  0.69779344059E+02 -0.11297689450E+03  0.15771813508E+03  0.77273402041E+02 0.  0.
          6    2    1    2  501    0  0.86569455755E+02 -0.53429344516E+01  0.99079457375E+03  0.10095120526E+04  0.17296785662E+03 0.  0.
         24    2    5    5    0    0  0.97171327272E+01  0.26167305870E+02  0.23302441686E+03  0.24718871213E+03  0.77606249674E+02 0.  0.
          5    1    5    5  501    0  0.76852323027E+02 -0.31510240321E+02  0.75777015689E+03  0.76232334050E+03  0.47000000000E+01 0. -1.
        -11    1    6    6    0    0 -0.22070523326E+02 -0.16980700200E+02  0.62064793785E+02  0.68025662854E+02  0.00000000000E+00 0.  1.
         12    1    6    6    0    0  0.31787656053E+02  0.43148006070E+02  0.17095962308E+03  0.17916304928E+03  0.00000000000E+00 0. -1.
         -5    1    3    3    0  503 -0.50919828530E+02 -0.64436409607E+02 -0.10205511110E+03  0.13108095026E+03  0.47000000000E+01 0.  1.
         11    1    4    4    0    0 -0.12057386986E+02 -0.16581245263E+02 -0.22356739221E+02  0.30333843541E+02  0.00000000000E+00 0. -1.
        -12    1    4    4    0    0 -0.23592240238E+02  0.86360589321E+02 -0.90620155281E+02  0.12738429154E+03  0.00000000000E+00 0.  1.
</event>
<event>
12    1  0.8226261E-002  0.2696452E+03  0.7818608E-02  0.1102491E+00
         21   -1    0    0  501  502  0.00000000000E+00  0.00000000000E+00  0.12855233745E+04  0.12855233745E+04  0.00000000000E+00 0.  1.
         21   -1    0    0  502  503 -0.00000000000E+00 -0.00000000000E+00 -0.23671815190E+03  0.23671815190E+03  0.00000000000E+00 0.  1.
         -6    2    1    2    0  503 -0.12798544173E+03  0.15158166071E+03 -0.14383183964E+03  0.29950209630E+03  0.17221101717E+03 0.  0.
        -24    2    3    3    0    0 -0.41627269371E+02  0.15126642832E+03 -0.93367218465E+02  0.19936917816E+03  0.80101621839E+02 0.  0.
          6    2    1    2  501    0  0.12798544173E+03 -0.15158166071E+03  0.11926370622E+04  0.12227394301E+04  0.18262332418E+03 0.  0.
         24    2    5    5    0    0  0.11502115467E+03 -0.14841189525E+03  0.11900620774E+04  0.12083574727E+04  0.92865909128E+02 0.  0.
          5    1    5    5  501    0  0.12964287064E+02 -0.31697654551E+01  0.25749848494E+01  0.14381957416E+02  0.47000000000E+01 0. -1.
        -11    1    6    6    0    0  0.10948179122E+03 -0.13799210812E+03  0.84848085213E+03  0.86657246722E+03  0.00000000000E+00 0.  1.
         12    1    6    6    0    0  0.55393634457E+01 -0.10419787137E+02  0.34158122523E+03  0.34178500543E+03  0.00000000000E+00 0. -1.
         -5    1    3    3    0  503 -0.86358172361E+02  0.31523238270E+00 -0.50464621175E+02  0.10013291814E+03  0.47000000000E+01 0.  1.
         11    1    4    4    0    0  0.92610122128E+01  0.11067215331E+03 -0.58873761373E+02  0.12569889277E+03  0.00000000000E+00 0. -1.
        -12    1    4    4    0    0 -0.50888281584E+02  0.40594275012E+02 -0.34493457092E+02  0.73670285384E+02  0.00000000000E+00 0.  1.
</event>
<event>
12    1  0.8226261E-002  0.2927705E+03  0.7818608E-02  0.1088974E+00
         21   -1    0    0  501  502  0.00000000000E+00  0.00000000000E+00  0.48742416671E+03  0.48742416671E+03  0.00000000000E+00 0. -1.
         21   -1    0    0  502  503 -0.00000000000E+00 -0.00000000000E+00 -0.23674436382E+03  0.23674436382E+03  0.00000000000E+00 0. -1.
         -6    2    1    2    0  503 -0.45916883210E+02 -0.23232253936E+03 -0.58805799883E+02  0.29814515239E+03  0.17131925558E+03 0.  0.
        -24    2    3    3    0    0 -0.89425794928E+02 -0.19753626259E+03 -0.24071297028E+02  0.23232960605E+03  0.79875344580E+02 0.  0.
          6    2    1    2  501    0  0.45916883210E+02  0.23232253936E+03  0.30948560277E+03  0.42602337814E+03  0.17214080848E+03 0.  0.
         24    2    5    5    0    0  0.21426259731E+02  0.13490348057E+03  0.26916419901E+03  0.31768054610E+03  0.99063260915E+02 0.  0.
          5    1    5    5  501    0  0.24490623479E+02  0.97419058797E+02  0.40321403752E+02  0.10834283205E+03  0.47000000000E+01 0. -1.
        -13    1    6    6    0    0  0.40653177389E+01 -0.13622772399E+02  0.69521508206E+01  0.15825268945E+02  0.00000000000E+00 0.  1.
         14    1    6    6    0    0  0.17360941992E+02  0.14852625297E+03  0.26221204819E+03  0.30185527715E+03  0.00000000000E+00 0. -1.
         -5    1    3    3    0  503  0.43508911718E+02 -0.34786276776E+02 -0.34734502855E+02  0.65815546335E+02  0.47000000000E+01 0.  1.
         11    1    4    4    0    0 -0.43458345212E+02 -0.16595019458E+03  0.93441914476E-01  0.17154621413E+03  0.00000000000E+00 0. -1.
        -12    1    4    4    0    0 -0.45967449716E+02 -0.31586068004E+02 -0.24164738942E+02  0.60783391922E+02  0.00000000000E+00 0.  1.
</event>
<event>
12    1  0.8226261E-002  0.2194777E+03  0.7818608E-02  0.1134276E+00
         21   -1    0    0  501  502  0.00000000000E+00  0.00000000000E+00  0.11573171451E+03  0.11573171451E+03  0.00000000000E+00 0.  1.
         21   -1    0    0  502  503 -0.00000000000E+00 -0.00000000000E+00 -0.52680630440E+03  0.52680630440E+03  0.00000000000E+00 0.  1.
         -6    2    1    2    0  503  0.38044507926E+02 -0.13135956862E+03 -0.35274280993E+03  0.41544100889E+03  0.17164213079E+03 0.  0.
        -24    2    3    3    0    0  0.75695702597E+02 -0.61688814883E+02 -0.17124324955E+03  0.21736070497E+03  0.91575522240E+02 0.  0.
          6    2    1    2  501    0 -0.38044507926E+02  0.13135956862E+03 -0.58331779965E+02  0.22709701001E+03  0.17166168633E+03 0.  0.
         24    2    5    5    0    0 -0.58823423688E+02  0.67421202073E+02  0.21703212460E+02  0.12246638319E+03  0.80753773398E+02 0.  0.
          5    1    5    5  501    0  0.20778915762E+02  0.63938366544E+02 -0.80034992424E+02  0.10463062682E+03  0.47000000000E+01 0. -1.
        -11    1    6    6    0    0 -0.60871473535E+02  0.68744173360E+02 -0.84552854977E+01  0.92209487116E+02  0.00000000000E+00 0.  1.
         12    1    6    6    0    0  0.20480498468E+01 -0.13229712868E+01  0.30158497957E+02  0.30256896078E+02  0.00000000000E+00 0. -1.
         -5    1    3    3    0  503 -0.37651194672E+02 -0.69670753734E+02 -0.18149956037E+03  0.19808030392E+03  0.47000000000E+01 0.  1.
         13    1    4    4    0    0 -0.17911603009E+02  0.37856255085E+01 -0.14217683819E+02  0.23179711301E+02  0.00000000000E+00 0. -1.
        -14    1    4    4    0    0  0.93607305606E+02 -0.65474440392E+02 -0.15702556573E+03  0.19418099367E+03  0.00000000000E+00 0.  1.
</event>
<event>
12    1  0.8226261E-002  0.1968699E+03  0.7818608E-02  0.1152492E+00
         21   -1    0    0  503  502  0.00000000000E+00  0.00000000000E+00  0.22693886504E+03  0.22693886504E+03  0.00000000000E+00 0. -1.
         21   -1    0    0  501  503 -0.00000000000E+00 -0.00000000000E+00 -0.97890553278E+03  0.97890553278E+03  0.00000000000E+00 0. -1.
          6    2    1    2  501    0 -0.41123082037E+02 -0.86629763493E+02 -0.92397373432E+03  0.94471435873E+03  0.17193584291E+03 0.  0.
         24    2    3    3    0    0 -0.69554495105E+02 -0.51603594841E+02 -0.36047099522E+03  0.37938913843E+03  0.80597898048E+02 0.  0.
         -6    2    1    2    0  502  0.41123082037E+02  0.86629763493E+02  0.17200706659E+03  0.26113003909E+03  0.17148365100E+03 0.  0.
        -24    2    5    5    0    0  0.62931175663E+02  0.11962341332E+03  0.14593617578E+03  0.21352798846E+03  0.77632084668E+02 0.  0.
          5    1    3    3  501    0  0.28431413068E+02 -0.35026168652E+02 -0.56350273910E+03  0.56532522030E+03  0.47000000000E+01 0. -1.
        -13    1    4    4    0    0  0.93748079438E+00 -0.10518698527E+02 -0.81204448937E+00  0.10591567646E+02  0.00000000000E+00 0.  1.
         14    1    4    4    0    0 -0.70491975900E+02 -0.41084896314E+02 -0.35965895074E+03  0.36879757078E+03  0.00000000000E+00 0. -1.
         -5    1    5    5    0  502 -0.21808093626E+02 -0.32993649831E+02  0.26070890807E+02  0.47602050631E+02  0.47000000000E+01 0.  1.
         13    1    6    6    0    0  0.13848568967E+01  0.46186781148E+02  0.93516136511E+02  0.10430917682E+03  0.00000000000E+00 0. -1.
        -14    1    6    6    0    0  0.61546318766E+02  0.73436632176E+02  0.52420039269E+02  0.10921881164E+03  0.00000000000E+00 0.  1.
</event>
<event>
12    1  0.8226261E-002  0.4356917E+03  0.7818608E-02  0.1032393E+00
         21   -1    0    0  503  502  0.00000000000E+00  0.00000000000E+00  0.74736741008E+03  0.74736741008E+03  0.00000000000E+00 0. -1.
         21   -1    0    0  501  503 -0.00000000000E+00 -0.00000000000E+00 -0.29551835881E+03  0.29551835881E+03  0.00000000000E+00 0.  1.
          6    2    1    2  501    0  0.18888578969E+03  0.35210126878E+03  0.24105604436E+02  0.43231905539E+03  0.16329586788E+03 0.  0.
         24    2    3    3    0    0  0.10634556996E+03  0.17405763575E+03 -0.45324671517E+02  0.22410023695E+03  0.81000923076E+02 0.  0.
         -6    2    1    2    0  502 -0.18888578969E+03 -0.35210126878E+03  0.42774344683E+03  0.61056671349E+03  0.17370696673E+03 0.  0.
        -24    2    5    5    0    0 -0.12624508768E+03 -0.31947287846E+03  0.40462470788E+03  0.53610171840E+03  0.75386709773E+02 0.  0.
          5    1    3    3  501    0  0.82540219726E+02  0.17804363304E+03  0.69430275953E+02  0.20821881845E+03  0.47000000000E+01 0. -1.
        -13    1    4    4    0    0  0.21284672017E+02  0.69872299352E+02 -0.51640091757E+02  0.89453197574E+02  0.00000000000E+00 0.  1.
         14    1    4    4    0    0  0.85060897945E+02  0.10418533639E+03  0.63154202399E+01  0.13464703937E+03  0.00000000000E+00 0. -1.
         -5    1    5    5    0  502 -0.62640702004E+02 -0.32628390319E+02  0.23118738952E+02  0.74464995086E+02  0.47000000000E+01 0.  1.
         11    1    6    6    0    0 -0.55899742498E+02 -0.11862188251E+03  0.21075823205E+03  0.24822361813E+03  0.00000000000E+00 0. -1.
        -12    1    6    6    0    0 -0.70345345186E+02 -0.20085099596E+03  0.19386647583E+03  0.28787810027E+03  0.00000000000E+00 0.  1.
</event>
<event>
12    1  0.8226261E-002  0.2084065E+03  0.7818608E-02  0.1143005E+00
         21   -1    0    0  501  502  0.00000000000E+00  0.00000000000E+00  0.18982264978E+03  0.18982264978E+03  0.00000000000E+00 0.  1.
         21   -1    0    0  502  503 -0.00000000000E+00 -0.00000000000E+00 -0.25046021696E+03  0.25046021696E+03  0.00000000000E+00 0. -1.
         -6    2    1    2    0  503  0.78665168319E+02  0.85569715592E+02  0.35730692955E+02  0.21144724524E+03  0.17298228282E+03 0.  0.
        -24    2    3    3    0    0 -0.12688309845E+02  0.85016444002E+02  0.24445155462E+02  0.11927774140E+03  0.78998892467E+02 0.  0.
          6    2    1    2  501    0 -0.78665168319E+02 -0.85569715592E+02 -0.96368260134E+02  0.22883562150E+03  0.17195498007E+03 0.  0.
         24    2    5    5    0    0  0.12704806732E+02 -0.25060181080E+02 -0.10945458457E+01  0.83546094199E+02  0.78672276156E+02 0.  0.
          5    1    5    5  501    0 -0.91369975051E+02 -0.60509534513E+02 -0.95273714289E+02  0.14528952730E+03  0.47000000000E+01 0. -1.
        -13    1    6    6    0    0 -0.65115311837E+01  0.12603263706E+02  0.28568221114E+02  0.31896481813E+02  0.00000000000E+00 0.  1.
         14    1    6    6    0    0  0.19216337915E+02 -0.37663444786E+02 -0.29662766960E+02  0.51649612387E+02  0.00000000000E+00 0. -1.
         -5    1    3    3    0  503  0.91353478164E+02  0.55327159057E+00  0.11285537493E+02  0.92169503843E+02  0.47000000000E+01 0.  1.
         11    1    4    4    0    0  0.15229899167E+02  0.22209880638E+02 -0.23282878103E+02  0.35599452796E+02  0.00000000000E+00 0. -1.
        -12    1    4    4    0    0 -0.27918209012E+02  0.62806563364E+02  0.47728033566E+02  0.83678288606E+02  0.00000000000E+00 0.  1.
</event>
<event>
12    1  0.8226261E-002  0.1909669E+03  0.7818608E-02  0.1158567E+00
         21   -1    0    0  503  502  0.00000000000E+00  0.00000000000E+00  0.42018152726E+03  0.42018152726E+03  0.00000000000E+00 0.  1.
         21   -1    0    0  501  503 -0.00000000000E+00 -0.00000000000E+00 -0.21420108996E+03  0.21420108996E+03  0.00000000000E+00 0.  1.
          6    2    1    2  501    0  0.76409050901E+02  0.68009961315E+01 -0.14395643952E+03  0.23572964354E+03  0.17017758888E+03 0.  0.
         24    2    3    3    0    0  0.65122860716E+02  0.66267448620E+02 -0.77079625143E+02  0.14540669318E+03  0.81052304563E+02 0.  0.
         -6    2    1    2    0  502 -0.76409050901E+02 -0.68009961315E+01  0.34993687682E+03  0.39865297368E+03  0.17488218622E+03 0.  0.
        -24    2    5    5    0    0 -0.11431278717E+03 -0.41468645693E+01  0.32298634415E+03  0.35183247765E+03  0.79883064698E+02 0.  0.
          5    1    3    3  501    0  0.11286190185E+02 -0.59466452488E+02 -0.66876814382E+02  0.90322950363E+02  0.47000000000E+01 0. -1.
        -13    1    4    4    0    0  0.18130074480E+02 -0.55341123349E+01 -0.52987861866E+02  0.56276456046E+02  0.00000000000E+00 0.  1.
         14    1    4    4    0    0  0.46992786236E+02  0.71801560955E+02 -0.24091763277E+02  0.89130237134E+02  0.00000000000E+00 0. -1.
         -5    1    5    5    0  502  0.37903736267E+02 -0.26541315622E+01  0.26950532675E+02  0.46820496034E+02  0.47000000000E+01 0.  1.
         11    1    6    6    0    0 -0.16252380063E+02 -0.55073932280E+01  0.33426637823E+01  0.17482695417E+02  0.00000000000E+00 0. -1.
        -12    1    6    6    0    0 -0.98060407105E+02  0.13605286587E+01  0.31964368037E+03  0.33434978223E+03  0.00000000000E+00 0.  1.
</event>
<event>
12    1  0.8226261E-002  0.1961352E+03  0.7818608E-02  0.1153914E+00
         21   -1    0    0  503  502  0.00000000000E+00  0.00000000000E+00  0.35947987653E+03  0.35947987653E+03  0.00000000000E+00 0. -1.
         21   -1    0    0  501  503 -0.00000000000E+00 -0.00000000000E+00 -0.10504016337E+03  0.10504016337E+03  0.00000000000E+00 0. -1.
          6    2    1    2  501    0  0.76379277505E+02 -0.46719516968E+02  0.13849913512E+03  0.24010626524E+03  0.17450644939E+03 0.  0.
         24    2    3    3    0    0  0.73475462796E+02 -0.96230180896E+02  0.12055260608E+03  0.18715434471E+03  0.76386691015E+02 0.  0.
         -6    2    1    2    0  502 -0.76379277505E+02  0.46719516968E+02  0.11594057804E+03  0.22441377466E+03  0.17000828604E+03 0.  0.
        -24    2    5    5    0    0 -0.89007804941E+02  0.72046472105E+02  0.13206827436E+03  0.19150288056E+03  0.78219183619E+02 0.  0.
          5    1    3    3  501    0  0.29038147096E+01  0.49510663929E+02  0.17946529040E+02  0.52951920523E+02  0.47000000000E+01 0. -1.
        -11    1    4    4    0    0  0.25157830155E+02 -0.87315740497E+02  0.58770251789E+02  0.10821690003E+03  0.00000000000E+00 0.  1.
         12    1    4    4    0    0  0.48317632641E+02 -0.89144403996E+01  0.61782354289E+02  0.78937444683E+02  0.00000000000E+00 0. -1.
         -5    1    5    5    0  502  0.12628527436E+02 -0.25326955137E+02 -0.16127696323E+02  0.32910894099E+02  0.47000000000E+01 0.  1.
         11    1    6    6    0    0 -0.28450403694E+02  0.14330730388E+02  0.94636865654E+02  0.99854552448E+02  0.00000000000E+00 0. -1.
        -12    1    6    6    0    0 -0.60557401247E+02  0.57715741717E+02  0.37431408711E+02  0.91648328113E+02  0.00000000000E+00 0.  1.
</event>
<event>
12    1  0.8226261E-002  0.1906960E+03  0.7818608E-02  0.1159814E+00
         21   -1    0    0  501  502  0.00000000000E+00  0.00000000000E+00  0.11584617429E+04  0.11584617429E+04  0.00000000000E+00 0. -1.
         21   -1    0    0  502  503 -0.00000000000E+00 -0.00000000000E+00 -0.30458482765E+02  0.30458482765E+02  0.00000000000E+00 0. -1.
         -6    2    1    2    0  503  0.57040109427E+02 -0.19252795453E+02  0.47754990387E+03  0.51108946871E+03  0.17185543380E+03 0.  0.
        -24    2    3    3    0    0  0.33180695702E+02 -0.63292516211E+02  0.42535839983E+03  0.43859938855E+03  0.79578603630E+02 0.  0.
          6    2    1    2  501    0 -0.57040109427E+02  0.19252795453E+02  0.65045335628E+03  0.67783075696E+03  0.18094397525E+03 0.  0.
         24    2    5    5    0    0  0.12766043484E+02  0.36941895534E+02  0.52969153563E+03  0.53714916410E+03  0.80177466031E+02 0.  0.
          5    1    5    5  501    0 -0.69806152911E+02 -0.17689100081E+02  0.12076182064E+03  0.14068159286E+03  0.47000000000E+01 0. -1.
        -13    1    6    6    0    0 -0.16367622773E+02  0.45283275700E+02  0.43665054875E+03  0.43929736610E+03  0.00000000000E+00 0.  1.
         14    1    6    6    0    0  0.29133666257E+02 -0.83413801659E+01  0.93040986881E+02  0.97851798004E+02  0.00000000000E+00 0. -1.
         -5    1    3    3    0  503  0.23859413725E+02  0.44039720758E+02  0.52191504040E+02  0.72490080161E+02  0.47000000000E+01 0.  1.
         11    1    4    4    0    0  0.58371539456E+02 -0.40413088579E+02  0.24594100980E+03  0.25598327025E+03  0.00000000000E+00 0. -1.
        -12    1    4    4    0    0 -0.25190843754E+02 -0.22879427633E+02  0.17941739003E+03  0.18261611830E+03  0.00000000000E+00 0.  1.
</event>
<event>
12    1  0.8226261E-002  0.2099278E+03  0.7818608E-02  0.1141650E+00
         21   -1    0    0  503  502  0.00000000000E+00  0.00000000000E+00  0.16745307292E+03  0.16745307292E+03  0.00000000000E+00 0.  1.
         21   -1    0    0  501  503 -0.00000000000E+00 -0.00000000000E+00 -0.37573507446E+03  0.37573507446E+03  0.00000000000E+00 0. -1.
          6    2    1    2  501    0 -0.11768782044E+03  0.17674873373E+02  0.44644177413E+02  0.21449173621E+03  0.17277377722E+03 0.  0.
         24    2    3    3    0    0 -0.93452371298E+02  0.76777063928E+02  0.33184158369E+02  0.14942371057E+03  0.81229266079E+02 0.  0.
         -6    2    1    2    0  502  0.11768782044E+03 -0.17674873373E+02 -0.25292617895E+03  0.32869641117E+03  0.17293598379E+03 0.  0.
        -24    2    5    5    0    0  0.62327111706E+02  0.14188421121E+02 -0.24303707613E+03  0.26388929766E+03  0.80526771323E+02 0.  0.
          5    1    3    3  501    0 -0.24235449138E+02 -0.59102190555E+02  0.11460019044E+02  0.65068025634E+02  0.47000000000E+01 0. -1.
        -13    1    4    4    0    0 -0.59058166758E+02  0.20300259989E+02  0.51347633888E+02  0.80848915407E+02  0.00000000000E+00 0.  1.
         14    1    4    4    0    0 -0.34394204540E+02  0.56476803939E+02 -0.18163475519E+02  0.68574795165E+02  0.00000000000E+00 0. -1.
         -5    1    5    5    0  502  0.55360708731E+02 -0.31863294493E+02 -0.98891028252E+01  0.64807113513E+02  0.47000000000E+01 0.  1.
         11    1    6    6    0    0  0.10617639797E+01  0.15051931521E+02 -0.20415550181E+01  0.15226816218E+02  0.00000000000E+00 0. -1.
        -12    1    6    6    0    0  0.61265347726E+02 -0.86351040030E+00 -0.24099552111E+03  0.24866248144E+03  0.00000000000E+00 0.  1.
</event>
<event>
12    1  0.8226261E-002  0.2290537E+03  0.7818608E-02  0.1127539E+00
         21   -1    0    0  501  502  0.00000000000E+00  0.00000000000E+00  0.11067196427E+04  0.11067196427E+04  0.00000000000E+00 0. -1.
         21   -1    0    0  502  503 -0.00000000000E+00 -0.00000000000E+00 -0.13143565779E+03  0.13143565779E+03  0.00000000000E+00 0. -1.
         -6    2    1    2    0  503 -0.14606635874E+03 -0.39651651633E+02 -0.76490682134E+01  0.22918140338E+03  0.17192432282E+03 0.  0.
        -24    2    3    3    0    0 -0.34190968980E+02 -0.52903061804E+02 -0.42685873497E+02  0.11110782280E+03  0.80963622596E+02 0.  0.
          6    2    1    2  501    0  0.14606635874E+03  0.39651651633E+02  0.98293305316E+03  0.10089738972E+04  0.17018608495E+03 0.  0.
         24    2    5    5    0    0  0.97429002022E+02 -0.42656385153E+02  0.52622583169E+03  0.54234365646E+03  0.76883276036E+02 0.  0.
          5    1    5    5  501    0  0.48637356719E+02  0.82308036786E+02  0.45670722148E+03  0.46663024070E+03  0.47000000000E+01 0. -1.
        -13    1    6    6    0    0 -0.85885822158E+01  0.24724828740E+01  0.99859175818E+01  0.13401323293E+02  0.00000000000E+00 0.  1.
         14    1    6    6    0    0  0.10601758424E+03 -0.45128868027E+02  0.51623991411E+03  0.52894233317E+03  0.00000000000E+00 0. -1.
         -5    1    3    3    0  503 -0.11187538976E+03  0.13251410171E+02  0.35036805283E+02  0.11807358058E+03  0.47000000000E+01 0.  1.
         13    1    4    4    0    0  0.12314512100E+02  0.47978886204E+00 -0.38231723859E+02  0.40168919762E+02  0.00000000000E+00 0. -1.
        -14    1    4    4    0    0 -0.46505481080E+02 -0.53382850666E+02 -0.44541496382E+01  0.70938903041E+02  0.00000000000E+00 0.  1.
</event>
<event>
12    1  0.8226261E-002  0.2920502E+03  0.7818608E-02  0.1089343E+00
         21   -1    0    0  501  502  0.00000000000E+00  0.00000000000E+00  0.16424711551E+03  0.16424711551E+03  0.00000000000E+00 0. -1.
         21   -1    0    0  502  503 -0.00000000000E+00 -0.00000000000E+00 -0.98486262346E+03  0.98486262346E+03  0.00000000000E+00 0. -1.
         -6    2    1    2    0  503  0.22502260807E+03  0.69945386834E+02 -0.80585775853E+03  0.85714646661E+03  0.17252769909E+03 0.  0.
        -24    2    3    3    0    0  0.11709902738E+03  0.10357997615E+03 -0.42160070961E+03  0.45657892609E+03  0.79222242690E+02 0.  0.
          6    2    1    2  501    0 -0.22502260807E+03 -0.69945386834E+02 -0.14757749418E+02  0.29196327236E+03  0.17174757628E+03 0.  0.
         24    2    5    5    0    0 -0.10967935576E+03 -0.35457508292E+02  0.56866423645E+02  0.15180053913E+03  0.80763962058E+02 0.  0.
          5    1    5    5  501    0 -0.11534325232E+03 -0.34487878542E+02 -0.71624173062E+02  0.14016273324E+03  0.47000000000E+01 0. -1.
        -11    1    6    6    0    0 -0.12775092006E+02  0.10754444819E+02 -0.15131229641E+02  0.22534754704E+02  0.00000000000E+00 0.  1.
         12    1    6    6    0    0 -0.96904263751E+02 -0.46211953111E+02  0.71997653286E+02  0.12926578442E+03  0.00000000000E+00 0. -1.
         -5    1    3    3    0  503  0.10792358070E+03 -0.33634589318E+02 -0.38425704892E+03  0.40056754051E+03  0.47000000000E+01 0.  1.
         11    1    4    4    0    0  0.12668390658E+03  0.10157343269E+03 -0.41209486625E+03  0.44293131883E+03  0.00000000000E+00 0. -1.
        -12    1    4    4    0    0 -0.95848791996E+01  0.20065434668E+01 -0.95058433572E+01  0.13647607259E+02  0.00000000000E+00 0.  1.
</event>
<event>
12    1  0.8226261E-002  0.2510570E+03  0.7818608E-02  0.1113413E+00
         21   -1    0    0  501  502  0.00000000000E+00  0.00000000000E+00  0.24885217333E+03  0.24885217333E+03  0.00000000000E+00 0.  1.
         21   -1    0    0  502  503 -0.00000000000E+00 -0.00000000000E+00 -0.25329865165E+03  0.25329865165E+03  0.00000000000E+00 0.  1.
         -6    2    1    2    0  503 -0.81115096812E+02  0.15468003496E+03 -0.37201299381E+02  0.25379830013E+03  0.18034430495E+03 0.  0.
        -24    2    3    3    0    0 -0.56828370479E+02  0.10390624230E+03  0.56212351502E+02  0.14463776116E+03  0.61108776885E+02 0.  0.
          6    2    1    2  501    0  0.81115096812E+02 -0.15468003496E+03  0.32754821054E+02  0.24835252485E+03  0.17349503206E+03 0.  0.
         24    2    5    5    0    0  0.11929674738E+03 -0.11501443908E+03 -0.30606559269E+01  0.18250393847E+03  0.76408669749E+02 0.  0.
          5    1    5    5  501    0 -0.38181650564E+02 -0.39665595880E+02  0.35815476981E+02  0.65848586375E+02  0.47000000000E+01 0. -1.
        -11    1    6    6    0    0  0.95027445949E+02 -0.11130045959E+03  0.21331211669E+02  0.14789532914E+03  0.00000000000E+00 0.  1.
         12    1    6    6    0    0  0.24269301427E+02 -0.37139794849E+01 -0.24391867596E+02  0.34608609336E+02  0.00000000000E+00 0. -1.
         -5    1    3    3    0  503 -0.24286726333E+02  0.50773792659E+02 -0.93413650883E+02  0.10916053897E+03  0.47000000000E+01 0.  1.
         11    1    4    4    0    0 -0.20902918246E+02  0.87271290466E+02  0.54538165883E+02  0.10501248339E+03  0.00000000000E+00 0. -1.
        -12    1    4    4    0    0 -0.35925452233E+02  0.16634951834E+02  0.16741856192E+01  0.39625277768E+02  0.00000000000E+00 0.  1.
</event>
<event>
12    1  0.8226261E-002  0.2381686E+03  0.7818608E-02  0.1121651E+00
         21   -1    0    0  501  502  0.00000000000E+00  0.00000000000E+00  0.40924689375E+03  0.40924689375E+03  0.00000000000E+00 0. -1.
         21   -1    0    0  502  503 -0.00000000000E+00 -0.00000000000E+00 -0.15079271203E+03  0.15079271203E+03  0.00000000000E+00 0.  1.
         -6    2    1    2    0  503 -0.15445488569E+03 -0.35587360438E+02  0.41933356872E+02  0.23816142875E+03  0.17274167936E+03 0.  0.
        -24    2    3    3    0    0 -0.53188929260E+01 -0.16495751721E+02  0.35285503313E+02  0.87588131589E+02  0.78270132262E+02 0.  0.
          6    2    1    2  501    0  0.15445488569E+03  0.35587360438E+02  0.21652082485E+03  0.32187817703E+03  0.17776816734E+03 0.  0.
         24    2    5    5    0    0  0.14670245683E+02  0.31419934295E+02  0.13240912577E+03  0.15861770740E+03  0.80155923887E+02 0.  0.
          5    1    5    5  501    0  0.13978464000E+03  0.41674261430E+01  0.84111699075E+02  0.16326046963E+03  0.47000000000E+01 0. -1.
        -13    1    6    6    0    0  0.45086179791E+02  0.42522031866E+01  0.56131061845E+02  0.72121709242E+02  0.00000000000E+00 0.  1.
         14    1    6    6    0    0 -0.30415934108E+02  0.27167731108E+02  0.76278063926E+02  0.86495998159E+02  0.00000000000E+00 0. -1.
         -5    1    3    3    0  503 -0.14913599276E+03 -0.19091608717E+02  0.66478535591E+01  0.15057329716E+03  0.47000000000E+01 0.  1.
         13    1    4    4    0    0 -0.30805427124E+02 -0.33716159673E+02  0.33756479729E+02  0.56791317004E+02  0.00000000000E+00 0. -1.
        -14    1    4    4    0    0  0.25486534198E+02  0.17220407952E+02  0.15290235841E+01  0.30796814585E+02  0.00000000000E+00 0.  1.
</event>
<event>
12    1  0.8226261E-002  0.2980146E+03  0.7818608E-02  0.1086291E+00
         21   -1    0    0  501  502  0.00000000000E+00  0.00000000000E+00  0.49346302190E+03  0.49346302190E+03  0.00000000000E+00 0. -1.
         21   -1    0    0  502  503 -0.00000000000E+00 -0.00000000000E+00 -0.18475534300E+03  0.18475534300E+03  0.00000000000E+00 0.  1.
         -6    2    1    2    0  503 -0.16773766545E+03  0.17683445653E+03  0.21043662802E+03  0.36482361041E+03  0.17148277718E+03 0.  0.
        -24    2    3    3    0    0 -0.18996949734E+03  0.17448731720E+03  0.21008702539E+03  0.34197682433E+03  0.79229769401E+02 0.  0.
          6    2    1    2  501    0  0.16773766545E+03 -0.17683445653E+03  0.98271050876E+02  0.31339475448E+03  0.17074168580E+03 0.  0.
         24    2    5    5    0    0  0.46519856629E+02 -0.10965000505E+03 -0.32537001872E+00  0.14324525578E+03  0.79573090729E+02 0.  0.
          5    1    5    5  501    0  0.12121780883E+03 -0.67184451483E+02  0.98596420895E+02  0.17014949871E+03  0.47000000000E+01 0. -1.
        -11    1    6    6    0    0  0.38075422790E+02 -0.25199797478E+02  0.28250588407E+02  0.53692302604E+02  0.00000000000E+00 0.  1.
         12    1    6    6    0    0  0.84444338394E+01 -0.84450207573E+02 -0.28575958425E+02  0.89552953173E+02  0.00000000000E+00 0. -1.
         -5    1    3    3    0  503  0.22231831886E+02  0.23471393376E+01  0.34960262677E+00  0.22846786078E+02  0.47000000000E+01 0.  1.
         11    1    4    4    0    0 -0.13236840177E+02  0.45044133120E+02  0.61073203811E+02  0.77033266126E+02  0.00000000000E+00 0. -1.
        -12    1    4    4    0    0 -0.17673265716E+03  0.12944318408E+03  0.14901382158E+03  0.26494355821E+03  0.00000000000E+00 0.  1.
</event>
<event>
12    1  0.8226261E-002  0.1937847E+03  0.7818608E-02  0.1155120E+00
         21   -1    0    0  501  502  0.00000000000E+00  0.00000000000E+00  0.13499556440E+03  0.13499556440E+03  0.00000000000E+00 0.  1.
         21   -1    0    0  502  503 -0.00000000000E+00 -0.00000000000E+00 -0.29286694686E+03  0.29286694686E+03  0.00000000000E+00 0.  1.
         -6    2    1    2    0  503 -0.68886583567E+02 -0.56368868802E+02 -0.12718293115E+03  0.23179299705E+03  0.17213275324E+03 0.  0.
        -24    2    3    3    0    0 -0.59510104800E+02  0.13258549466E+01 -0.96753214545E+01  0.10046619917E+03  0.80353188279E+02 0.  0.
          6    2    1    2  501    0  0.68886583567E+02  0.56368868802E+02 -0.30688451315E+02  0.19606951421E+03  0.17198448358E+03 0.  0.
         24    2    5    5    0    0  0.23444303082E+02  0.11003025062E+02  0.46034332991E+02  0.95911957005E+02  0.80057740257E+02 0.  0.
          5    1    5    5  501    0  0.45442280485E+02  0.45365843739E+02 -0.76722784307E+02  0.10015755721E+03  0.47000000000E+01 0. -1.
        -11    1    6    6    0    0 -0.39097632420E+01  0.33230264594E+02 -0.50600954106E+01  0.33839936454E+02  0.00000000000E+00 0.  1.
         12    1    6    6    0    0  0.27354066324E+02 -0.22227239532E+02  0.51094428402E+02  0.62072020552E+02  0.00000000000E+00 0. -1.
         -5    1    3    3    0  503 -0.93764787666E+01 -0.57694723748E+02 -0.11750760970E+03  0.13132679787E+03  0.47000000000E+01 0.  1.
         11    1    4    4    0    0 -0.60368642403E+02  0.91174254895E+01 -0.37438235399E+02  0.71617888149E+02  0.00000000000E+00 0. -1.
        -12    1    4    4    0    0  0.85853760283E+00 -0.77915705429E+01  0.27762913944E+02  0.28848311025E+02  0.00000000000E+00 0.  1.
</event>
<event>
12    1  0.8226261E-002  0.2180437E+03  0.7818608E-02  0.1135441E+00
         21   -1    0    0  503  502  0.00000000000E+00  0.00000000000E+00  0.19046972335E+03  0.19046972335E+03  0.00000000000E+00 0. -1.
         21   -1    0    0  501  503 -0.00000000000E+00 -0.00000000000E+00 -0.27563491037E+03  0.27563491037E+03  0.00000000000E+00 0.  1.
          6    2    1    2  501    0  0.11126148467E+03 -0.73732213784E+02  0.29737730934E+02  0.22006221115E+03  0.17241660829E+03 0.  0.
         24    2    3    3    0    0  0.14691120368E+03 -0.47814347192E+02  0.26602990187E+02  0.17562624741E+03  0.79169098305E+02 0.  0.
         -6    2    1    2    0  502 -0.11126148467E+03  0.73732213784E+02 -0.11490291796E+03  0.24604242257E+03  0.17180988280E+03 0.  0.
        -24    2    5    5    0    0  0.62974772635E+00  0.53864664494E+02 -0.94996387841E+02  0.13057499277E+03  0.71580139500E+02 0.  0.
          5    1    3    3  501    0 -0.35649719009E+02 -0.25917866592E+02  0.31347407478E+01  0.44435963741E+02  0.47000000000E+01 0. -1.
        -13    1    4    4    0    0  0.24171528382E+02 -0.37691213598E+02 -0.12364927139E+02  0.46451929884E+02  0.00000000000E+00 0.  1.
         14    1    4    4    0    0  0.12273967530E+03 -0.10123133594E+02  0.38967917326E+02  0.12917431752E+03  0.00000000000E+00 0. -1.
         -5    1    5    5    0  502 -0.11189123240E+03  0.19867549290E+02 -0.19906530117E+02  0.11546742980E+03  0.47000000000E+01 0.  1.
         11    1    6    6    0    0  0.19354843848E+02 -0.29291738075E+01 -0.55645542813E+02  0.58988274042E+02  0.00000000000E+00 0. -1.
        -12    1    6    6    0    0 -0.18725096121E+02  0.56793838301E+02 -0.39350845028E+02  0.71586718727E+02  0.00000000000E+00 0.  1.
</event>
<event>
12    1  0.8226261E-002  0.2230605E+03  0.7818608E-02  0.1133599E+00
         21   -1    0    0  503  502  0.00000000000E+00  0.00000000000E+00  0.29810877254E+03  0.29810877254E+03  0.00000000000E+00 0. -1.
         21   -1    0    0  501  503 -0.00000000000E+00 -0.00000000000E+00 -0.16504053024E+03  0.16504053024E+03  0.00000000000E+00 0. -1.
          6    2    1    2  501    0  0.14122817522E+03 -0.10483133110E+02  0.10882519017E+03  0.23877527277E+03  0.15847843802E+03 0.  0.
         24    2    3    3    0    0  0.10441078754E+02 -0.18431828688E+02  0.47793453515E+02  0.94153665663E+02  0.78306769341E+02 0.  0.
         -6    2    1    2    0  502 -0.14122817522E+03  0.10483133110E+02  0.24243052138E+02  0.22437403001E+03  0.17233887028E+03 0.  0.
        -24    2    5    5    0    0 -0.15374356299E+03  0.24712431130E+02 -0.20589143853E+02  0.17547491294E+03  0.78228797847E+02 0.  0.
          5    1    3    3  501    0  0.13078709646E+03  0.79486955784E+01  0.61031736651E+02  0.14462160711E+03  0.47000000000E+01 0. -1.
        -11    1    4    4    0    0  0.23608824334E+02 -0.11132824428E+02 -0.14642233178E+02  0.29928437290E+02  0.00000000000E+00 0.  1.
         12    1    4    4    0    0 -0.13167745580E+02 -0.72990042607E+01  0.62435686693E+02  0.64225228374E+02  0.00000000000E+00 0. -1.
         -5    1    5    5    0  502  0.12515387771E+02 -0.14229298020E+02  0.44832195991E+02  0.48899117074E+02  0.47000000000E+01 0.  1.
         11    1    6    6    0    0 -0.59240943493E+02 -0.26096399074E+02 -0.21390181976E+02  0.68176618540E+02  0.00000000000E+00 0. -1.
        -12    1    6    6    0    0 -0.94502619497E+02  0.50808830204E+02  0.80103812331E+00  0.10729829440E+03  0.00000000000E+00 0.  1.
</event>
<event>
12    1  0.8226261E-002  0.2546725E+03  0.7818608E-02  0.1112902E+00
         21   -1    0    0  501  502  0.00000000000E+00  0.00000000000E+00  0.30882484057E+03  0.30882484057E+03  0.00000000000E+00 0. -1.
         21   -1    0    0  502  503 -0.00000000000E+00 -0.00000000000E+00 -0.38725753780E+03  0.38725753780E+03  0.00000000000E+00 0.  1.
         -6    2    1    2    0  503  0.16457956980E+03 -0.37154948927E+02 -0.28232287941E+03  0.36984733957E+03  0.16915649950E+03 0.  0.
        -24    2    3    3    0    0  0.17422216766E+02  0.54199628374E+01 -0.12599300161E+03  0.15092034179E+03  0.81054324236E+02 0.  0.
          6    2    1    2  501    0 -0.16457956980E+03  0.37154948927E+02  0.20389018218E+03  0.32623503881E+03  0.19076469571E+03 0.  0.
         24    2    5    5    0    0 -0.17690255799E+03  0.71982749209E+02  0.20048868447E+03  0.28883862324E+03  0.82194929703E+02 0.  0.
          5    1    5    5  501    0  0.12322988187E+02 -0.34827800282E+02  0.34014977119E+01  0.37396415564E+02  0.47000000000E+01 0. -1.
        -11    1    6    6    0    0 -0.65305081886E+01 -0.52532159084E+01 -0.59320637282E+01  0.10268066744E+02  0.00000000000E+00 0.  1.
         12    1    6    6    0    0 -0.17037204980E+03  0.77235965117E+02  0.20642074820E+03  0.27857055650E+03  0.00000000000E+00 0. -1.
         -5    1    3    3    0  503  0.14715735304E+03 -0.42574911764E+02 -0.15632987780E+03  0.21892699778E+03  0.47000000000E+01 0.  1.
         13    1    4    4    0    0  0.43997740567E+02  0.21066960995E+01 -0.11273965067E+03  0.12103911837E+03  0.00000000000E+00 0. -1.
        -14    1    4    4    0    0 -0.26575523801E+02  0.33132667379E+01 -0.13253350939E+02  0.29881223417E+02  0.00000000000E+00 0.  1.
</event>
<event>
12    1  0.8226261E-002  0.1831794E+03  0.7818608E-02  0.1165401E+00
         21   -1    0    0  503  502  0.00000000000E+00  0.00000000000E+00  0.32132688967E+03  0.32132688967E+03  0.00000000000E+00 0.  1.
         21   -1    0    0  501  503 -0.00000000000E+00 -0.00000000000E+00 -0.24818127721E+03  0.24818127721E+03  0.00000000000E+00 0.  1.
          6    2    1    2  501    0 -0.41068109662E+02  0.36356715431E+02 -0.18140224814E+03  0.25590121902E+03  0.17196004732E+03 0.  0.
         24    2    3    3    0    0  0.19474563738E+02  0.68434595298E+02 -0.14513141303E+03  0.17823482243E+03  0.75113064189E+02 0.  0.
         -6    2    1    2    0  502  0.41068109662E+02 -0.36356715431E+02  0.25454786060E+03  0.31360694786E+03  0.17477500971E+03 0.  0.
        -24    2    5    5    0    0 -0.17953127251E+02  0.14407317639E+02  0.54971398333E+02  0.99332946281E+02  0.79468824092E+02 0.  0.
          5    1    3    3  501    0 -0.60542673400E+02 -0.32077879867E+02 -0.36270835116E+02  0.77666396590E+02  0.47000000000E+01 0. -1.
        -13    1    4    4    0    0 -0.22992544329E+02  0.10832537602E+02 -0.14438956341E+02  0.29231565573E+02  0.00000000000E+00 0.  1.
         14    1    4    4    0    0  0.42467108067E+02  0.57602057696E+02 -0.13069245669E+03  0.14900325685E+03  0.00000000000E+00 0. -1.
         -5    1    5    5    0  502  0.59021236913E+02 -0.50764033070E+02  0.19957646227E+03  0.21427400158E+03  0.47000000000E+01 0.  1.
         13    1    6    6    0    0  0.11880403592E+02 -0.52485043463E+01 -0.15560562639E+02  0.20268741871E+02  0.00000000000E+00 0. -1.
        -14    1    6    6    0    0 -0.29833530844E+02  0.19655821985E+02  0.70531960972E+02  0.79064204410E+02  0.00000000000E+00 0.  1.
</event>
<event>
12    1  0.8226261E-002  0.1936535E+03  0.7818608E-02  0.1155290E+00
         21   -1    0    0  501  502  0.00000000000E+00  0.00000000000E+00  0.16474860124E+03  0.16474860124E+03  0.00000000000E+00 0.  1.
         21   -1    0    0  502  503 -0.00000000000E+00 -0.00000000000E+00 -0.27116325838E+03  0.27116325838E+03  0.00000000000E+00 0.  1.
         -6    2    1    2    0  503  0.26534821816E+02  0.84419525376E+02 -0.14102808594E+03  0.23956338511E+03  0.17225255130E+03 0.  0.
        -24    2    3    3    0    0  0.17076167592E+02 -0.22765971935E+02 -0.84201036294E+02  0.11778653778E+03  0.77291454843E+02 0.  0.
          6    2    1    2  501    0 -0.26534821816E+02 -0.84419525376E+02  0.34613428794E+02  0.19634847451E+03  0.17182514646E+03 0.  0.
         24    2    5    5    0    0 -0.74892378743E+02 -0.62826939567E+02 -0.92522637002E+01  0.12742110657E+03  0.81206165319E+02 0.  0.
          5    1    5    5  501    0  0.48357556926E+02 -0.21592585809E+02  0.43865692494E+02  0.68927367945E+02  0.47000000000E+01 0. -1.
        -11    1    6    6    0    0 -0.93134678445E+01  0.18331512366E+02  0.72081152389E+01  0.21788573937E+02  0.00000000000E+00 0.  1.
         12    1    6    6    0    0 -0.65578910898E+02 -0.81158451933E+02 -0.16460378939E+02  0.10563253263E+03  0.00000000000E+00 0. -1.
         -5    1    3    3    0  503  0.94586542237E+01  0.10718549731E+03 -0.56827049641E+02  0.12177684733E+03  0.47000000000E+01 0.  1.
         11    1    4    4    0    0 -0.39038664192E+01  0.23404159524E+02 -0.58213219566E+01  0.24431181825E+02  0.00000000000E+00 0. -1.
        -12    1    4    4    0    0  0.20980034012E+02 -0.46170131459E+02 -0.78379714338E+02  0.93355355957E+02  0.00000000000E+00 0.  1.
</event>
<event>
12    1  0.8226261E-002  0.2893832E+03  0.7818608E-02  0.1090778E+00
         21   -1    0    0  503  502  0.00000000000E+00  0.00000000000E+00  0.20595985521E+04  0.20595985521E+04  0.00000000000E+00 0. -1.
         21   -1    0    0  501  503 -0.00000000000E+00 -0.00000000000E+00 -0.52366142204E+02  0.52366142204E+02  0.00000000000E+00 0.  1.
          6    2    1    2  501    0  0.72474949973E+02 -0.22091921931E+03  0.50083154733E+03  0.57802004210E+03  0.17092984069E+03 0.  0.
         24    2    3    3    0    0  0.11254773781E+03 -0.16955888091E+03  0.42850803770E+03  0.48057009223E+03  0.76884769556E+02 0.  0.
         -6    2    1    2    0  502 -0.72474949973E+02  0.22091921931E+03  0.15064008626E+04  0.15339446522E+04  0.17229253450E+03 0.  0.
        -24    2    5    5    0    0 -0.11217522493E+03  0.20144498553E+03  0.13229483019E+04  0.13451794816E+04  0.78436375289E+02 0.  0.
          5    1    3    3  501    0 -0.40072787837E+02 -0.51360338398E+02  0.72323509627E+02  0.97449949873E+02  0.47000000000E+01 0. -1.
        -11    1    4    4    0    0  0.14359766383E+02 -0.90069842403E+02  0.18228581857E+03  0.20383056457E+03  0.00000000000E+00 0.  1.
         12    1    4    4    0    0  0.98187971427E+02 -0.79489038506E+02  0.24622221913E+03  0.27673952766E+03  0.00000000000E+00 0. -1.
         -5    1    5    5    0  502  0.39700274957E+02  0.19474233779E+02  0.18345256074E+03  0.18876517066E+03  0.47000000000E+01 0.  1.
         13    1    6    6    0    0 -0.41816167553E+02  0.16363147538E+02  0.20885049360E+03  0.21362320367E+03  0.00000000000E+00 0. -1.
        -14    1    6    6    0    0 -0.70359057377E+02  0.18508183799E+03  0.11140978083E+04  0.11315562779E+04  0.00000000000E+00 0.  1.
</event>
<event>
12    1  0.8226261E-002  0.2242508E+03  0.7818608E-02  0.1131619E+00
         21   -1    0    0  501  502  0.00000000000E+00  0.00000000000E+00  0.24977955138E+02  0.24977955138E+02  0.00000000000E+00 0.  1.
         21   -1    0    0  502  503 -0.00000000000E+00 -0.00000000000E+00 -0.19719247175E+04  0.19719247175E+04  0.00000000000E+00 0. -1.
         -6    2    1    2    0  503 -0.46742467014E+02  0.12796637144E+03 -0.96572801311E+03  0.99142273388E+03  0.17812409018E+03 0.  0.
        -24    2    3    3    0    0 -0.98259644835E+02  0.73873229499E+02 -0.57201220149E+03  0.59065557213E+03  0.81017494383E+02 0.  0.
          6    2    1    2  501    0  0.46742467014E+02 -0.12796637144E+03 -0.98121874922E+03  0.10054799387E+04  0.17216103777E+03 0.  0.
         24    2    5    5    0    0  0.86911495283E+02 -0.66335654299E+02 -0.76868611838E+03  0.78052637619E+03  0.79931522543E+02 0.  0.
          5    1    5    5  501    0 -0.40169028269E+02 -0.61630717136E+02 -0.21253263084E+03  0.22495356254E+03  0.47000000000E+01 0. -1.
        -13    1    6    6    0    0  0.23890566322E+02 -0.43482061599E+02 -0.14510399987E+03  0.15335129481E+03  0.00000000000E+00 0.  1.
         14    1    6    6    0    0  0.63020928961E+02 -0.22853592700E+02 -0.62358211851E+03  0.62717508138E+03  0.00000000000E+00 0. -1.
         -5    1    3    3    0  503  0.51517177821E+02  0.54093141936E+02 -0.39371581161E+03  0.40076716174E+03  0.47000000000E+01 0.  1.
         11    1    4    4    0    0 -0.63952861377E+02  0.13799448109E+02 -0.15972949669E+03  0.17260911146E+03  0.00000000000E+00 0. -1.
        -12    1    4    4    0    0 -0.34306783458E+02  0.60073781390E+02 -0.41228270480E+03  0.41804646067E+03  0.00000000000E+00 0.  1.
</event>
<event>
12    1  0.8226261E-002  0.1897503E+03  0.7818608E-02  0.1158768E+00
         21   -1    0    0  503  502  0.00000000000E+00  0.00000000000E+00  0.29883194120E+03  0.29883194120E+03  0.00000000000E+00 0.  1.
         21   -1    0    0  501  503 -0.00000000000E+00 -0.00000000000E+00 -0.29909651379E+03  0.29909651379E+03  0.00000000000E+00 0.  1.
          6    2    1    2  501    0  0.33245929263E+02 -0.73049211954E+02 -0.23130888868E+03  0.29918048275E+03  0.17194092037E+03 0.  0.
         24    2    3    3    0    0  0.94653313340E+01 -0.68548469983E+01 -0.21191331972E+03  0.22606763241E+03  0.77863585353E+02 0.  0.
         -6    2    1    2    0  502 -0.33245929263E+02  0.73049211954E+02  0.23104431609E+03  0.29874797223E+03  0.17154415098E+03 0.  0.
        -24    2    5    5    0    0 -0.63245411907E+02  0.82870902723E+01  0.77326233118E+02  0.12920316872E+03  0.81519657064E+02 0.  0.
          5    1    3    3  501    0  0.23780597929E+02 -0.66194364956E+02 -0.19395568962E+02  0.73112850342E+02  0.47000000000E+01 0. -1.
        -13    1    4    4    0    0 -0.31565295135E+02  0.11734013798E+02 -0.88479507312E+02  0.94671422040E+02  0.00000000000E+00 0.  1.
         14    1    4    4    0    0  0.41030626469E+02 -0.18588860796E+02 -0.12343381241E+03  0.13139621037E+03  0.00000000000E+00 0. -1.
         -5    1    5    5    0  502  0.29999482645E+02  0.64762121682E+02  0.15371808297E+03  0.16954480351E+03  0.47000000000E+01 0.  1.
         13    1    6    6    0    0 -0.17925915778E+02  0.36485153919E+02  0.75394090360E+01  0.41344257178E+02  0.00000000000E+00 0. -1.
        -14    1    6    6    0    0 -0.45319496129E+02 -0.28198063646E+02  0.69786824082E+02  0.87858911547E+02  0.00000000000E+00 0.  1.
</event>
<event>
12    1  0.8226261E-002  0.2388100E+03  0.7818608E-02  0.1120715E+00
         21   -1    0    0  501  502  0.00000000000E+00  0.00000000000E+00  0.13504643040E+04  0.13504643040E+04  0.00000000000E+00 0.  1.
         21   -1    0    0  502  503 -0.00000000000E+00 -0.00000000000E+00 -0.10322313925E+03  0.10322313925E+03  0.00000000000E+00 0.  1.
         -6    2    1    2    0  503 -0.14957764205E+03 -0.71028696197E+02  0.63890029039E+02  0.24647986023E+03  0.17103169005E+03 0.  0.
        -24    2    3    3    0    0 -0.23541115547E+02 -0.14240876049E+01  0.60047568327E+02  0.10237274016E+03  0.79487453843E+02 0.  0.
          6    2    1    2  501    0  0.14957764205E+03  0.71028696197E+02  0.11833511357E+04  0.12072075830E+04  0.17208047955E+03 0.  0.
         24    2    5    5    0    0  0.16926971961E+03  0.67987687049E+02  0.83509580082E+03  0.85835103094E+03  0.78146863013E+02 0.  0.
          5    1    5    5  501    0 -0.19692077560E+02  0.30410091482E+01  0.34825533484E+03  0.34885655204E+03  0.47000000000E+01 0. -1.
        -13    1    6    6    0    0  0.75405438933E+02 -0.10110953090E+02  0.34225089321E+03  0.35060502776E+03  0.00000000000E+00 0.  1.
         14    1    6    6    0    0  0.93864280679E+02  0.78098640139E+02  0.49284490762E+03  0.50774600318E+03  0.00000000000E+00 0. -1.
         -5    1    3    3    0  503 -0.12603652651E+03 -0.69604608592E+02  0.38424607121E+01  0.14410712007E+03  0.47000000000E+01 0.  1.
         13    1    4    4    0    0 -0.42683726017E+01 -0.31807408348E+02 -0.32209707853E+00  0.32094142410E+02  0.00000000000E+00 0. -1.
        -14    1    4    4    0    0 -0.19272742945E+02  0.30383320744E+02  0.60369665406E+02  0.70278597746E+02  0.00000000000E+00 0.  1.
</event>
<event>
12    1  0.8226261E-002  0.1933135E+03  0.7818608E-02  0.1158112E+00
         21   -1    0    0  501  502  0.00000000000E+00  0.00000000000E+00  0.73531812255E+03  0.73531812255E+03  0.00000000000E+00 0. -1.
         21   -1    0    0  502  503 -0.00000000000E+00 -0.00000000000E+00 -0.48079696155E+02  0.48079696155E+02  0.00000000000E+00 0.  1.
         -6    2    1    2    0  503  0.43606419942E+02  0.44158401516E+02  0.30667090237E+03  0.35654686935E+03  0.17095947881E+03 0.  0.
        -24    2    3    3    0    0 -0.18975152541E+02 -0.26585616895E+02  0.13418901204E+03  0.15984084034E+03  0.80470813648E+02 0.  0.
          6    2    1    2  501    0 -0.43606419942E+02 -0.44158401516E+02  0.38056752402E+03  0.42685094935E+03  0.18308087923E+03 0.  0.
         24    2    5    5    0    0 -0.90597324008E+02 -0.62028821109E+02  0.32070045364E+03  0.34853330717E+03  0.81063157322E+02 0.  0.
          5    1    5    5  501    0  0.46990904067E+02  0.17870419593E+02  0.59867070382E+02  0.78317642186E+02  0.47000000000E+01 0. -1.
        -11    1    6    6    0    0  0.27112877792E+01 -0.66708145872E+01  0.12141805284E+03  0.12163138741E+03  0.00000000000E+00 0.  1.
         12    1    6    6    0    0 -0.93308611788E+02 -0.55358006522E+02  0.19928240080E+03  0.22690191976E+03  0.00000000000E+00 0. -1.
         -5    1    3    3    0  503  0.62581572483E+02  0.70744018411E+02  0.17248189033E+03  0.19670602901E+03  0.47000000000E+01 0.  1.
         11    1    4    4    0    0 -0.46133263028E+01  0.11508393544E+02  0.11349797547E+03  0.11417318572E+03  0.00000000000E+00 0. -1.
        -12    1    4    4    0    0 -0.14361826238E+02 -0.38094010440E+02  0.20691036568E+02  0.45667654620E+02  0.00000000000E+00 0.  1.
</event>
<event>
12    1  0.8226261E-002  0.1884859E+03  0.7818608E-02  0.1160027E+00
         21   -1    0    0  503  502  0.00000000000E+00  0.00000000000E+00  0.40756269649E+03  0.40756269649E+03  0.00000000000E+00 0.  1.
         21   -1    0    0  501  503 -0.00000000000E+00 -0.00000000000E+00 -0.20048900852E+03  0.20048900852E+03  0.00000000000E+00 0. -1.
          6    2    1    2  501    0  0.74080454137E+02 -0.81309534407E+01 -0.12532473125E+03  0.22634760244E+03  0.17312689791E+03 0.  0.
         24    2    3    3    0    0  0.11792013676E+03  0.45269333379E+01 -0.90207988045E+02  0.16857723354E+03  0.79719199589E+02 0.  0.
         -6    2    1    2    0  502 -0.74080454137E+02  0.81309534407E+01  0.33239841923E+03  0.38170410257E+03  0.17220710416E+03 0.  0.
        -24    2    5    5    0    0  0.10508519954E+02 -0.44970613989E+01  0.24974303452E+03  0.26267148554E+03  0.80585814315E+02 0.  0.
          5    1    3    3  501    0 -0.43839682620E+02 -0.12657886779E+02 -0.35116743204E+02  0.57770368903E+02  0.47000000000E+01 0. -1.
        -13    1    4    4    0    0  0.92307883568E+01 -0.19110859364E+02  0.54050140622E+01  0.21900835060E+02  0.00000000000E+00 0.  1.
         14    1    4    4    0    0  0.10868934840E+03  0.23637792702E+02 -0.95613002107E+02  0.14667639848E+03  0.00000000000E+00 0. -1.
         -5    1    5    5    0  502 -0.84588974091E+02  0.12628014840E+02  0.82655384704E+02  0.11903261703E+03  0.47000000000E+01 0.  1.
         13    1    6    6    0    0  0.31060949326E+02 -0.20846228263E+02  0.57202638131E+02  0.68348296358E+02  0.00000000000E+00 0. -1.
        -14    1    6    6    0    0 -0.20552429372E+02  0.16349166864E+02  0.19254039639E+03  0.19432318918E+03  0.00000000000E+00 0.  1.
</event>
<event>
12    1  0.8226261E-002  0.2224466E+03  0.7818608E-02  0.1132238E+00
         21   -1    0    0  503  502  0.00000000000E+00  0.00000000000E+00  0.20252043810E+03  0.20252043810E+03  0.00000000000E+00 0. -1.
         21   -1    0    0  501  503 -0.00000000000E+00 -0.00000000000E+00 -0.31891470185E+03  0.31891470185E+03  0.00000000000E+00 0.  1.
          6    2    1    2  501    0 -0.12903059936E+03 -0.58071842569E+02 -0.18502039087E+03  0.28864328601E+03  0.17047336169E+03 0.  0.
         24    2    3    3    0    0 -0.13643207492E+03 -0.93475303090E+02 -0.16548754061E+03  0.24726927125E+03  0.80028888873E+02 0.  0.
         -6    2    1    2    0  502  0.12903059936E+03  0.58071842569E+02  0.68626127121E+02  0.23279185394E+03  0.17164284858E+03 0.  0.
        -24    2    5    5    0    0  0.49450694617E+01  0.54883075548E+02  0.19787360064E+02  0.99320126101E+02  0.80226816819E+02 0.  0.
          5    1    3    3  501    0  0.74014755606E+01  0.35403460521E+02 -0.19532850263E+02  0.41374014753E+02  0.47000000000E+01 0. -1.
        -13    1    4    4    0    0 -0.29205007387E+02 -0.28527993471E+02 -0.95111583990E+02  0.10350358582E+03  0.00000000000E+00 0.  1.
         14    1    4    4    0    0 -0.10722706754E+03 -0.64947309619E+02 -0.70375956620E+02  0.14376568544E+03  0.00000000000E+00 0. -1.
         -5    1    5    5    0  502  0.12408552990E+03  0.31887670202E+01  0.48838767057E+02  0.13347172784E+03  0.47000000000E+01 0.  1.
         13    1    6    6    0    0 -0.14957997060E+02  0.24082672944E+02  0.46145808722E+02  0.54158586344E+02  0.00000000000E+00 0. -1.
        -14    1    6    6    0    0  0.19903066522E+02  0.30800402605E+02 -0.26358448658E+02  0.45161539757E+02  0.00000000000E+00 0.  1.
</event>
<event>
12    1  0.8226261E-002  0.2224507E+03  0.7818608E-02  0.1132070E+00
         21   -1    0    0  503  502  0.00000000000E+00  0.00000000000E+00  0.93876693209E+02  0.93876693209E+02  0.00000000000E+00 0. -1.
         21   -1    0    0  501  503 -0.00000000000E+00 -0.00000000000E+00 -0.10665105451E+04  0.10665105451E+04  0.00000000000E+00 0.  1.
          6    2    1    2  501    0  0.80343473123E+02 -0.11604157178E+03 -0.89893987537E+03  0.92605464000E+03  0.17194061961E+03 0.  0.
         24    2    3    3    0    0  0.97279468045E+02 -0.91183279041E+02 -0.87023722006E+03  0.88421333189E+03  0.82114017297E+02 0.  0.
         -6    2    1    2    0  502 -0.80343473123E+02  0.11604157178E+03 -0.73693976563E+02  0.23433259836E+03  0.17193092920E+03 0.  0.
        -24    2    5    5    0    0 -0.48071833786E+02  0.14719652150E+03 -0.42822579398E+02  0.17967710677E+03  0.80451054976E+02 0.  0.
          5    1    3    3  501    0 -0.16935994922E+02 -0.24858292743E+02 -0.28702655312E+02  0.41841308106E+02  0.47000000000E+01 0. -1.
        -13    1    4    4    0    0  0.83426120832E+02 -0.93760228344E+02 -0.57033370334E+03  0.58397896471E+03  0.00000000000E+00 0.  1.
         14    1    4    4    0    0  0.13853347213E+02  0.25769493034E+01 -0.29990351672E+03  0.30023436718E+03  0.00000000000E+00 0. -1.
         -5    1    5    5    0  502 -0.32271639336E+02 -0.31154949717E+02 -0.30871397165E+02  0.54655491583E+02  0.47000000000E+01 0.  1.
         11    1    6    6    0    0  0.11789033223E+02  0.33305629341E+02  0.15291096254E+02  0.38497582714E+02  0.00000000000E+00 0. -1.
        -12    1    6    6    0    0 -0.59860867009E+02  0.11389089216E+03 -0.58113675653E+02  0.14117952406E+03  0.00000000000E+00 0.  1.
</event>
<event>
12    1  0.8226261E-002  0.2659318E+03  0.7818608E-02  0.1103687E+00
         21   -1    0    0  501  502  0.00000000000E+00  0.00000000000E+00  0.26389125420E+03  0.26389125420E+03  0.00000000000E+00 0.  1.
         21   -1    0    0  502  503 -0.00000000000E+00 -0.00000000000E+00 -0.29480952795E+03  0.29480952795E+03  0.00000000000E+00 0.  1.
         -6    2    1    2    0  503 -0.80359738477E+02  0.18618234385E+03  0.69398011962E+02  0.27483778874E+03  0.17204119660E+03 0.  0.
        -24    2    3    3    0    0 -0.53936003728E+02  0.47869251710E+02  0.81113088642E+02  0.13345865932E+03  0.77661591795E+02 0.  0.
          6    2    1    2  501    0  0.80359738477E+02 -0.18618234385E+03 -0.10031628571E+03  0.28386299342E+03  0.17144471157E+03 0.  0.
         24    2    5    5    0    0  0.36041168446E+02 -0.20241175413E+03 -0.87673296444E+02  0.23477669609E+03  0.71861019237E+02 0.  0.
          5    1    5    5  501    0  0.44318570030E+02  0.16229410280E+02 -0.12642989266E+02  0.49086297326E+02  0.47000000000E+01 0. -1.
        -13    1    6    6    0    0  0.19703954131E+02 -0.13966953970E+03 -0.22479558094E+02  0.14283261764E+03  0.00000000000E+00 0.  1.
         14    1    6    6    0    0  0.16337214315E+02 -0.62742214428E+02 -0.65193738350E+02  0.91944078455E+02  0.00000000000E+00 0. -1.
         -5    1    3    3    0  503 -0.26423734749E+02  0.13831309214E+03 -0.11715076680E+02  0.14137912942E+03  0.47000000000E+01 0.  1.
         11    1    4    4    0    0 -0.38152617916E+02 -0.14832517225E+02  0.37074153518E+02  0.55227879555E+02  0.00000000000E+00 0. -1.
        -12    1    4    4    0    0 -0.15783385811E+02  0.62701768935E+02  0.44038935124E+02  0.78230779762E+02  0.00000000000E+00 0.  1.
</event>
<event>
12    1  0.8226261E-002  0.2285741E+03  0.7818608E-02  0.1127681E+00
         21   -1    0    0  501  502  0.00000000000E+00  0.00000000000E+00  0.21070071956E+03  0.21070071956E+03  0.00000000000E+00 0. -1.
         21   -1    0    0  502  503 -0.00000000000E+00 -0.00000000000E+00 -0.26425239357E+03  0.26425239357E+03  0.00000000000E+00 0. -1.
         -6    2    1    2    0  503 -0.14207354119E+03  0.48706573820E+02  0.32539048919E+02  0.23087856919E+03  0.17230467948E+03 0.  0.
        -24    2    3    3    0    0 -0.14546434713E+03  0.17717844409E+02 -0.21844895408E+02  0.16801759310E+03  0.79239597656E+02 0.  0.
          6    2    1    2  501    0  0.14207354119E+03 -0.48706573820E+02 -0.86090722930E+02  0.24407454393E+03  0.17205681904E+03 0.  0.
         24    2    5    5    0    0  0.16575626084E+03 -0.16908048149E+02 -0.88536566969E+02  0.20407342397E+03  0.77757434237E+02 0.  0.
          5    1    5    5  501    0 -0.23682719651E+02 -0.31798525671E+02  0.24458440389E+01  0.40001119959E+02  0.47000000000E+01 0. -1.
        -13    1    6    6    0    0  0.13800531091E+02  0.22908334020E+02 -0.14351727572E+02  0.30351581676E+02  0.00000000000E+00 0.  1.
         14    1    6    6    0    0  0.15195572975E+03 -0.39816382169E+02 -0.74184839397E+02  0.17372184229E+03  0.00000000000E+00 0. -1.
         -5    1    3    3    0  503  0.33908059433E+01  0.30988729411E+02  0.54383944328E+02  0.62860976099E+02  0.47000000000E+01 0.  1.
         11    1    4    4    0    0 -0.58547359461E+02  0.27300878444E+02 -0.43564846893E+02  0.77916796318E+02  0.00000000000E+00 0. -1.
        -12    1    4    4    0    0 -0.86916987673E+02 -0.95830340346E+01  0.21719951485E+02  0.90100796777E+02  0.00000000000E+00 0.  1.
</event>
<event>
12    1  0.8226261E-002  0.1724459E+03  0.7818608E-02  0.1176206E+00
         21   -1    0    0  501  502  0.00000000000E+00  0.00000000000E+00  0.16603216684E+03  0.16603216684E+03  0.00000000000E+00 0. -1.
         21   -1    0    0  502  503 -0.00000000000E+00 -0.00000000000E+00 -0.25607030073E+03  0.25607030073E+03  0.00000000000E+00 0. -1.
         -6    2    1    2    0  503  0.13966310990E+02  0.29445040958E+02  0.73618574411E+02  0.18436079319E+03  0.16585276388E+03 0.  0.
        -24    2    3    3    0    0  0.57230606217E+02  0.37823619925E+02  0.62564784287E+01  0.10372741423E+03  0.77551688750E+02 0.  0.
          6    2    1    2  501    0 -0.13966310990E+02 -0.29445040958E+02 -0.16365670830E+03  0.23774167439E+03  0.16933846961E+03 0.  0.
         24    2    5    5    0    0  0.45424121320E+02 -0.45131636117E+02 -0.65191450895E+02  0.12159181587E+03  0.80214892890E+02 0.  0.
          5    1    5    5  501    0 -0.59390432310E+02  0.15686595160E+02 -0.98465257405E+02  0.11614985852E+03  0.47000000000E+01 0. -1.
        -13    1    6    6    0    0  0.41976836250E+02  0.36385564479E+01 -0.26635972878E+01  0.42218344651E+02  0.00000000000E+00 0.  1.
         14    1    6    6    0    0  0.34472850699E+01 -0.48770192565E+02 -0.62527853608E+02  0.79373471223E+02  0.00000000000E+00 0. -1.
         -5    1    3    3    0  503 -0.43264295227E+02 -0.83785789675E+01  0.67362095982E+02  0.80633378957E+02  0.47000000000E+01 0.  1.
         11    1    4    4    0    0  0.92908177254E+01 -0.20402077334E+02 -0.12962000707E+02  0.25895511501E+02  0.00000000000E+00 0. -1.
        -12    1    4    4    0    0  0.47939788492E+02  0.58225697259E+02  0.19218479136E+02  0.77831902728E+02  0.00000000000E+00 0.  1.
</event>
<event>
12    1  0.8226261E-002  0.1988239E+03  0.7818608E-02  0.1150991E+00
         21   -1    0    0  503  502  0.00000000000E+00  0.00000000000E+00  0.28383181385E+03  0.28383181385E+03  0.00000000000E+00 0.  1.
         21   -1    0    0  501  503 -0.00000000000E+00 -0.00000000000E+00 -0.14560815767E+03  0.14560815767E+03  0.00000000000E+00 0.  1.
          6    2    1    2  501    0 -0.82884517487E+02  0.52076748572E+02  0.21660751864E+02  0.20000028341E+03  0.17305806601E+03 0.  0.
         24    2    3    3    0    0 -0.58665790773E+01 -0.25839684583E+02 -0.12501648083E+02  0.85144317251E+02  0.79944715309E+02 0.  0.
         -6    2    1    2    0  502  0.82884517487E+02 -0.52076748572E+02  0.11656290431E+03  0.22943968811E+03  0.17167943627E+03 0.  0.
        -24    2    5    5    0    0  0.11176971350E+03 -0.52665595770E+01  0.10566133041E+03  0.17316817972E+03  0.79389522110E+02 0.  0.
          5    1    3    3  501    0 -0.77017938409E+02  0.77916433155E+02  0.34162399947E+02  0.11485596616E+03  0.47000000000E+01 0. -1.
        -13    1    4    4    0    0 -0.26729779159E+02 -0.18461957693E+02 -0.38911000485E+02  0.50689159931E+02  0.00000000000E+00 0.  1.
         14    1    4    4    0    0  0.20863200082E+02 -0.73777268891E+01  0.26409352401E+02  0.34455157320E+02  0.00000000000E+00 0. -1.
         -5    1    5    5    0  502 -0.28885196009E+02 -0.46810188995E+02  0.10901573903E+02  0.56271508384E+02  0.47000000000E+01 0.  1.
         13    1    6    6    0    0  0.10598870029E+03 -0.25134421986E+02  0.10665996326E+03  0.15245225981E+03  0.00000000000E+00 0. -1.
        -14    1    6    6    0    0  0.57810132069E+01  0.19867862409E+02 -0.99863285477E+00  0.20715919917E+02  0.00000000000E+00 0.  1.
</event>
<event>
12    1  0.8226261E-002  0.1961648E+03  0.7818608E-02  0.1153105E+00
         21   -1    0    0  503  502  0.00000000000E+00  0.00000000000E+00  0.51754889337E+02  0.51754889337E+02  0.00000000000E+00 0. -1.
         21   -1    0    0  501  503 -0.00000000000E+00 -0.00000000000E+00 -0.10385595875E+04  0.10385595875E+04  0.00000000000E+00 0.  1.
          6    2    1    2  501    0 -0.67715653317E+02  0.67792311323E+02 -0.20169662518E+03  0.28107081801E+03  0.17069876669E+03 0.  0.
         24    2    3    3    0    0  0.47140649720E+01 -0.23236481085E+00 -0.35301115501E+02  0.87207525210E+02  0.79603437713E+02 0.  0.
         -6    2    1    2    0  502  0.67715653317E+02 -0.67792311323E+02 -0.78510807298E+03  0.80924365882E+03  0.17117069231E+03 0.  0.
        -24    2    5    5    0    0  0.10788558342E+03 -0.71051496736E+02 -0.67987870268E+03  0.69646265002E+03  0.78342569567E+02 0.  0.
          5    1    3    3  501    0 -0.72429718289E+02  0.68024676134E+02 -0.16639550968E+03  0.19386329280E+03  0.47000000000E+01 0. -1.
        -13    1    4    4    0    0  0.14287538610E+02  0.26482221949E+02 -0.47572170412E+02  0.56289903505E+02  0.00000000000E+00 0.  1.
         14    1    4    4    0    0 -0.95734736382E+01 -0.26714586760E+02  0.12271054911E+02  0.30917621705E+02  0.00000000000E+00 0. -1.
         -5    1    5    5    0  502 -0.40169930104E+02  0.32591854122E+01 -0.10522937030E+03  0.11278100881E+03  0.47000000000E+01 0.  1.
         13    1    6    6    0    0 -0.39074379284E+01  0.83690805944E+01 -0.10706998777E+03  0.10746763169E+03  0.00000000000E+00 0. -1.
        -14    1    6    6    0    0  0.11179302135E+03 -0.79420577330E+02 -0.57280871492E+03  0.58899501832E+03  0.00000000000E+00 0.  1.
</event>
<event>
12    1  0.8226261E-002  0.2180329E+03  0.7818608E-02  0.1135774E+00
         21   -1    0    0  503  502  0.00000000000E+00  0.00000000000E+00  0.20965087766E+04  0.20965087766E+04  0.00000000000E+00 0. -1.
         21   -1    0    0  501  503 -0.00000000000E+00 -0.00000000000E+00 -0.23123193854E+02  0.23123193854E+02  0.00000000000E+00 0.  1.
          6    2    1    2  501    0  0.29447290745E+02 -0.12923098665E+03  0.12229129577E+04  0.12421974316E+04  0.17312009167E+03 0.  0.
         24    2    3    3    0    0 -0.45816409420E+02 -0.10377156882E+03  0.73578731981E+03  0.74861229851E+03  0.78547511923E+02 0.  0.
         -6    2    1    2    0  502 -0.29447290745E+02  0.12923098665E+03  0.85047262505E+03  0.87743453885E+03  0.17035226199E+03 0.  0.
        -24    2    5    5    0    0  0.28027968882E+02  0.24827449281E+02  0.48798228046E+03  0.49582630518E+03  0.79467286280E+02 0.  0.
          5    1    3    3  501    0  0.75263700165E+02 -0.25459417828E+02  0.48712563785E+03  0.49358513305E+03  0.47000000000E+01 0. -1.
        -11    1    4    4    0    0  0.17775493988E+02 -0.13080283354E+02  0.62669639581E+02  0.66442047864E+02  0.00000000000E+00 0.  1.
         12    1    4    4    0    0 -0.63591903407E+02 -0.90691285466E+02  0.67311768023E+03  0.68217025065E+03  0.00000000000E+00 0. -1.
         -5    1    5    5    0  502 -0.57475259627E+02  0.10440353737E+03  0.36249034460E+03  0.38160823368E+03  0.47000000000E+01 0.  1.
         13    1    6    6    0    0  0.48117852247E+02  0.71223942741E+01  0.17301343375E+03  0.17972118535E+03  0.00000000000E+00 0. -1.
        -14    1    6    6    0    0 -0.20089883364E+02  0.17705055007E+02  0.31496884671E+03  0.31610511983E+03  0.00000000000E+00 0.  1.
</event>
<event>
12    1  0.8226261E-002  0.1982974E+03  0.7818608E-02  0.1151480E+00
         21   -1    0    0  501  502  0.00000000000E+00  0.00000000000E+00  0.20447547526E+02  0.20447547526E+02  0.00000000000E+00 0. -1.
         21   -1    0    0  502  503 -0.00000000000E+00 -0.00000000000E+00 -0.24192731272E+04  0.24192731272E+04  0.00000000000E+00 0. -1.
         -6    2    1    2    0  503 -0.88285413743E+02  0.40779748229E+02 -0.17625971641E+04  0.17737166104E+04  0.17281362483E+03 0.  0.
        -24    2    3    3    0    0 -0.18140540956E+01  0.39512057906E+02 -0.13048980866E+04  0.13078953586E+04  0.79162864453E+02 0.  0.
          6    2    1    2  501    0  0.88285413743E+02 -0.40779748229E+02 -0.63622841554E+03  0.66600406431E+03  0.17122358127E+03 0.  0.
         24    2    5    5    0    0  0.13071189650E+02 -0.66460329521E+02 -0.24593175904E+03  0.26766973006E+03  0.81097613329E+02 0.  0.
          5    1    5    5  501    0  0.75214224092E+02  0.25680581293E+02 -0.39029665650E+03  0.39833433424E+03  0.47000000000E+01 0. -1.
        -13    1    6    6    0    0 -0.30829374338E+02 -0.68035806152E+01 -0.70965854060E+02  0.77671690297E+02  0.00000000000E+00 0.  1.
         14    1    6    6    0    0  0.43900563988E+02 -0.59656748906E+02 -0.17496590498E+03  0.18999803977E+03  0.00000000000E+00 0. -1.
         -5    1    3    3    0  503 -0.86471359647E+02  0.12676903231E+01 -0.45769907752E+03  0.46582125182E+03  0.47000000000E+01 0.  1.
         13    1    4    4    0    0 -0.17224077972E+02  0.59171808294E+02 -0.10391575280E+04  0.10409833522E+04  0.00000000000E+00 0. -1.
        -14    1    4    4    0    0  0.15410023876E+02 -0.19659750388E+02 -0.26574055863E+03  0.26691200633E+03  0.00000000000E+00 0.  1.
</event>
<event>
12    1  0.8226261E-002  0.1987083E+03  0.7818608E-02  0.1153266E+00
         21   -1    0    0  503  502  0.00000000000E+00  0.00000000000E+00  0.26277380435E+03  0.26277380435E+03  0.00000000000E+00 0. -1.
         21   -1    0    0  501  503 -0.00000000000E+00 -0.00000000000E+00 -0.14840400465E+03  0.14840400465E+03  0.00000000000E+00 0. -1.
          6    2    1    2  501    0  0.67695742071E+02  0.34853347869E+02  0.12900754372E+02  0.18806134475E+03  0.17147352732E+03 0.  0.
         24    2    3    3    0    0  0.28254600780E+02 -0.19587999788E+02  0.60519990980E+02  0.10554379718E+03  0.79339848844E+02 0.  0.
         -6    2    1    2    0  502 -0.67695742071E+02 -0.34853347869E+02  0.10146904532E+03  0.22311646425E+03  0.18354160321E+03 0.  0.
        -24    2    5    5    0    0 -0.54901827531E+01  0.40347375558E+01  0.12594304534E+03  0.14563819972E+03  0.72817671853E+02 0.  0.
          5    1    3    3  501    0  0.39441141291E+02  0.54441347656E+02 -0.47619236608E+02  0.82517547565E+02  0.47000000000E+01 0. -1.
        -11    1    4    4    0    0 -0.25462615461E+02  0.23723421087E+01  0.67944482258E+01  0.26460108086E+02  0.00000000000E+00 0.  1.
         12    1    4    4    0    0  0.53717216241E+02 -0.21960341896E+02  0.53725542754E+02  0.79083689097E+02  0.00000000000E+00 0. -1.
         -5    1    5    5    0  502 -0.62205559318E+02 -0.38888085424E+02 -0.24474000021E+02  0.77478264533E+02  0.47000000000E+01 0.  1.
         11    1    6    6    0    0 -0.39037720008E+02 -0.77571623736E+00  0.62034522074E+02  0.73299571950E+02  0.00000000000E+00 0. -1.
        -12    1    6    6    0    0  0.33547537254E+02  0.48104537932E+01  0.63908523266E+02  0.72338627770E+02  0.00000000000E+00 0.  1.
</event>
<event>
12    1  0.8226261E-002  0.1728403E+03  0.7818608E-02  0.1175042E+00
         21   -1    0    0  501  502  0.00000000000E+00  0.00000000000E+00  0.19844797783E+03  0.19844797783E+03  0.00000000000E+00 0.  1.
         21   -1    0    0  502  503 -0.00000000000E+00 -0.00000000000E+00 -0.17084989698E+03  0.17084989698E+03  0.00000000000E+00 0.  1.
         -6    2    1    2    0  503  0.91143490642E+01  0.54133179915E+01  0.78144532770E+02  0.18968487452E+03  0.17251495080E+03 0.  0.
        -24    2    3    3    0    0 -0.50678672686E+02  0.31798156234E+02  0.21823108633E+02  0.10328141420E+03  0.81310219794E+02 0.  0.
          6    2    1    2  501    0 -0.91143490642E+01 -0.54133179915E+01 -0.50546451924E+02  0.17961300029E+03  0.17202764516E+03 0.  0.
         24    2    5    5    0    0 -0.13742187637E+02 -0.43956827947E+02  0.23841958592E+02  0.95572863041E+02  0.80278781233E+02 0.  0.
          5    1    5    5  501    0  0.46278385732E+01  0.38543509955E+02 -0.74388410516E+02  0.84040137248E+02  0.47000000000E+01 0. -1.
        -11    1    6    6    0    0 -0.41356376731E+01 -0.54511460561E+02 -0.12888722230E+02  0.56166911898E+02  0.00000000000E+00 0.  1.
         12    1    6    6    0    0 -0.96065499643E+01  0.10554632615E+02  0.36730680822E+02  0.39405951143E+02  0.00000000000E+00 0. -1.
         -5    1    3    3    0  503  0.59793021750E+02 -0.26384838242E+02  0.56321424137E+02  0.86403460323E+02  0.47000000000E+01 0.  1.
         11    1    4    4    0    0 -0.47657673198E+02 -0.75736851972E+01  0.37174920077E+02  0.60914605842E+02  0.00000000000E+00 0. -1.
        -12    1    4    4    0    0 -0.30209994880E+01  0.39371841431E+02 -0.15351811444E+02  0.42366808355E+02  0.00000000000E+00 0.  1.
</event>
<event>
12    1  0.8226261E-002  0.1967954E+03  0.7818608E-02  0.1152736E+00
         21   -1    0    0  501  502  0.00000000000E+00  0.00000000000E+00  0.10484215887E+03  0.10484215887E+03  0.00000000000E+00 0. -1.
         21   -1    0    0  502  503 -0.00000000000E+00 -0.00000000000E+00 -0.79360984536E+03  0.79360984536E+03  0.00000000000E+00 0. -1.
         -6    2    1    2    0  503  0.34483633272E+02 -0.86507940525E+02 -0.67321135551E+03  0.70104271181E+03  0.17197270093E+03 0.  0.
        -24    2    3    3    0    0  0.38671522696E+02 -0.10830206806E+03 -0.34690324698E+03  0.37394701618E+03  0.79181333212E+02 0.  0.
          6    2    1    2  501    0 -0.34483633272E+02  0.86507940525E+02 -0.15556330979E+02  0.19740929242E+03  0.17336575372E+03 0.  0.
         24    2    5    5    0    0 -0.60882711844E+02  0.17224008759E+02 -0.53978604085E+02  0.11376997379E+03  0.77630832522E+02 0.  0.
          5    1    5    5  501    0  0.26399078572E+02  0.69283931766E+02  0.38422273105E+02  0.83639318631E+02  0.47000000000E+01 0. -1.
        -11    1    6    6    0    0  0.13647271536E+02  0.71149148579E+00 -0.31271385191E+02  0.34127024076E+02  0.00000000000E+00 0.  1.
         12    1    6    6    0    0 -0.74529983380E+02  0.16512517273E+02 -0.22707218894E+02  0.79642949714E+02  0.00000000000E+00 0. -1.
         -5    1    3    3    0  503 -0.41878894243E+01  0.21794127536E+02 -0.32630810853E+03  0.32709569564E+03  0.47000000000E+01 0.  1.
         13    1    4    4    0    0  0.33303479558E+02 -0.10814883418E+03 -0.34993726389E+03  0.36777898356E+03  0.00000000000E+00 0. -1.
        -14    1    4    4    0    0  0.53680431377E+01 -0.15323387585E+00  0.30340169142E+01  0.61680326187E+01  0.00000000000E+00 0.  1.
</event>
<event>
12    1  0.8226261E-002  0.2083685E+03  0.7818608E-02  0.1142951E+00
         21   -1    0    0  503  502  0.00000000000E+00  0.00000000000E+00  0.85789707995E+03  0.85789707995E+03  0.00000000000E+00 0.  1.
         21   -1    0    0  501  503 -0.00000000000E+00 -0.00000000000E+00 -0.85527023473E+02  0.85527023473E+02  0.00000000000E+00 0. -1.
          6    2    1    2  501    0 -0.23119284550E+02 -0.11532389992E+03  0.84091685453E+02  0.22429648403E+03  0.17147419040E+03 0.  0.
         24    2    3    3    0    0  0.37192874746E+02 -0.12261205371E+02  0.29162071159E+02  0.92771474643E+02  0.78882653505E+02 0.  0.
         -6    2    1    2    0  502  0.23119284550E+02  0.11532389992E+03  0.68827837102E+03  0.71912761939E+03  0.17199800506E+03 0.  0.
        -24    2    5    5    0    0  0.48343965990E+02  0.13033166006E+03  0.65986066469E+03  0.67800374006E+03  0.70352640823E+02 0.  0.
          5    1    3    3  501    0 -0.60312159296E+02 -0.10306269455E+03  0.54929614295E+02  0.13152500939E+03  0.47000000000E+01 0. -1.
        -13    1    4    4    0    0  0.23610128802E+01  0.28911255062E+02 -0.42693454708E+01  0.29319999349E+02  0.00000000000E+00 0.  1.
         14    1    4    4    0    0  0.34831861866E+02 -0.41172460433E+02  0.33431416629E+02  0.63451475294E+02  0.00000000000E+00 0. -1.
         -5    1    5    5    0  502 -0.25224681440E+02 -0.15007760140E+02  0.28417706337E+02  0.41123879337E+02  0.47000000000E+01 0.  1.
         11    1    6    6    0    0  0.23736262680E+02  0.15504359680E+02  0.55311599413E+02  0.62154391355E+02  0.00000000000E+00 0. -1.
        -12    1    6    6    0    0  0.24607703310E+02  0.11482730038E+03  0.60454906527E+03  0.61584934870E+03  0.00000000000E+00 0.  1.
</event>
<event>
12    1  0.8226261E-002  0.2666040E+03  0.7818608E-02  0.1104616E+00
         21   -1    0    0  501  502  0.00000000000E+00  0.00000000000E+00  0.31402462075E+03  0.31402462075E+03  0.00000000000E+00 0.  1.
         21   -1    0    0  502  503 -0.00000000000E+00 -0.00000000000E+00 -0.23513617950E+03  0.23513617950E+03  0.00000000000E+00 0. -1.
         -6    2    1    2    0  503  0.79529711180E+02 -0.17301345252E+03  0.11176756624E+03  0.28053699961E+03  0.17306180853E+03 0.  0.
        -24    2    3    3    0    0  0.47202090377E+02 -0.36779495791E+02 -0.17409381473E+02  0.89975881190E+02  0.64898412816E+02 0.  0.
          6    2    1    2  501    0 -0.79529711180E+02  0.17301345252E+03 -0.32879124991E+02  0.26862380065E+03  0.18659871302E+03 0.  0.
         24    2    5    5    0    0  0.18471771995E+02  0.45114776102E+02  0.26457653156E+02  0.96852716428E+02  0.79397052122E+02 0.  0.
          5    1    5    5  501    0 -0.98001483175E+02  0.12789867642E+03 -0.59336778148E+02  0.17177108422E+03  0.47000000000E+01 0. -1.
        -13    1    6    6    0    0 -0.21178901657E+02  0.29116180372E+02  0.38219888853E+02  0.52507692187E+02  0.00000000000E+00 0.  1.
         14    1    6    6    0    0  0.39650673652E+02  0.15998595730E+02 -0.11762235696E+02  0.44345024241E+02  0.00000000000E+00 0. -1.
         -5    1    3    3    0  503  0.32327620803E+02 -0.13623395673E+03  0.12917694771E+03  0.19056111842E+03  0.47000000000E+01 0.  1.
         13    1    4    4    0    0  0.25361983560E+02 -0.48442781654E+02 -0.29817127780E+02  0.62281573628E+02  0.00000000000E+00 0. -1.
        -14    1    4    4    0    0  0.21840106818E+02  0.11663285863E+02  0.12407746308E+02  0.27694307562E+02  0.00000000000E+00 0.  1.
</event>
<event>
12    1  0.8226261E-002  0.1994024E+03  0.7818608E-02  0.1152093E+00
         21   -1    0    0  501  502  0.00000000000E+00  0.00000000000E+00  0.13411598551E+03  0.13411598551E+03  0.00000000000E+00 0. -1.
         21   -1    0    0  502  503 -0.00000000000E+00 -0.00000000000E+00 -0.81578064213E+03  0.81578064213E+03  0.00000000000E+00 0. -1.
         -6    2    1    2    0  503 -0.58675180761E+02  0.56645626920E+02 -0.72688713692E+03  0.75374149116E+03  0.18196104473E+03 0.  0.
        -24    2    3    3    0    0 -0.11121820372E+03  0.50304955640E+02 -0.53776432744E+03  0.55729684136E+03  0.80555695746E+02 0.  0.
          6    2    1    2  501    0  0.58675180761E+02 -0.56645626920E+02  0.45222480303E+02  0.19615513648E+03  0.17256958294E+03 0.  0.
         24    2    5    5    0    0  0.13404797091E+02  0.14047625206E+02  0.70696604396E+02  0.10830318981E+03  0.79715410630E+02 0.  0.
          5    1    5    5  501    0  0.45270383670E+02 -0.70693252127E+02 -0.25474124092E+02  0.87851946661E+02  0.47000000000E+01 0. -1.
        -13    1    6    6    0    0 -0.21407056974E+02 -0.22670033696E+02  0.31268793025E+02  0.44158010976E+02  0.00000000000E+00 0.  1.
         14    1    6    6    0    0  0.34811854066E+02  0.36717658903E+02  0.39427811370E+02  0.64145178839E+02  0.00000000000E+00 0. -1.
         -5    1    3    3    0  503  0.52543022959E+02  0.63406712805E+01 -0.18912280947E+03  0.19644464981E+03  0.47000000000E+01 0.  1.
         13    1    4    4    0    0 -0.51810728489E+02  0.28114655076E+02 -0.10946155407E+03  0.12432464452E+03  0.00000000000E+00 0. -1.
        -14    1    4    4    0    0 -0.59407475231E+02  0.22190300564E+02 -0.42830277337E+03  0.43297219684E+03  0.00000000000E+00 0.  1.
</event>
<event>
12    1  0.8226261E-002  0.1795868E+03  0.7818608E-02  0.1169509E+00
         21   -1    0    0  501  502  0.00000000000E+00  0.00000000000E+00  0.80956168905E+02  0.80956168905E+02  0.00000000000E+00 0.  1.
         21   -1    0    0  502  503 -0.00000000000E+00 -0.00000000000E+00 -0.54888876584E+03  0.54888876584E+03  0.00000000000E+00 0.  1.
         -6    2    1    2    0  503 -0.83162760241E+01  0.36336986742E+02 -0.60337942511E+02  0.18444084079E+03  0.17025927110E+03 0.  0.
        -24    2    3    3    0    0 -0.52591568861E+02 -0.45847639142E+01 -0.75660955591E+02  0.12205674056E+03  0.79914795494E+02 0.  0.
          6    2    1    2  501    0  0.83162760241E+01 -0.36336986742E+02 -0.40759465442E+03  0.44540409395E+03  0.17567546084E+03 0.  0.
         24    2    5    5    0    0 -0.44488188098E+02 -0.67594071471E+02 -0.21634209267E+03  0.24449379269E+03  0.80157072196E+02 0.  0.
          5    1    5    5  501    0  0.52804464122E+02  0.31257084729E+02 -0.19125256175E+03  0.20091030126E+03  0.47000000000E+01 0. -1.
        -13    1    6    6    0    0 -0.21754627967E+02 -0.78756667162E+02 -0.12215895780E+03  0.14696491905E+03  0.00000000000E+00 0.  1.
         14    1    6    6    0    0 -0.22733560131E+02  0.11162595691E+02 -0.94183134874E+02  0.97528873640E+02  0.00000000000E+00 0. -1.
         -5    1    3    3    0  503  0.44275292837E+02  0.40921750656E+02  0.15323013080E+02  0.62384100237E+02  0.47000000000E+01 0.  1.
         13    1    4    4    0    0 -0.43800510753E+02  0.16011012646E+02 -0.38025877099E+01  0.46789923503E+02  0.00000000000E+00 0. -1.
        -14    1    4    4    0    0 -0.87910581089E+01 -0.20595776561E+02 -0.71858367881E+02  0.75266817053E+02  0.00000000000E+00 0.  1.
</event>
<event>
12    1  0.8226261E-002  0.1854126E+03  0.7818608E-02  0.1163166E+00
         21   -1    0    0  503  502  0.00000000000E+00  0.00000000000E+00  0.54958498583E+02  0.54958498583E+02  0.00000000000E+00 0. -1.
         21   -1    0    0  501  503 -0.00000000000E+00 -0.00000000000E+00 -0.63914606324E+03  0.63914606324E+03  0.00000000000E+00 0. -1.
          6    2    1    2  501    0 -0.41730362378E+02  0.47722461064E+02 -0.35637376913E+03  0.40172140787E+03  0.17423825581E+03 0.  0.
         24    2    3    3    0    0 -0.88412086286E+02  0.74450259604E+01 -0.26677757330E+03  0.29285900191E+03  0.81999975426E+02 0.  0.
         -6    2    1    2    0  502  0.41730362378E+02 -0.47722461064E+02 -0.22781379553E+03  0.29238315395E+03  0.17195908481E+03 0.  0.
        -24    2    5    5    0    0  0.30610883123E+02 -0.97366486061E+02 -0.18546449947E+03  0.22602258649E+03  0.79195140428E+02 0.  0.
          5    1    3    3  501    0  0.46681723908E+02  0.40277435103E+02 -0.89596195829E+02  0.10886240597E+03  0.47000000000E+01 0. -1.
        -13    1    4    4    0    0  0.56331112909E+01  0.71704415239E+01  0.87911464668E+00  0.91607869218E+01  0.00000000000E+00 0.  1.
         14    1    4    4    0    0 -0.94045197577E+02  0.27458443645E+00 -0.26765668794E+03  0.28369821498E+03  0.00000000000E+00 0. -1.
         -5    1    5    5    0  502  0.11119479255E+02  0.49644024998E+02 -0.42349296064E+02  0.66360567463E+02  0.47000000000E+01 0.  1.
         13    1    6    6    0    0  0.12822086994E+02 -0.32523605581E+02 -0.74665584803E+01  0.35748291294E+02  0.00000000000E+00 0. -1.
        -14    1    6    6    0    0  0.17788796130E+02 -0.64842880480E+02 -0.17799794099E+03  0.19027429520E+03  0.00000000000E+00 0.  1.
</event>
<event>
12    1  0.8226261E-002  0.1776401E+03  0.7818608E-02  0.1170194E+00
         21   -1    0    0  503  502  0.00000000000E+00  0.00000000000E+00  0.30232582494E+03  0.30232582494E+03  0.00000000000E+00 0.  1.
         21   -1    0    0  501  503 -0.00000000000E+00 -0.00000000000E+00 -0.18322170119E+03  0.18322170119E+03  0.00000000000E+00 0.  1.
          6    2    1    2  501    0  0.44544867622E+02 -0.33639795993E+01 -0.99880115280E+02  0.20379410811E+03  0.17193149648E+03 0.  0.
         24    2    3    3    0    0  0.85569883815E+02 -0.16001857566E+02 -0.10784584462E+03  0.15988157280E+03  0.79706503226E+02 0.  0.
         -6    2    1    2    0  502 -0.44544867622E+02  0.33639795993E+01  0.21898423904E+03  0.28175341802E+03  0.17156727552E+03 0.  0.
        -24    2    5    5    0    0  0.40459639931E+02  0.15068880000E+02  0.10020381452E+03  0.13514628911E+03  0.79747485286E+02 0.  0.
          5    1    3    3  501    0 -0.41025016193E+02  0.12637877967E+02  0.79657293445E+01  0.43912535307E+02  0.47000000000E+01 0. -1.
        -11    1    4    4    0    0  0.32957439172E+02 -0.28022517345E+02 -0.95028782515E+02  0.10441227792E+03  0.00000000000E+00 0.  1.
         12    1    4    4    0    0  0.52612444643E+02  0.12020659779E+02 -0.12817062110E+02  0.55469294875E+02  0.00000000000E+00 0. -1.
         -5    1    5    5    0  502 -0.85004507553E+02 -0.11704900401E+02  0.11878042452E+03  0.14660712891E+03  0.47000000000E+01 0.  1.
         11    1    6    6    0    0  0.57473688812E+02 -0.61194505596E+01  0.88172547035E+02  0.10542803532E+03  0.00000000000E+00 0. -1.
        -12    1    6    6    0    0 -0.17014048882E+02  0.21188330560E+02  0.12031267483E+02  0.29718253793E+02  0.00000000000E+00 0.  1.
</event>
<event>
12    1  0.8226261E-002  0.1958990E+03  0.7818608E-02  0.1153420E+00
         21   -1    0    0  501  502  0.00000000000E+00  0.00000000000E+00  0.28896107512E+03  0.28896107512E+03  0.00000000000E+00 0.  1.
         21   -1    0    0  502  503 -0.00000000000E+00 -0.00000000000E+00 -0.16552891612E+03  0.16552891612E+03  0.00000000000E+00 0.  1.
         -6    2    1    2    0  503 -0.91127272392E+02 -0.24258500071E+02 -0.40053387813E+02  0.19995172250E+03  0.17170836571E+03 0.  0.
        -24    2    3    3    0    0 -0.11678976065E+03  0.13748914002E+02 -0.53521630527E+02  0.15192453863E+03  0.79922585514E+02 0.  0.
          6    2    1    2  501    0  0.91127272392E+02  0.24258500071E+02  0.16348554681E+03  0.25453826875E+03  0.17079095890E+03 0.  0.
         24    2    5    5    0    0  0.11187149674E+03 -0.13337375454E+02  0.15972631650E+03  0.21117936525E+03  0.79944422926E+02 0.  0.
          5    1    5    5  501    0 -0.20744224350E+02  0.37595875525E+02  0.37592303120E+01  0.43358903502E+02  0.47000000000E+01 0. -1.
        -11    1    6    6    0    0  0.20062127772E+02 -0.52380586456E+01  0.98197231385E+02  0.10036245553E+03  0.00000000000E+00 0.  1.
         12    1    6    6    0    0  0.91809368970E+02 -0.80993168085E+01  0.61529085111E+02  0.11081690971E+03  0.00000000000E+00 0. -1.
         -5    1    3    3    0  503  0.25662488258E+02 -0.38007414073E+02  0.13468242714E+02  0.48027183864E+02  0.47000000000E+01 0.  1.
         11    1    4    4    0    0 -0.14566654620E+02 -0.33741878602E+01  0.19911184690E+02  0.24900358356E+02  0.00000000000E+00 0. -1.
        -12    1    4    4    0    0 -0.10222310603E+03  0.17123101862E+02 -0.73432815217E+02  0.12702418028E+03  0.00000000000E+00 0.  1.
</event>
<event>
12    1  0.8226261E-002  0.1854633E+03  0.7818608E-02  0.1162988E+00
         21   -1    0    0  501  502  0.00000000000E+00  0.00000000000E+00  0.41779491978E+03  0.41779491978E+03  0.00000000000E+00 0. -1.
         21   -1    0    0  502  503 -0.00000000000E+00 -0.00000000000E+00 -0.27448100709E+03  0.27448100709E+03  0.00000000000E+00 0. -1.
         -6    2    1    2    0  503 -0.69875150804E+02  0.42262299234E+01 -0.21839019350E+03  0.28651510151E+03  0.17174466237E+03 0.  0.
        -24    2    3    3    0    0 -0.78923904609E+01  0.45747225989E+02 -0.52951565813E+02  0.10497203437E+03  0.77847036966E+02 0.  0.
          6    2    1    2  501    0  0.69875150804E+02 -0.42262299234E+01  0.36170410620E+03  0.40576082537E+03  0.17003408260E+03 0.  0.
         24    2    5    5    0    0  0.25883231298E+02 -0.43879430982E+02  0.10086964689E+03  0.13824564729E+03  0.79635590078E+02 0.  0.
          5    1    5    5  501    0  0.43991919507E+02  0.39653201059E+02  0.26083445931E+03  0.26751517807E+03  0.47000000000E+01 0. -1.
        -11    1    6    6    0    0  0.36885867679E+01  0.19105622076E+02  0.28899397176E+01  0.19671863634E+02  0.00000000000E+00 0.  1.
         12    1    6    6    0    0  0.22194644530E+02 -0.62985053059E+02  0.97979707169E+02  0.11857378366E+03  0.00000000000E+00 0. -1.
         -5    1    3    3    0  503 -0.61982760344E+02 -0.41520996066E+02 -0.16543862769E+03  0.18154306714E+03  0.47000000000E+01 0.  1.
         13    1    4    4    0    0 -0.84844091355E+01 -0.18335421553E+02  0.23305166461E+01  0.20337261117E+02  0.00000000000E+00 0. -1.
        -14    1    4    4    0    0  0.59201867461E+00  0.64082647543E+02 -0.55282082459E+02  0.84634773251E+02  0.00000000000E+00 0.  1.
</event>
<event>
12    1  0.8226261E-002  0.1984068E+03  0.7818608E-02  0.1151353E+00
         21   -1    0    0  501  502  0.00000000000E+00  0.00000000000E+00  0.27311184625E+03  0.27311184625E+03  0.00000000000E+00 0.  1.
         21   -1    0    0  502  503 -0.00000000000E+00 -0.00000000000E+00 -0.14618057113E+03  0.14618057113E+03  0.00000000000E+00 0.  1.
         -6    2    1    2    0  503 -0.95857412250E+02 -0.25224013155E+02  0.93362603231E+02  0.21927567509E+03  0.17187306852E+03 0.  0.
        -24    2    3    3    0    0 -0.56356861097E+02 -0.76337244449E+02  0.27260905547E+02  0.12673173747E+03  0.79462605215E+02 0.  0.
          6    2    1    2  501    0  0.95857412250E+02  0.25224013155E+02  0.33568671895E+02  0.20001674229E+03  0.17045511767E+03 0.  0.
         24    2    5    5    0    0  0.92965551047E+02 -0.40789025077E+02  0.37353658765E+02  0.13366540316E+03  0.78516278128E+02 0.  0.
          5    1    5    5  501    0  0.28918612028E+01  0.66013038231E+02 -0.37849868705E+01  0.66351339123E+02  0.47000000000E+01 0. -1.
        -11    1    6    6    0    0  0.20113517278E+02 -0.49014412876E+02  0.27495729022E+02  0.59690714197E+02  0.00000000000E+00 0.  1.
         12    1    6    6    0    0  0.72852033769E+02  0.82253877990E+01  0.98579297429E+01  0.73974688965E+02  0.00000000000E+00 0. -1.
         -5    1    3    3    0  503 -0.39500551153E+02  0.51113231294E+02  0.66101697684E+02  0.92543937627E+02  0.47000000000E+01 0.  1.
         13    1    4    4    0    0  0.15320611248E+02 -0.41158411222E+02  0.10075323056E+02  0.45058274246E+02  0.00000000000E+00 0. -1.
        -14    1    4    4    0    0 -0.71677472346E+02 -0.35178833227E+02  0.17185582490E+02  0.81673463222E+02  0.00000000000E+00 0.  1.
</event>
<event>
12    1  0.8226261E-002  0.3176087E+03  0.7818608E-02  0.1076780E+00
         21   -1    0    0  501  502  0.00000000000E+00  0.00000000000E+00  0.12141910754E+04  0.12141910754E+04  0.00000000000E+00 0.  1.
         21   -1    0    0  502  503 -0.00000000000E+00 -0.00000000000E+00 -0.34443582805E+03  0.34443582805E+03  0.00000000000E+00 0. -1.
         -6    2    1    2    0  503  0.52069732994E+02  0.26192940704E+03 -0.24401020391E+03  0.40051999257E+03  0.17192153288E+03 0.  0.
        -24    2    3    3    0    0 -0.21342230788E+02  0.72669397573E+02 -0.45740873328E+02  0.11672167499E+03  0.76127457340E+02 0.  0.
          6    2    1    2  501    0 -0.52069732994E+02 -0.26192940704E+03  0.11137654513E+04  0.11581069109E+04  0.17152220049E+03 0.  0.
         24    2    5    5    0    0  0.35677861784E+02 -0.16314474816E+03  0.64326703603E+03  0.66938521303E+03  0.79968525760E+02 0.  0.
          5    1    5    5  501    0 -0.87747594778E+02 -0.98784658880E+02  0.47049841523E+03  0.48872169785E+03  0.47000000000E+01 0. -1.
        -11    1    6    6    0    0  0.17800890202E+01 -0.94966204891E+02  0.47904626087E+03  0.48837185509E+03  0.00000000000E+00 0.  1.
         12    1    6    6    0    0  0.33897772764E+02 -0.68178543272E+02  0.16422077516E+03  0.18101335794E+03  0.00000000000E+00 0. -1.
         -5    1    3    3    0  503  0.73411963782E+02  0.18926000947E+03 -0.19826933058E+03  0.28379831758E+03  0.47000000000E+01 0.  1.
         11    1    4    4    0    0  0.22157589975E+02  0.41982370881E+01 -0.23580926482E+02  0.32628884165E+02  0.00000000000E+00 0. -1.
        -12    1    4    4    0    0 -0.43499820762E+02  0.68471160485E+02 -0.22159946847E+02  0.84092790825E+02  0.00000000000E+00 0.  1.
</event>
<event>
12    1  0.8226261E-002  0.2330844E+03  0.7818608E-02  0.1124848E+00
         21   -1    0    0  501  502  0.00000000000E+00  0.00000000000E+00  0.52562241448E+03  0.52562241448E+03  0.00000000000E+00 0.  1.
         21   -1    0    0  502  503 -0.00000000000E+00 -0.00000000000E+00 -0.10391489084E+03  0.10391489084E+03  0.00000000000E+00 0.  1.
         -6    2    1    2    0  503  0.11174247664E+03 -0.10816549416E+03  0.24740274348E+03  0.33848662420E+03  0.17081838916E+03 0.  0.
        -24    2    3    3    0    0  0.65643993822E+01 -0.17497261870E+01  0.11482472477E+03  0.13852221574E+03  0.77185063026E+02 0.  0.
          6    2    1    2  501    0 -0.11174247664E+03  0.10816549416E+03  0.17430478017E+03  0.29105068112E+03  0.17361505517E+03 0.  0.
         24    2    5    5    0    0 -0.14206005107E+03  0.87875314904E+02  0.10468530945E+03  0.21231182542E+03  0.78829995049E+02 0.  0.
          5    1    5    5  501    0  0.30317574437E+02  0.20290179256E+02  0.69619470712E+02  0.78738855695E+02  0.47000000000E+01 0. -1.
        -13    1    6    6    0    0 -0.30489968623E+01  0.28354263703E+02  0.21937053775E+00  0.28518568959E+02  0.00000000000E+00 0.  1.
         14    1    6    6    0    0 -0.13901105421E+03  0.59521051201E+02  0.10446593892E+03  0.18379325647E+03  0.00000000000E+00 0. -1.
         -5    1    3    3    0  503  0.10517807725E+03 -0.10641576797E+03  0.13257801871E+03  0.19996440846E+03  0.47000000000E+01 0.  1.
         13    1    4    4    0    0  0.25960840897E+02  0.28563734640E+02  0.40523340911E+02  0.55964214953E+02  0.00000000000E+00 0. -1.
        -14    1    4    4    0    0 -0.19396441515E+02 -0.30313460827E+02  0.74301383860E+02  0.82558000789E+02  0.00000000000E+00 0.  1.
</event>
<event>
12    1  0.8226261E-002  0.2091966E+03  0.7818608E-02  0.1142285E+00
         21   -1    0    0  503  502  0.00000000000E+00  0.00000000000E+00  0.16102039050E+04  0.16102039050E+04  0.00000000000E+00 0.  1.
         21   -1    0    0  501  503 -0.00000000000E+00 -0.00000000000E+00 -0.30002606843E+02  0.30002606843E+02  0.00000000000E+00 0.  1.
          6    2    1    2  501    0 -0.14556939745E+02  0.11700191904E+03  0.53544480580E+03  0.57471162278E+03  0.17231063735E+03 0.  0.
         24    2    3    3    0    0  0.23809027134E+01  0.12601759999E+03  0.53457145294E+03  0.55493725160E+03  0.79388983539E+02 0.  0.
         -6    2    1    2    0  502  0.14556939745E+02 -0.11700191904E+03  0.10447564924E+04  0.10654948891E+04  0.17280589326E+03 0.  0.
        -24    2    5    5    0    0 -0.13276061704E+01 -0.26071413735E+02  0.23873684546E+03  0.25419319624E+03  0.83291166895E+02 0.  0.
          5    1    3    3  501    0 -0.16937842458E+02 -0.90156809534E+01  0.87335285624E+00  0.19774371176E+02  0.47000000000E+01 0. -1.
        -11    1    4    4    0    0  0.20838742067E+02  0.36963239303E+00  0.10206677354E+03  0.10417301023E+03  0.00000000000E+00 0.  1.
         12    1    4    4    0    0 -0.18457839353E+02  0.12564796760E+03  0.43250467940E+03  0.45076424137E+03  0.00000000000E+00 0. -1.
         -5    1    5    5    0  502  0.15884545915E+02 -0.90930505305E+02  0.80601964691E+03  0.81130169284E+03  0.47000000000E+01 0.  1.
         11    1    6    6    0    0  0.31729660340E+02  0.12560769005E+00  0.17439863646E+03  0.17726159065E+03  0.00000000000E+00 0. -1.
        -12    1    6    6    0    0 -0.33057266511E+02 -0.26197021425E+02  0.64338209001E+02  0.76931605586E+02  0.00000000000E+00 0.  1.
</event>
<event>
12    1  0.8226261E-002  0.1975338E+03  0.7818608E-02  0.1151974E+00
         21   -1    0    0  503  502  0.00000000000E+00  0.00000000000E+00  0.68656272971E+02  0.68656272971E+02  0.00000000000E+00 0.  1.
         21   -1    0    0  501  503 -0.00000000000E+00 -0.00000000000E+00 -0.89866272236E+03  0.89866272236E+03  0.00000000000E+00 0.  1.
          6    2    1    2  501    0  0.73882585013E+02  0.61099635516E+02 -0.12052568234E+03  0.23085271791E+03  0.17197306601E+03 0.  0.
         24    2    3    3    0    0 -0.76107426163E+00  0.72201054569E+02 -0.10995575827E+03  0.15450659378E+03  0.81045957515E+02 0.  0.
         -6    2    1    2    0  502 -0.73882585013E+02 -0.61099635516E+02 -0.70948076705E+03  0.73646627743E+03  0.17270731639E+03 0.  0.
        -24    2    5    5    0    0 -0.10120541019E+03 -0.59724683216E+02 -0.68455786046E+03  0.69916120347E+03  0.79983443803E+02 0.  0.
          5    1    3    3  501    0  0.74643659274E+02 -0.11101419053E+02 -0.10569924068E+02  0.76346124130E+02  0.47000000000E+01 0. -1.
        -11    1    4    4    0    0  0.27448628457E+02  0.13508984846E+02 -0.50121147893E+01  0.31000664032E+02  0.00000000000E+00 0.  1.
         12    1    4    4    0    0 -0.28209702719E+02  0.58692069724E+02 -0.10494364348E+03  0.12350592975E+03  0.00000000000E+00 0. -1.
         -5    1    5    5    0  502  0.27322825181E+02 -0.13749523003E+01 -0.24922906595E+02  0.37305073956E+02  0.47000000000E+01 0.  1.
         11    1    6    6    0    0 -0.38052393021E+02 -0.23525879323E+02 -0.93654677588E+02  0.10379137848E+03  0.00000000000E+00 0. -1.
        -12    1    6    6    0    0 -0.63153017173E+02 -0.36198803894E+02 -0.59090318287E+03  0.59536982499E+03  0.00000000000E+00 0.  1.
</event>
<event>
12    1  0.8226261E-002  0.2510533E+03  0.7818608E-02  0.1112921E+00
         21   -1    0    0  503  502  0.00000000000E+00  0.00000000000E+00  0.26305538346E+03  0.26305538346E+03  0.00000000000E+00 0.  1.
         21   -1    0    0  501  503 -0.00000000000E+00 -0.00000000000E+00 -0.33938572916E+03  0.33938572916E+03  0.00000000000E+00 0.  1.
          6    2    1    2  501    0  0.14940973913E+03 -0.10189202685E+03 -0.20297155558E+03  0.32283927836E+03  0.17413354643E+03 0.  0.
         24    2    3    3    0    0  0.12908894778E+03 -0.15293141737E+02 -0.83328587134E+02  0.17367885679E+03  0.79516383460E+02 0.  0.
         -6    2    1    2    0  502 -0.14940973913E+03  0.10189202685E+03  0.12664120989E+03  0.27960183425E+03  0.17156320816E+03 0.  0.
        -24    2    5    5    0    0 -0.62682199180E+02  0.10137531073E+03  0.12608866800E+03  0.19274374031E+03  0.83939177456E+02 0.  0.
          5    1    3    3  501    0  0.20320791350E+02 -0.86598885113E+02 -0.11964296845E+03  0.14916042157E+03  0.47000000000E+01 0. -1.
        -11    1    4    4    0    0  0.80811706603E+02 -0.46273084045E+02 -0.38035237649E+02  0.10059030537E+03  0.00000000000E+00 0.  1.
         12    1    4    4    0    0  0.48277241177E+02  0.30979942308E+02 -0.45293349485E+02  0.73088551420E+02  0.00000000000E+00 0. -1.
         -5    1    5    5    0  502 -0.86727539950E+02  0.51671612313E+00  0.55254188946E+00  0.86858093946E+02  0.47000000000E+01 0.  1.
         11    1    6    6    0    0 -0.26636323953E+02 -0.13244544831E+01  0.59358444409E+02  0.65074364046E+02  0.00000000000E+00 0. -1.
        -12    1    6    6    0    0 -0.36045875226E+02  0.10269976521E+03  0.66730223588E+02  0.12766937626E+03  0.00000000000E+00 0.  1.
</event>
<event>
12    1  0.8226261E-002  0.1999604E+03  0.7818608E-02  0.1149917E+00
         21   -1    0    0  501  502  0.00000000000E+00  0.00000000000E+00  0.76674521462E+03  0.76674521462E+03  0.00000000000E+00 0.  1.
         21   -1    0    0  502  503 -0.00000000000E+00 -0.00000000000E+00 -0.73835609868E+02  0.73835609868E+02  0.00000000000E+00 0.  1.
         -6    2    1    2    0  503 -0.87591277535E+02 -0.51311037445E+02  0.11815600725E+03  0.23226064866E+03  0.17227626768E+03 0.  0.
        -24    2    3    3    0    0 -0.65714036233E+02 -0.10025535522E+03  0.93892586460E+02  0.17322706908E+03  0.82597390161E+02 0.  0.
          6    2    1    2  501    0  0.87591277535E+02  0.51311037445E+02  0.57475359750E+03  0.60832017583E+03  0.17148377186E+03 0.  0.
         24    2    5    5    0    0 -0.37720290196E+01  0.58512566890E+02  0.22132204664E+03  0.24316943031E+03  0.81914435955E+02 0.  0.
          5    1    5    5  501    0  0.91363306554E+02 -0.72015294456E+01  0.35343155086E+03  0.36515074552E+03  0.47000000000E+01 0. -1.
        -11    1    6    6    0    0  0.20317263722E+01  0.40396956416E+02  0.22044668365E+03  0.22412671044E+03  0.00000000000E+00 0.  1.
         12    1    6    6    0    0 -0.58037553917E+01  0.18115610474E+02  0.87536299146E+00  0.19042719865E+02  0.00000000000E+00 0. -1.
         -5    1    3    3    0  503 -0.21877241302E+02  0.48944317779E+02  0.24263420790E+02  0.59033579582E+02  0.47000000000E+01 0.  1.
         13    1    4    4    0    0  0.17826066751E+01  0.95266789114E+01 -0.48857902249E+01  0.10853858473E+02  0.00000000000E+00 0. -1.
        -14    1    4    4    0    0 -0.67496642908E+02 -0.10978203413E+03  0.98778376685E+02  0.16237321061E+03  0.00000000000E+00 0.  1.
</event>
<event>
12    1  0.8226261E-002  0.2057697E+03  0.7818608E-02  0.1144984E+00
         21   -1    0    0  503  502  0.00000000000E+00  0.00000000000E+00  0.25132773640E+03  0.25132773640E+03  0.00000000000E+00 0. -1.
         21   -1    0    0  501  503 -0.00000000000E+00 -0.00000000000E+00 -0.30950399347E+03  0.30950399347E+03  0.00000000000E+00 0.  1.
          6    2    1    2  501    0  0.85240830551E+01  0.11138708978E+03  0.16026398421E+03  0.26081740763E+03  0.17280460563E+03 0.  0.
         24    2    3    3    0    0 -0.49568159342E+02  0.10777012816E+03  0.12090131313E+03  0.19039510355E+03  0.86958409565E+02 0.  0.
         -6    2    1    2    0  502 -0.85240830551E+01 -0.11138708978E+03 -0.21844024128E+03  0.30001432224E+03  0.17266357687E+03 0.  0.
        -24    2    5    5    0    0 -0.48729415627E+02 -0.11500363472E+03 -0.11070512014E+03  0.18486878611E+03  0.79501273604E+02 0.  0.
          5    1    3    3  501    0  0.58092242397E+02  0.36169616243E+01  0.39362671079E+02  0.70422304084E+02  0.47000000000E+01 0. -1.
        -13    1    4    4    0    0  0.15112079087E+02  0.68456001514E+02  0.45617908257E+02  0.83639659440E+02  0.00000000000E+00 0.  1.
         14    1    4    4    0    0 -0.64680238428E+02  0.39314126644E+02  0.75283404872E+02  0.10675544411E+03  0.00000000000E+00 0. -1.
         -5    1    5    5    0  502  0.40205332572E+02  0.36165449390E+01 -0.10773512114E+03  0.11514553614E+03  0.47000000000E+01 0.  1.
         11    1    6    6    0    0 -0.14493043059E+02 -0.83165756203E+02 -0.10928689720E+03  0.13809495719E+03  0.00000000000E+00 0. -1.
        -12    1    6    6    0    0 -0.34236372568E+02 -0.31837878518E+02 -0.14182229415E+01  0.46773828916E+02  0.00000000000E+00 0.  1.
</event>
<event>
12    1  0.8226261E-002  0.1908589E+03  0.7818608E-02  0.1157730E+00
         21   -1    0    0  501  502  0.00000000000E+00  0.00000000000E+00  0.19188862650E+04  0.19188862650E+04  0.00000000000E+00 0. -1.
         21   -1    0    0  502  503 -0.00000000000E+00 -0.00000000000E+00 -0.25991770245E+02  0.25991770245E+02  0.00000000000E+00 0. -1.
         -6    2    1    2    0  503  0.78594099354E+02 -0.23201595922E+02  0.14523845889E+04  0.14648713672E+04  0.17237105843E+03 0.  0.
        -24    2    3    3    0    0  0.52570992354E+02 -0.10832652996E+02  0.37461121824E+03  0.38670267845E+03  0.79525725892E+02 0.  0.
          6    2    1    2  501    0 -0.78594099354E+02  0.23201595922E+02  0.44050990590E+03  0.48000666811E+03  0.17216874784E+03 0.  0.
         24    2    5    5    0    0 -0.51439535461E+02  0.16672366070E+02  0.44132279154E+03  0.45167379029E+03  0.79494735070E+02 0.  0.
          5    1    5    5  501    0 -0.27154563893E+02  0.65292298527E+01 -0.81288564300E+00  0.28332877823E+02  0.47000000000E+01 0. -1.
        -13    1    6    6    0    0  0.14863632560E+02  0.24997713076E+02  0.11970969568E+03  0.12319181982E+03  0.00000000000E+00 0.  1.
         14    1    6    6    0    0 -0.66303168021E+02 -0.83253470063E+01  0.32161309586E+03  0.32848197047E+03  0.00000000000E+00 0. -1.
         -5    1    3    3    0  503  0.26023107000E+02 -0.12368942926E+02  0.10777733707E+04  0.10781686887E+04  0.47000000000E+01 0.  1.
         13    1    4    4    0    0  0.47034016772E+02  0.28101541860E+02  0.17983381522E+03  0.18799493739E+03  0.00000000000E+00 0. -1.
        -14    1    4    4    0    0  0.55369755821E+01 -0.38934194856E+02  0.19477740302E+03  0.19870774106E+03  0.00000000000E+00 0.  1.
</event>
<event>
12    1  0.8226261E-002  0.1912085E+03  0.7818608E-02  0.1159360E+00
         21   -1    0    0  501  502  0.00000000000E+00  0.00000000000E+00  0.24312665711E+03  0.24312665711E+03  0.00000000000E+00 0. -1.
         21   -1    0    0  502  503 -0.00000000000E+00 -0.00000000000E+00 -0.18508746230E+03  0.18508746230E+03  0.00000000000E+00 0. -1.
         -6    2    1    2    0  503 -0.75326637868E+02  0.46319075509E+02 -0.71747757066E+02  0.20422641581E+03  0.16953208883E+03 0.  0.
        -24    2    3    3    0    0 -0.10962760128E+03  0.65122254651E+02 -0.61498643494E+02  0.16351708070E+03  0.81832961059E+02 0.  0.
          6    2    1    2  501    0  0.75326637868E+02 -0.46319075509E+02  0.12978695188E+03  0.22398770360E+03  0.15970685444E+03 0.  0.
         24    2    5    5    0    0  0.22994525053E+02 -0.80745093636E+02  0.76524439958E+02  0.14163003285E+03  0.84584620139E+02 0.  0.
          5    1    5    5  501    0  0.52332112815E+02  0.34426018127E+02  0.53262511923E+02  0.82357670755E+02  0.47000000000E+01 0. -1.
        -11    1    6    6    0    0 -0.18530192892E+02 -0.99761959948E+01 -0.91979032579E+01  0.22967236653E+02  0.00000000000E+00 0.  1.
         12    1    6    6    0    0  0.41524717945E+02 -0.70768897641E+02  0.85722343216E+02  0.11866279619E+03  0.00000000000E+00 0. -1.
         -5    1    3    3    0  503  0.34300963409E+02 -0.18803179142E+02 -0.10249113572E+02  0.40709335117E+02  0.47000000000E+01 0.  1.
         13    1    4    4    0    0 -0.54795336030E+02 -0.12056118462E+02 -0.15196889355E+02  0.58127655114E+02  0.00000000000E+00 0. -1.
        -14    1    4    4    0    0 -0.54832265247E+02  0.77178373113E+02 -0.46301754139E+02  0.10538942558E+03  0.00000000000E+00 0.  1.
</event>
<event>
12    1  0.8226261E-002  0.2100921E+03  0.7818608E-02  0.1142581E+00
         21   -1    0    0  501  502  0.00000000000E+00  0.00000000000E+00  0.74586089691E+03  0.74586089691E+03  0.00000000000E+00 0. -1.
         21   -1    0    0  502  503 -0.00000000000E+00 -0.00000000000E+00 -0.12120680007E+03  0.12120680007E+03  0.00000000000E+00 0.  1.
         -6    2    1    2    0  503 -0.10102900354E+03  0.64960778348E+02 -0.35136319833E+01  0.20469817018E+03  0.16571732856E+03 0.  0.
        -24    2    3    3    0    0 -0.12404443981E+02  0.56678348663E+02  0.42964573906E+02  0.10417342287E+03  0.75098881378E+02 0.  0.
          6    2    1    2  501    0  0.10102900354E+03 -0.64960778348E+02  0.62816772882E+03  0.66236952680E+03  0.17237149479E+03 0.  0.
         24    2    5    5    0    0  0.63565658343E+02 -0.37495719829E-01  0.17328555457E+03  0.20132894581E+03  0.80404394614E+02 0.  0.
          5    1    5    5  501    0  0.37463345199E+02 -0.64923282628E+02  0.45488217426E+03  0.46104058099E+03  0.47000000000E+01 0. -1.
        -13    1    6    6    0    0  0.54472996494E+02 -0.35238280867E+02  0.95324289918E+02  0.11530725924E+03  0.00000000000E+00 0.  1.
         14    1    6    6    0    0  0.90926618492E+01  0.35200785148E+02  0.77961264650E+02  0.86021686569E+02  0.00000000000E+00 0. -1.
         -5    1    3    3    0  503 -0.88624559561E+02  0.82824296847E+01 -0.46478205889E+02  0.10052474731E+03  0.47000000000E+01 0.  1.
         13    1    4    4    0    0  0.76920414484E+01 -0.15828387848E+02  0.17296392971E+02  0.24675302903E+02  0.00000000000E+00 0. -1.
        -14    1    4    4    0    0 -0.20096485429E+02  0.72506736511E+02  0.25668180935E+02  0.79498119969E+02  0.00000000000E+00 0.  1.
</event>
<event>
12    1  0.8226261E-002  0.1762112E+03  0.7818608E-02  0.1171837E+00
         21   -1    0    0  503  502  0.00000000000E+00  0.00000000000E+00  0.10041634403E+03  0.10041634403E+03  0.00000000000E+00 0. -1.
         21   -1    0    0  501  503 -0.00000000000E+00 -0.00000000000E+00 -0.38350731504E+03  0.38350731504E+03  0.00000000000E+00 0. -1.
          6    2    1    2  501    0  0.84915259652E+00 -0.38649153481E+02 -0.33069606523E+02  0.17804613468E+03  0.17062341303E+03 0.  0.
         24    2    3    3    0    0 -0.23055702279E+02 -0.86299625009E+02 -0.12390666970E+02  0.12067263849E+03  0.80182082590E+02 0.  0.
         -6    2    1    2    0  502 -0.84915259652E+00  0.38649153481E+02 -0.25002136448E+03  0.30587752439E+03  0.17191829194E+03 0.  0.
        -24    2    5    5    0    0 -0.58026666858E+02 -0.43358288956E+01 -0.13174285172E+03  0.16757035383E+03  0.85660673737E+02 0.  0.
          5    1    3    3  501    0  0.23904854876E+02  0.47650471528E+02 -0.20678939553E+02  0.57373496185E+02  0.47000000000E+01 0. -1.
        -11    1    4    4    0    0  0.27755918992E+02 -0.21977815350E+02 -0.15489756366E+02  0.38643860559E+02  0.00000000000E+00 0.  1.
         12    1    4    4    0    0 -0.50811621272E+02 -0.64321809659E+02  0.30990893953E+01  0.82028777933E+02  0.00000000000E+00 0. -1.
         -5    1    5    5    0  502  0.57177514261E+02  0.42984982376E+02 -0.11827851276E+03  0.13830717056E+03  0.47000000000E+01 0.  1.
         11    1    6    6    0    0 -0.75205349919E+01 -0.39446552451E+02 -0.68114144934E+02  0.79070384386E+02  0.00000000000E+00 0. -1.
        -12    1    6    6    0    0 -0.50506131866E+02  0.35110723555E+02 -0.63628706788E+02  0.88499969447E+02  0.00000000000E+00 0.  1.
</event>
<event>
12    1  0.8226261E-002  0.1766950E+03  0.7818608E-02  0.1171047E+00
         21   -1    0    0  501  502  0.00000000000E+00  0.00000000000E+00  0.33308717580E+03  0.33308717580E+03  0.00000000000E+00 0. -1.
         21   -1    0    0  502  503 -0.00000000000E+00 -0.00000000000E+00 -0.22402699838E+03  0.22402699838E+03  0.00000000000E+00 0. -1.
         -6    2    1    2    0  503 -0.25779297966E+00 -0.40192599855E+02 -0.15791817831E+03  0.23696020779E+03  0.17203626796E+03 0.  0.
        -24    2    3    3    0    0 -0.52673108311E+01 -0.61820555053E+01 -0.17900473616E+03  0.19635792561E+03  0.80298051077E+02 0.  0.
          6    2    1    2  501    0  0.25779297966E+00  0.40192599855E+02  0.26697835573E+03  0.32015396639E+03  0.17206280314E+03 0.  0.
         24    2    5    5    0    0  0.17138789361E+02 -0.39996691002E+02  0.10819201296E+03  0.14140698584E+03  0.79980938871E+02 0.  0.
          5    1    5    5  501    0 -0.16880996381E+02  0.80189290857E+02  0.15878634277E+03  0.17874698055E+03  0.47000000000E+01 0. -1.
        -11    1    6    6    0    0  0.17056909697E+02 -0.11186860057E+02  0.11062931035E+03  0.11249412569E+03  0.00000000000E+00 0.  1.
         12    1    6    6    0    0  0.81879663601E-01 -0.28809830945E+02 -0.24372973861E+01  0.28912860148E+02  0.00000000000E+00 0. -1.
         -5    1    3    3    0  503  0.50095178514E+01 -0.34010544350E+02  0.21086557855E+02  0.40602282180E+02  0.47000000000E+01 0.  1.
         13    1    4    4    0    0 -0.19179358193E+01 -0.28134985959E+01  0.83112523825E+01  0.89817129949E+01  0.00000000000E+00 0. -1.
        -14    1    4    4    0    0 -0.33493750118E+01 -0.33685569094E+01 -0.18731598854E+03  0.18737621261E+03  0.00000000000E+00 0.  1.
</event>
<event>
12    1  0.8226261E-002  0.1794833E+03  0.7818608E-02  0.1168476E+00
         21   -1    0    0  501  502  0.00000000000E+00  0.00000000000E+00  0.56794758897E+02  0.56794758897E+02  0.00000000000E+00 0. -1.
         21   -1    0    0  502  503 -0.00000000000E+00 -0.00000000000E+00 -0.57108136624E+03  0.57108136624E+03  0.00000000000E+00 0. -1.
         -6    2    1    2    0  503  0.50376558175E+02  0.55270163591E+01 -0.28912141578E+03  0.33992889115E+03  0.17144127990E+03 0.  0.
        -24    2    3    3    0    0  0.42632571458E+02  0.63906555854E+02 -0.21384084925E+03  0.24423461934E+03  0.89560350844E+02 0.  0.
          6    2    1    2  501    0 -0.50376558175E+02 -0.55270163591E+01 -0.22516519157E+03  0.28794723399E+03  0.17217984941E+03 0.  0.
         24    2    5    5    0    0  0.12120175777E+02 -0.13830509884E+02 -0.20688900767E+03  0.22213767042E+03  0.78764849130E+02 0.  0.
          5    1    5    5  501    0 -0.62496733951E+02  0.83034935244E+01 -0.18276183893E+02  0.65809563568E+02  0.47000000000E+01 0. -1.
        -13    1    6    6    0    0  0.43309633779E+02 -0.21491996470E+02 -0.11305728361E+03  0.12296170000E+03  0.00000000000E+00 0.  1.
         14    1    6    6    0    0 -0.31189458003E+02  0.76614865865E+01 -0.93831724062E+02  0.99175970415E+02  0.00000000000E+00 0. -1.
         -5    1    3    3    0  503  0.77439867163E+01 -0.58379539495E+02 -0.75280566528E+02  0.95694271817E+02  0.47000000000E+01 0.  1.
         13    1    4    4    0    0  0.68887829987E+02  0.60157861779E+02 -0.16412546868E+03  0.18788738895E+03  0.00000000000E+00 0. -1.
        -14    1    4    4    0    0 -0.26255258529E+02  0.37486940747E+01 -0.49715380567E+02  0.56347230390E+02  0.00000000000E+00 0.  1.
</event>
<event>
12    1  0.8226261E-002  0.1737491E+03  0.7818608E-02  0.1174088E+00
         21   -1    0    0  501  502  0.00000000000E+00  0.00000000000E+00  0.10667846057E+04  0.10667846057E+04  0.00000000000E+00 0.  1.
         21   -1    0    0  502  503 -0.00000000000E+00 -0.00000000000E+00 -0.40764109772E+02  0.40764109772E+02  0.00000000000E+00 0. -1.
         -6    2    1    2    0  503 -0.21939838273E+02  0.10739278448E+02  0.20642134582E+03  0.26981203902E+03  0.17202347452E+03 0.  0.
        -24    2    3    3    0    0  0.67287101584E+01 -0.15867620851E+02  0.27295055725E+02  0.86405031081E+02  0.80148314999E+02 0.  0.
          6    2    1    2  501    0  0.21939838273E+02 -0.10739278448E+02  0.81959915007E+03  0.83773667641E+03  0.17164872153E+03 0.  0.
         24    2    5    5    0    0 -0.39573827036E+02 -0.19889056344E+02  0.66535151392E+03  0.67135737267E+03  0.77887241665E+02 0.  0.
          5    1    5    5  501    0  0.61513665309E+02  0.91497778960E+01  0.15424763615E+03  0.16637930374E+03  0.47000000000E+01 0. -1.
        -13    1    6    6    0    0 -0.36966785283E+02  0.23884629635E+02  0.26748773947E+03  0.27108432178E+03  0.00000000000E+00 0.  1.
         14    1    6    6    0    0 -0.26070417534E+01 -0.43773685980E+02  0.39786377445E+03  0.40027305089E+03  0.00000000000E+00 0. -1.
         -5    1    3    3    0  503 -0.28668548432E+02  0.26606899299E+02  0.17912629010E+03  0.18340700794E+03  0.47000000000E+01 0.  1.
         13    1    4    4    0    0 -0.21194412246E+02  0.13055175753E+02 -0.14176109967E+02  0.28646165856E+02  0.00000000000E+00 0. -1.
        -14    1    4    4    0    0  0.27923122405E+02 -0.28922796604E+02  0.41471165692E+02  0.57758865225E+02  0.00000000000E+00 0.  1.
</event>
<event>
12    1  0.8226261E-002  0.2457938E+03  0.7818608E-02  0.1116113E+00
         21   -1    0    0  503  502  0.00000000000E+00  0.00000000000E+00  0.11252190953E+03  0.11252190953E+03  0.00000000000E+00 0. -1.
         21   -1    0    0  501  503 -0.00000000000E+00 -0.00000000000E+00 -0.11135549570E+04  0.11135549570E+04  0.00000000000E+00 0.  1.
          6    2    1    2  501    0  0.14195775255E+03  0.10146551794E+03 -0.94265657661E+03  0.97417453486E+03  0.17311079721E+03 0.  0.
         24    2    3    3    0    0  0.95205585988E+02 -0.46918472473E+01 -0.52850805476E+03  0.54406264312E+03  0.87162369553E+02 0.  0.
         -6    2    1    2    0  502 -0.14195775255E+03 -0.10146551794E+03 -0.58376470889E+02  0.25190233169E+03  0.17204568439E+03 0.  0.
        -24    2    5    5    0    0 -0.80052520527E+02 -0.12188115921E+03 -0.22148421095E+01  0.16573229799E+03  0.78732877867E+02 0.  0.
          5    1    3    3  501    0  0.46752166561E+02  0.10615736519E+03 -0.41414852185E+03  0.43011189173E+03  0.47000000000E+01 0. -1.
        -11    1    4    4    0    0  0.68379981527E+02  0.37367023357E+02 -0.28265318837E+03  0.29319778513E+03  0.00000000000E+00 0.  1.
         12    1    4    4    0    0  0.26825604461E+02 -0.42058870605E+02 -0.24585486639E+03  0.25086485800E+03  0.00000000000E+00 0. -1.
         -5    1    5    5    0  502 -0.61905232022E+02  0.20415641272E+02 -0.56161628779E+02  0.86170033698E+02  0.47000000000E+01 0.  1.
         11    1    6    6    0    0 -0.88194177679E+01 -0.40225317518E+02  0.31941925231E+02  0.52116646925E+02  0.00000000000E+00 0. -1.
        -12    1    6    6    0    0 -0.71233102759E+02 -0.81655841697E+02 -0.34156767341E+02  0.11361565107E+03  0.00000000000E+00 0.  1.
</event>
<event>
12    1  0.8226261E-002  0.2242678E+03  0.7818608E-02  0.1132243E+00
         21   -1    0    0  501  502  0.00000000000E+00  0.00000000000E+00  0.12453832446E+03  0.12453832446E+03  0.00000000000E+00 0. -1.
         21   -1    0    0  502  503 -0.00000000000E+00 -0.00000000000E+00 -0.44271236256E+03  0.44271236256E+03  0.00000000000E+00 0.  1.
         -6    2    1    2    0  503  0.10803282830E+03 -0.96135716590E+02 -0.26007226276E+03  0.34341467648E+03  0.17141438145E+03 0.  0.
        -24    2    3    3    0    0  0.90024868879E+02 -0.22706128776E+02 -0.74278781853E+02  0.14277196289E+03  0.79034490273E+02 0.  0.
          6    2    1    2  501    0 -0.10803282830E+03  0.96135716590E+02 -0.58101775342E+02  0.22383601054E+03  0.16066603661E+03 0.  0.
         24    2    5    5    0    0 -0.90342239859E+02  0.10429825655E+03 -0.92030713154E+02  0.18442983337E+03  0.80652741129E+02 0.  0.
          5    1    5    5  501    0 -0.17690588438E+02 -0.81625399583E+01  0.33928937812E+02  0.39406177167E+02  0.47000000000E+01 0. -1.
        -13    1    6    6    0    0 -0.58662761348E+01  0.23762342811E+02 -0.57848081207E+02  0.62812917707E+02  0.00000000000E+00 0.  1.
         14    1    6    6    0    0 -0.84475963724E+02  0.80535913737E+02 -0.34182631947E+02  0.12161691566E+03  0.00000000000E+00 0. -1.
         -5    1    3    3    0  503  0.18007959418E+02 -0.73429587814E+02 -0.18579348091E+03  0.20064271359E+03  0.47000000000E+01 0.  1.
         11    1    4    4    0    0  0.66986042900E+02 -0.20679050622E+02 -0.90533365138E+02  0.11450346406E+03  0.00000000000E+00 0. -1.
        -12    1    4    4    0    0  0.23038825979E+02 -0.20270781545E+01  0.16254583285E+02  0.28268498830E+02  0.00000000000E+00 0.  1.
</event>
<event>
12    1  0.8226261E-002  0.1830033E+03  0.7818608E-02  0.1165027E+00
         21   -1    0    0  501  502  0.00000000000E+00  0.00000000000E+00  0.89878166986E+02  0.89878166986E+02  0.00000000000E+00 0.  1.
         21   -1    0    0  502  503 -0.00000000000E+00 -0.00000000000E+00 -0.23204619384E+04  0.23204619384E+04  0.00000000000E+00 0.  1.
         -6    2    1    2    0  503 -0.33016483175E+02  0.51241610538E+02 -0.22199149947E+04  0.22274453497E+04  0.17255263379E+03 0.  0.
        -24    2    3    3    0    0 -0.25186908912E+01 -0.34145806665E+02 -0.85536198121E+03  0.85987518954E+03  0.81049014636E+02 0.  0.
          6    2    1    2  501    0  0.33016483175E+02 -0.51241610538E+02 -0.10668776718E+02  0.18289475568E+03  0.17210717024E+03 0.  0.
         24    2    5    5    0    0 -0.30479916002E+02 -0.75117787689E+02 -0.14652422636E+02  0.11477850227E+03  0.79923111725E+02 0.  0.
          5    1    5    5  501    0  0.63496399178E+02  0.23876177151E+02  0.39836459178E+01  0.68116253410E+02  0.47000000000E+01 0. -1.
        -11    1    6    6    0    0 -0.19833501209E+02 -0.11968334320E+01  0.23614587784E+02  0.30861771445E+02  0.00000000000E+00 0.  1.
         12    1    6    6    0    0 -0.10646414793E+02 -0.73920954257E+02 -0.38267010420E+02  0.83916730827E+02  0.00000000000E+00 0. -1.
         -5    1    3    3    0  503 -0.30497792284E+02  0.85387417202E+02 -0.13645530135E+04  0.13675701601E+04  0.47000000000E+01 0.  1.
         13    1    4    4    0    0  0.31303523336E+02 -0.20425183382E+02 -0.19777558590E+03  0.20127662822E+03  0.00000000000E+00 0. -1.
        -14    1    4    4    0    0 -0.33822214227E+02 -0.13720623283E+02 -0.65758639531E+03  0.65859856132E+03  0.00000000000E+00 0.  1.
</event>
<event>
12    1  0.8226261E-002  0.2066531E+03  0.7818608E-02  0.1146545E+00
         21   -1    0    0  501  502  0.00000000000E+00  0.00000000000E+00  0.24632346246E+03  0.24632346246E+03  0.00000000000E+00 0.  1.
         21   -1    0    0  502  503 -0.00000000000E+00 -0.00000000000E+00 -0.25368562405E+03  0.25368562405E+03  0.00000000000E+00 0.  1.
         -6    2    1    2    0  503 -0.15392574001E+02  0.95511068300E+02 -0.15217281294E+03  0.25663606104E+03  0.18260943932E+03 0.  0.
        -24    2    3    3    0    0  0.47876435421E+02  0.30142935961E+02 -0.13146325241E+03  0.16321798904E+03  0.78465123180E+02 0.  0.
          6    2    1    2  501    0  0.15392574001E+02 -0.95511068300E+02  0.14481065134E+03  0.24337302547E+03  0.17000296844E+03 0.  0.
         24    2    5    5    0    0  0.34425369678E+02 -0.10444403251E+03  0.16504571450E+03  0.21381641975E+03  0.79898131850E+02 0.  0.
          5    1    5    5  501    0 -0.19032795678E+02  0.89329642081E+01 -0.20235063157E+02  0.29556605722E+02  0.47000000000E+01 0. -1.
        -13    1    6    6    0    0 -0.41485104815E+01 -0.87246367737E+02  0.78159594152E+02  0.11720947479E+03  0.00000000000E+00 0.  1.
         14    1    6    6    0    0  0.38573880160E+02 -0.17197664772E+02  0.86886120350E+02  0.96606944955E+02  0.00000000000E+00 0. -1.
         -5    1    3    3    0  503 -0.63269009421E+02  0.65368132340E+02 -0.20709560522E+02  0.93418071998E+02  0.47000000000E+01 0.  1.
         13    1    4    4    0    0  0.44212607592E+01 -0.25238435470E+02 -0.26744914414E+02  0.37038042857E+02  0.00000000000E+00 0. -1.
        -14    1    4    4    0    0  0.43455174662E+02  0.55381371431E+02 -0.10471833800E+03  0.12617994619E+03  0.00000000000E+00 0.  1.
</event>
<event>
12    1  0.8226261E-002  0.2888433E+03  0.7818608E-02  0.1091203E+00
         21   -1    0    0  501  502  0.00000000000E+00  0.00000000000E+00  0.38048271859E+03  0.38048271859E+03  0.00000000000E+00 0. -1.
         21   -1    0    0  502  503 -0.00000000000E+00 -0.00000000000E+00 -0.25055640881E+03  0.25055640881E+03  0.00000000000E+00 0. -1.
         -6    2    1    2    0  503 -0.22897370489E+03  0.30679302916E+02 -0.48859872963E+02  0.29294668469E+03  0.17337905216E+03 0.  0.
        -24    2    3    3    0    0 -0.21057061776E+03  0.74900114120E+02 -0.23333710788E+02  0.23846890284E+03  0.79830717179E+02 0.  0.
          6    2    1    2  501    0  0.22897370489E+03 -0.30679302916E+02  0.17878618274E+03  0.33809244272E+03  0.17021111458E+03 0.  0.
         24    2    5    5    0    0  0.16866476972E+03 -0.63114636177E+02  0.69468322166E+02  0.20901222291E+03  0.80181043254E+02 0.  0.
          5    1    5    5  501    0  0.60308935161E+02  0.32435333261E+02  0.10931786057E+03  0.12908021980E+03  0.47000000000E+01 0. -1.
        -13    1    6    6    0    0  0.13128700805E+02 -0.35093370748E+02  0.30823871734E+01  0.37595326384E+02  0.00000000000E+00 0.  1.
         14    1    6    6    0    0  0.15553606892E+03 -0.28021265429E+02  0.66385934992E+02  0.17141689653E+03  0.00000000000E+00 0. -1.
         -5    1    3    3    0  503 -0.18403087125E+02 -0.44220811204E+02 -0.25526162175E+02  0.54477781844E+02  0.47000000000E+01 0.  1.
         11    1    4    4    0    0 -0.13766339266E+03  0.50132852597E+02  0.23447997252E+02  0.14837223852E+03  0.00000000000E+00 0. -1.
        -12    1    4    4    0    0 -0.72907225096E+02  0.24767261523E+02 -0.46781708040E+02  0.90096664321E+02  0.00000000000E+00 0.  1.
</event>
<event>
12    1  0.8226261E-002  0.2160097E+03  0.7818608E-02  0.1136980E+00
         21   -1    0    0  501  502  0.00000000000E+00  0.00000000000E+00  0.11053511854E+04  0.11053511854E+04  0.00000000000E+00 0.  1.
         21   -1    0    0  502  503 -0.00000000000E+00 -0.00000000000E+00 -0.81502141936E+02  0.81502141936E+02  0.00000000000E+00 0.  1.
         -6    2    1    2    0  503  0.63755211961E+02 -0.11317693419E+03  0.99166518659E+02  0.23727555539E+03  0.17202309518E+03 0.  0.
        -24    2    3    3    0    0  0.40191693583E+02 -0.85837157574E+02 -0.76426572014E+01  0.12443499162E+03  0.80263734502E+02 0.  0.
          6    2    1    2  501    0 -0.63755211961E+02  0.11317693419E+03  0.92468252478E+03  0.94957777193E+03  0.17258744976E+03 0.  0.
         24    2    5    5    0    0 -0.77224794980E+02  0.14029726967E+03  0.68797280821E+03  0.71089278668E+03  0.80093548290E+02 0.  0.
          5    1    5    5  501    0  0.13469583019E+02 -0.27120335484E+02  0.23670971658E+03  0.23868498525E+03  0.47000000000E+01 0. -1.
        -13    1    6    6    0    0  0.22760547657E+01  0.78061593891E+02  0.30045561019E+03  0.31043899008E+03  0.00000000000E+00 0.  1.
         14    1    6    6    0    0 -0.79500849745E+02  0.62235675784E+02  0.38751719802E+03  0.40045379660E+03  0.00000000000E+00 0. -1.
         -5    1    3    3    0  503  0.23563518378E+02 -0.27339776616E+02  0.10680917586E+03  0.11284056377E+03  0.47000000000E+01 0.  1.
         13    1    4    4    0    0 -0.12999889436E+02 -0.66105953088E+02 -0.65690575446E+01  0.67691555426E+02  0.00000000000E+00 0. -1.
        -14    1    4    4    0    0  0.53191583019E+02 -0.19731204487E+02 -0.10735996568E+01  0.56743436191E+02  0.00000000000E+00 0.  1.
</event>
<event>
12    1  0.8226261E-002  0.2061048E+03  0.7818608E-02  0.1146594E+00
         21   -1    0    0  501  502  0.00000000000E+00  0.00000000000E+00  0.32499214344E+02  0.32499214344E+02  0.00000000000E+00 0. -1.
         21   -1    0    0  502  503 -0.00000000000E+00 -0.00000000000E+00 -0.15562609394E+04  0.15562609394E+04  0.00000000000E+00 0.  1.
         -6    2    1    2    0  503  0.67043595751E+01 -0.11154254415E+03 -0.39541079752E+03  0.44174010827E+03  0.16216638636E+03 0.  0.
        -24    2    3    3    0    0  0.16585966838E+01 -0.10908098767E+03 -0.40655618329E+03  0.42840486895E+03  0.79632837195E+02 0.  0.
          6    2    1    2  501    0 -0.67043595751E+01  0.11154254415E+03 -0.11283509276E+04  0.11470200455E+04  0.17318337525E+03 0.  0.
         24    2    5    5    0    0  0.19446666231E+02  0.44426765569E+02 -0.26637746053E+03  0.28202943760E+03  0.78941382494E+02 0.  0.
          5    1    5    5  501    0 -0.26151025806E+02  0.67115778580E+02 -0.86197346706E+03  0.86499060792E+03  0.47000000000E+01 0. -1.
        -13    1    6    6    0    0 -0.29192661417E+02  0.44025136258E+01 -0.92252732644E+02  0.96861552161E+02  0.00000000000E+00 0.  1.
         14    1    6    6    0    0  0.48639327648E+02  0.40024251943E+02 -0.17412472788E+03  0.18516788544E+03  0.00000000000E+00 0. -1.
         -5    1    3    3    0  503  0.50457628913E+01 -0.24615564839E+01  0.11145385772E+02  0.13335239311E+02  0.47000000000E+01 0.  1.
         13    1    4    4    0    0  0.80931928866E+01  0.23822128568E+01 -0.19258024801E+01  0.86535209243E+01  0.00000000000E+00 0. -1.
        -14    1    4    4    0    0 -0.64345962028E+01 -0.11146320052E+03 -0.40463038081E+03  0.41975134803E+03  0.00000000000E+00 0.  1.
</event>
<event>
12    1  0.8226261E-002  0.1965616E+03  0.7818608E-02  0.1153434E+00
         21   -1    0    0  501  502  0.00000000000E+00  0.00000000000E+00  0.30265948500E+03  0.30265948500E+03  0.00000000000E+00 0. -1.
         21   -1    0    0  502  503 -0.00000000000E+00 -0.00000000000E+00 -0.20606656877E+03  0.20606656877E+03  0.00000000000E+00 0. -1.
         -6    2    1    2    0  503 -0.72822664390E+02 -0.43048908364E+02 -0.11058524615E+03  0.22553397368E+03  0.17742640068E+03 0.  0.
        -24    2    3    3    0    0 -0.24356433859E+02 -0.26752597468E+02 -0.14269057655E+03  0.16497501487E+03  0.74479645242E+02 0.  0.
          6    2    1    2  501    0  0.72822664390E+02  0.43048908364E+02  0.20717816237E+03  0.28319208010E+03  0.17354715298E+03 0.  0.
         24    2    5    5    0    0  0.91787140018E+02 -0.21573112150E+02  0.10689186464E+03  0.16229920031E+03  0.77620109855E+02 0.  0.
          5    1    5    5  501    0 -0.18964475628E+02  0.64622020514E+02  0.10028629773E+03  0.12089287979E+03  0.47000000000E+01 0. -1.
        -13    1    6    6    0    0  0.15043455334E+02  0.14406088194E+02 -0.54876775002E+01  0.21539626965E+02  0.00000000000E+00 0.  1.
         14    1    6    6    0    0  0.76743684684E+02 -0.35979200344E+02  0.11237954214E+03  0.14075957334E+03  0.00000000000E+00 0. -1.
         -5    1    3    3    0  503 -0.48466230532E+02 -0.16296310896E+02  0.32105330404E+02  0.60558958801E+02  0.47000000000E+01 0.  1.
         13    1    4    4    0    0 -0.44369447984E+02 -0.38346082594E+01 -0.47825646868E+02  0.65350169344E+02  0.00000000000E+00 0. -1.
        -14    1    4    4    0    0  0.20013014125E+02 -0.22917989208E+02 -0.94864929681E+02  0.99624845531E+02  0.00000000000E+00 0.  1.
</event>
<event>
12    1  0.8226261E-002  0.2417956E+03  0.7818608E-02  0.1119650E+00
         21   -1    0    0  501  502  0.00000000000E+00  0.00000000000E+00  0.74986604636E+03  0.74986604636E+03  0.00000000000E+00 0. -1.
         21   -1    0    0  502  503 -0.00000000000E+00 -0.00000000000E+00 -0.14295911135E+03  0.14295911135E+03  0.00000000000E+00 0.  1.
         -6    2    1    2    0  503  0.33587512718E+02  0.15744127357E+03  0.61116139925E+03  0.65725442205E+03  0.18041408962E+03 0.  0.
        -24    2    3    3    0    0 -0.11281746845E+02  0.16407665640E+03  0.55526500750E+03  0.58511722381E+03  0.83633187519E+02 0.  0.
          6    2    1    2  501    0 -0.33587512718E+02 -0.15744127357E+03 -0.42544642372E+01  0.23557073566E+03  0.17192904176E+03 0.  0.
         24    2    5    5    0    0  0.15548919322E+02 -0.87148417873E+02 -0.59040624692E+02  0.13369292702E+03  0.80940643326E+02 0.  0.
          5    1    5    5  501    0 -0.49136432040E+02 -0.70292855694E+02  0.54786160455E+02  0.10187780864E+03  0.47000000000E+01 0. -1.
        -13    1    6    6    0    0  0.19396457046E+02  0.30156633964E+01 -0.35276879091E+02  0.40370471511E+02  0.00000000000E+00 0.  1.
         14    1    6    6    0    0 -0.38475377242E+01 -0.90164081270E+02 -0.23763745601E+02  0.93322455512E+02  0.00000000000E+00 0. -1.
         -5    1    3    3    0  503  0.44869259563E+02 -0.66353828353E+01  0.55896391755E+02  0.72137198243E+02  0.47000000000E+01 0.  1.
         11    1    4    4    0    0  0.21882790939E+02  0.32660391175E+02  0.22012295783E+03  0.22360606936E+03  0.00000000000E+00 0. -1.
        -12    1    4    4    0    0 -0.33164537783E+02  0.13141626523E+03  0.33514204966E+03  0.36151115444E+03  0.00000000000E+00 0.  1.
</event>
<event>
12    1  0.8226261E-002  0.2461424E+03  0.7818608E-02  0.1116026E+00
         21   -1    0    0  503  502  0.00000000000E+00  0.00000000000E+00  0.83957241270E+03  0.83957241270E+03  0.00000000000E+00 0. -1.
         21   -1    0    0  501  503 -0.00000000000E+00 -0.00000000000E+00 -0.31928987877E+03  0.31928987877E+03  0.00000000000E+00 0. -1.
          6    2    1    2  501    0 -0.16963798576E+03  0.42883402352E+02 -0.24991419337E+03  0.35077515520E+03  0.17311866752E+03 0.  0.
         24    2    3    3    0    0 -0.68770800162E+02  0.73899332134E+02 -0.17569937790E+03  0.22167788231E+03  0.89890365821E+02 0.  0.
         -6    2    1    2    0  502  0.16963798576E+03 -0.42883402352E+02  0.77019672730E+03  0.80808713627E+03  0.17083848702E+03 0.  0.
        -24    2    5    5    0    0  0.52387081992E+02  0.33182982816E+02  0.39366319080E+03  0.40642376540E+03  0.79775012278E+02 0.  0.
          5    1    3    3  501    0 -0.10086718559E+03 -0.31015929781E+02 -0.74214815474E+02  0.12909727288E+03  0.47000000000E+01 0. -1.
        -11    1    4    4    0    0  0.84265110455E+01 -0.14873658973E+02 -0.28619488686E+02  0.33336270822E+02  0.00000000000E+00 0.  1.
         12    1    4    4    0    0 -0.77197311208E+02  0.88772991107E+02 -0.14707988921E+03  0.18834161149E+03  0.00000000000E+00 0. -1.
         -5    1    5    5    0  502  0.11725090376E+03 -0.76066385168E+02  0.37653353650E+03  0.40166337087E+03  0.47000000000E+01 0.  1.
         13    1    6    6    0    0  0.59995914966E+02  0.71242896119E+01  0.34874346294E+03  0.35393822662E+03  0.00000000000E+00 0. -1.
        -14    1    6    6    0    0 -0.76088329736E+01  0.26058693204E+02  0.44919727854E+02  0.52485538782E+02  0.00000000000E+00 0.  1.
</event>
<event>
12    1  0.8226261E-002  0.1749564E+03  0.7818608E-02  0.1176634E+00
         21   -1    0    0  501  502  0.00000000000E+00  0.00000000000E+00  0.42947671211E+03  0.42947671211E+03  0.00000000000E+00 0.  1.
         21   -1    0    0  502  503 -0.00000000000E+00 -0.00000000000E+00 -0.13170396651E+03  0.13170396651E+03  0.00000000000E+00 0.  1.
         -6    2    1    2    0  503 -0.15721933745E+02 -0.35817190403E+02 -0.46835323051E+02  0.18111677834E+03  0.17052767981E+03 0.  0.
        -24    2    3    3    0    0 -0.16385121053E+02 -0.52348098993E+02  0.31804232919E+02  0.10061845215E+03  0.78126615315E+02 0.  0.
          6    2    1    2  501    0  0.15721933745E+02  0.35817190403E+02  0.34460806865E+03  0.38006390029E+03  0.15544708745E+03 0.  0.
         24    2    5    5    0    0  0.51457999882E+02  0.54233259800E+02  0.30223551706E+03  0.32146576753E+03  0.80029742592E+02 0.  0.
          5    1    5    5  501    0 -0.35736066137E+02 -0.18416069397E+02  0.42372551581E+02  0.58598132756E+02  0.47000000000E+01 0. -1.
        -13    1    6    6    0    0  0.62489741353E+01  0.45082252349E+02  0.23842181683E+03  0.24272705225E+03  0.00000000000E+00 0.  1.
         14    1    6    6    0    0  0.45209025746E+02  0.91510074507E+01  0.63813700236E+02  0.78738715281E+02  0.00000000000E+00 0. -1.
         -5    1    3    3    0  503  0.66318730841E+00  0.16530908590E+02 -0.78639555971E+02  0.80498326190E+02  0.47000000000E+01 0.  1.
         13    1    4    4    0    0  0.10960400686E+02  0.14082409881E+02  0.21664596630E+02  0.28067764400E+02  0.00000000000E+00 0. -1.
        -14    1    4    4    0    0 -0.27345521739E+02 -0.66430508874E+02  0.10139636289E+02  0.72550687747E+02  0.00000000000E+00 0.  1.
</event>
<event>
12    1  0.8226261E-002  0.2039576E+03  0.7818608E-02  0.1146745E+00
         21   -1    0    0  503  502  0.00000000000E+00  0.00000000000E+00  0.42295712960E+03  0.42295712960E+03  0.00000000000E+00 0. -1.
         21   -1    0    0  501  503 -0.00000000000E+00 -0.00000000000E+00 -0.15254814814E+03  0.15254814814E+03  0.00000000000E+00 0. -1.
          6    2    1    2  501    0  0.88548478699E+02 -0.58662225099E+02 -0.37734588780E+02  0.20597699084E+03  0.17239643799E+03 0.  0.
         24    2    3    3    0    0 -0.10422377747E+02  0.11392023982E+02 -0.27183763784E+02  0.84172893421E+02  0.78151870132E+02 0.  0.
         -6    2    1    2    0  502 -0.88548478699E+02  0.58662225099E+02  0.30814357024E+03  0.36952828690E+03  0.17411664253E+03 0.  0.
        -24    2    5    5    0    0 -0.96001890021E+02  0.69322642024E+02  0.32062878995E+03  0.35089582756E+03  0.79391871566E+02 0.  0.
          5    1    3    3  501    0  0.98970856446E+02 -0.70054249080E+02 -0.10550824996E+02  0.12180409742E+03  0.47000000000E+01 0. -1.
        -13    1    4    4    0    0  0.28006976562E+02  0.31684101638E+01  0.10159471613E+02  0.29960714653E+02  0.00000000000E+00 0.  1.
         14    1    4    4    0    0 -0.38429354309E+02  0.82236138179E+01 -0.37343235397E+02  0.54212178768E+02  0.00000000000E+00 0. -1.
         -5    1    5    5    0  502  0.74534113216E+01 -0.10660416925E+02 -0.12485219718E+02  0.18632459332E+02  0.47000000000E+01 0.  1.
         13    1    6    6    0    0 -0.81871701908E+02  0.14801124214E+02  0.15447386681E+03  0.17545433702E+03  0.00000000000E+00 0. -1.
        -14    1    6    6    0    0 -0.14130188113E+02  0.54521517810E+02  0.16615492314E+03  0.17544149055E+03  0.00000000000E+00 0.  1.
</event>
<event>
12    1  0.8226261E-002  0.5203717E+03  0.7818608E-02  0.1008610E+00
         21   -1    0    0  503  502  0.00000000000E+00  0.00000000000E+00  0.27475002793E+03  0.27475002793E+03  0.00000000000E+00 0. -1.
         21   -1    0    0  501  503 -0.00000000000E+00 -0.00000000000E+00 -0.10988873797E+04  0.10988873797E+04  0.00000000000E+00 0.  1.
          6    2    1    2  501    0  0.30251897366E+03 -0.38654062255E+03 -0.63300439976E+03  0.81927420637E+03  0.17200079306E+03 0.  0.
         24    2    3    3    0    0  0.57496570371E+02 -0.97475884492E+02 -0.19595940371E+03  0.24080655864E+03  0.82342620319E+02 0.  0.
         -6    2    1    2    0  502 -0.30251897366E+03  0.38654062255E+03 -0.19113295198E+03  0.55436320124E+03  0.17278706911E+03 0.  0.
        -24    2    5    5    0    0 -0.22776799499E+03  0.18233821502E+03 -0.12122019936E+03  0.32589829140E+03  0.79936696202E+02 0.  0.
          5    1    3    3  501    0  0.24502240329E+03 -0.28906473805E+03 -0.43704499605E+03  0.57846764773E+03  0.47000000000E+01 0. -1.
        -13    1    4    4    0    0  0.33210116693E+00 -0.79532715508E+02 -0.12181576362E+03  0.14548073203E+03  0.00000000000E+00 0.  1.
         14    1    4    4    0    0  0.57164469204E+02 -0.17943168984E+02 -0.74143640092E+02  0.95325826609E+02  0.00000000000E+00 0. -1.
         -5    1    5    5    0  502 -0.74750978662E+02  0.20420240752E+03 -0.69912752618E+02  0.22846490984E+03  0.47000000000E+01 0.  1.
         13    1    6    6    0    0 -0.22697547310E+03  0.17076934377E+03 -0.98939695762E+02  0.30078081314E+03  0.00000000000E+00 0. -1.
        -14    1    6    6    0    0 -0.79252189928E+00  0.11568871253E+02 -0.22280503600E+02  0.25117478251E+02  0.00000000000E+00 0.  1.
</event>
<event>
12    1  0.8226261E-002  0.1776896E+03  0.7818608E-02  0.1170429E+00
         21   -1    0    0  501  502  0.00000000000E+00  0.00000000000E+00  0.52120133443E+02  0.52120133443E+02  0.00000000000E+00 0. -1.
         21   -1    0    0  502  503 -0.00000000000E+00 -0.00000000000E+00 -0.67257154308E+03  0.67257154308E+03  0.00000000000E+00 0. -1.
         -6    2    1    2    0  503 -0.30393594488E+02  0.33024885464E+02 -0.42751298848E+03  0.46239636213E+03  0.17037789395E+03 0.  0.
        -24    2    3    3    0    0 -0.16198171491E+02 -0.32561279814E+02 -0.34457707823E+03  0.35560914230E+03  0.80011758782E+02 0.  0.
          6    2    1    2  501    0  0.30393594488E+02 -0.33024885464E+02 -0.19293842116E+03  0.26229531440E+03  0.17192784518E+03 0.  0.
         24    2    5    5    0    0  0.39041158543E+02 -0.85864540678E+02 -0.14835586128E+03  0.19246334340E+03  0.78331000071E+02 0.  0.
          5    1    5    5  501    0 -0.86475640556E+01  0.52839655213E+02 -0.44582559884E+02  0.69831970994E+02  0.47000000000E+01 0. -1.
        -11    1    6    6    0    0 -0.18250156238E+02 -0.44188033865E+02 -0.84495697659E+02  0.97083332568E+02  0.00000000000E+00 0.  1.
         12    1    6    6    0    0  0.57291314782E+02 -0.41676506812E+02 -0.63860163619E+02  0.95380010835E+02  0.00000000000E+00 0. -1.
         -5    1    3    3    0  503 -0.14195422997E+02  0.65586165278E+02 -0.82935910251E+02  0.10678721983E+03  0.47000000000E+01 0.  1.
         11    1    4    4    0    0  0.21203696591E+02 -0.16838726031E+02 -0.26409000072E+03  0.26547442047E+03  0.00000000000E+00 0. -1.
        -12    1    4    4    0    0 -0.37401868081E+02 -0.15722553783E+02 -0.80487077511E+02  0.90134721832E+02  0.00000000000E+00 0.  1.
</event>
<event>
12    1  0.8226261E-002  0.2105452E+03  0.7818608E-02  0.1141480E+00
         21   -1    0    0  501  502  0.00000000000E+00  0.00000000000E+00  0.96300007078E+02  0.96300007078E+02  0.00000000000E+00 0.  1.
         21   -1    0    0  502  503 -0.00000000000E+00 -0.00000000000E+00 -0.50533741289E+03  0.50533741289E+03  0.00000000000E+00 0. -1.
         -6    2    1    2    0  503  0.64318629503E+02  0.10039871397E+03 -0.29877990885E+03  0.36551158449E+03  0.17352952659E+03 0.  0.
        -24    2    3    3    0    0 -0.80560835646E+01  0.10129822209E+03 -0.13059459316E+03  0.18235236792E+03  0.76623808575E+02 0.  0.
          6    2    1    2  501    0 -0.64318629503E+02 -0.10039871397E+03 -0.11025749696E+03  0.23612583547E+03  0.17141151266E+03 0.  0.
         24    2    5    5    0    0 -0.56266302192E+01 -0.20264832679E+02 -0.10732827287E+03  0.13664287178E+03  0.81912110455E+02 0.  0.
          5    1    5    5  501    0 -0.58691999283E+02 -0.80133881294E+02 -0.29292240886E+01  0.99482963692E+02  0.47000000000E+01 0. -1.
        -11    1    6    6    0    0 -0.82870710560E-01 -0.28479396208E+02  0.37761147282E+00  0.28482020054E+02  0.00000000000E+00 0.  1.
         12    1    6    6    0    0 -0.55437595087E+01  0.82145635285E+01 -0.10770588434E+03  0.10816085173E+03  0.00000000000E+00 0. -1.
         -5    1    3    3    0  503  0.72374713067E+02 -0.89950811221E+00 -0.16818531568E+03  0.18315921658E+03  0.47000000000E+01 0.  1.
         13    1    4    4    0    0 -0.11779380211E+02 -0.90320341657E+00 -0.52126209974E+02  0.53448211764E+02  0.00000000000E+00 0. -1.
        -14    1    4    4    0    0  0.37232966465E+01  0.10220142550E+03 -0.78468383191E+02  0.12890415615E+03  0.00000000000E+00 0.  1.
</event>
<event>
12    1  0.8226261E-002  0.4188002E+03  0.7818608E-02  0.1037498E+00
         21   -1    0    0  503  502  0.00000000000E+00  0.00000000000E+00  0.23739853474E+03  0.23739853474E+03  0.00000000000E+00 0.  1.
         21   -1    0    0  501  503 -0.00000000000E+00 -0.00000000000E+00 -0.83411323451E+03  0.83411323451E+03  0.00000000000E+00 0.  1.
          6    2    1    2  501    0  0.31189514012E+03  0.21940991598E+03 -0.48011256860E+03  0.63678236051E+03  0.17194303263E+03 0.  0.
         24    2    3    3    0    0  0.23047159763E+03  0.23047387253E+03 -0.38638334157E+03  0.51204478636E+03  0.81623607865E+02 0.  0.
         -6    2    1    2    0  502 -0.31189514012E+03 -0.21940991598E+03 -0.11660213117E+03  0.43472940874E+03  0.17313091048E+03 0.  0.
        -24    2    5    5    0    0 -0.19663698087E+03 -0.18410361017E+03 -0.13645381613E+03  0.31247083890E+03  0.80362551603E+02 0.  0.
          5    1    3    3  501    0  0.81423542497E+02 -0.11063956547E+02 -0.93729227025E+02  0.12473757415E+03  0.47000000000E+01 0. -1.
        -11    1    4    4    0    0  0.18576500904E+03  0.13989468725E+03 -0.29662510774E+03  0.37691592782E+03  0.00000000000E+00 0.  1.
         12    1    4    4    0    0  0.44706588586E+02  0.90579185273E+02 -0.89758233832E+02  0.13512885853E+03  0.00000000000E+00 0. -1.
         -5    1    5    5    0  502 -0.11525815925E+03 -0.35306305810E+02  0.19851684958E+02  0.12225856984E+03  0.47000000000E+01 0.  1.
         11    1    6    6    0    0 -0.25194317263E+02 -0.69509997495E+02 -0.24888926513E+02  0.78011871129E+02  0.00000000000E+00 0. -1.
        -12    1    6    6    0    0 -0.17144266361E+03 -0.11459361267E+03 -0.11156488961E+03  0.23445896777E+03  0.00000000000E+00 0.  1.
</event>
<event>
12    1  0.8226261E-002  0.1827112E+03  0.7818608E-02  0.1165300E+00
         21   -1    0    0  503  502  0.00000000000E+00  0.00000000000E+00  0.35234053438E+02  0.35234053438E+02  0.00000000000E+00 0. -1.
         21   -1    0    0  501  503 -0.00000000000E+00 -0.00000000000E+00 -0.16584487501E+04  0.16584487501E+04  0.00000000000E+00 0.  1.
          6    2    1    2  501    0  0.94582647565E+01 -0.61854855287E+02 -0.13673918687E+04  0.13795448168E+04  0.17166215956E+03 0.  0.
         24    2    3    3    0    0 -0.38077266543E+02 -0.81756546094E+02 -0.11479310904E+04  0.11540657108E+04  0.77381298944E+02 0.  0.
         -6    2    1    2    0  502 -0.94582647565E+01  0.61854855287E+02 -0.25582282792E+03  0.31413798671E+03  0.17123630899E+03 0.  0.
        -24    2    5    5    0    0 -0.25806157829E+02  0.29391389231E+02 -0.45957784850E+02  0.10109677817E+03  0.81108748141E+02 0.  0.
          5    1    3    3  501    0  0.47535531299E+02  0.19901690808E+02 -0.21946077834E+03  0.22547910604E+03  0.47000000000E+01 0. -1.
        -11    1    4    4    0    0 -0.52064588318E+02 -0.21333224287E+02 -0.49097534816E+03  0.49418885086E+03  0.00000000000E+00 0.  1.
         12    1    4    4    0    0  0.13987321776E+02 -0.60423321807E+02 -0.65695574225E+03  0.65987685993E+03  0.00000000000E+00 0. -1.
         -5    1    5    5    0  502  0.16347893073E+02  0.32463466055E+02 -0.20986504307E+03  0.21304120854E+03  0.47000000000E+01 0.  1.
         11    1    6    6    0    0  0.13249201541E+02 -0.18427416031E+02  0.21898798811E+01  0.22801459974E+02  0.00000000000E+00 0. -1.
        -12    1    6    6    0    0 -0.39055359370E+02  0.47818805262E+02 -0.48147664731E+02  0.78295318195E+02  0.00000000000E+00 0.  1.
</event>
<event>
12    1  0.8226261E-002  0.1905337E+03  0.7818608E-02  0.1158190E+00
         21   -1    0    0  503  502  0.00000000000E+00  0.00000000000E+00  0.12781924153E+03  0.12781924153E+03  0.00000000000E+00 0. -1.
         21   -1    0    0  501  503 -0.00000000000E+00 -0.00000000000E+00 -0.32535312955E+03  0.32535312955E+03  0.00000000000E+00 0. -1.
          6    2    1    2  501    0  0.80517821945E+02  0.50978172924E+01 -0.16452141951E+02  0.19031562031E+03  0.17158162771E+03 0.  0.
         24    2    3    3    0    0  0.19477385088E+02 -0.42420859751E+02 -0.51548886384E+02  0.10524017691E+03  0.78989298501E+02 0.  0.
         -6    2    1    2    0  502 -0.80517821945E+02 -0.50978172924E+01 -0.18108174607E+03  0.26285675077E+03  0.17260928501E+03 0.  0.
        -24    2    5    5    0    0 -0.10853898663E+03  0.10439685929E+02 -0.18613910058E+03  0.23008074565E+03  0.79998038055E+02 0.  0.
          5    1    3    3  501    0  0.61040436857E+02  0.47518677043E+02  0.35096744433E+02  0.85075443398E+02  0.47000000000E+01 0. -1.
        -11    1    4    4    0    0  0.38816463854E+02 -0.38154991456E+02 -0.50055141383E+01  0.54658726759E+02  0.00000000000E+00 0.  1.
         12    1    4    4    0    0 -0.19339078766E+02 -0.42658682951E+01 -0.46543372246E+02  0.50581450155E+02  0.00000000000E+00 0. -1.
         -5    1    5    5    0  502  0.28021164683E+02 -0.15537503221E+02  0.50573545131E+01  0.32776005114E+02  0.47000000000E+01 0.  1.
         13    1    6    6    0    0  0.22306919130E+01 -0.72614637286E+01 -0.63203440644E+02  0.63658304651E+02  0.00000000000E+00 0. -1.
        -14    1    6    6    0    0 -0.11076967854E+03  0.17701149657E+02 -0.12293565994E+03  0.16642244100E+03  0.00000000000E+00 0.  1.
</event>
<event>
12    1  0.8226261E-002  0.1845234E+03  0.7818608E-02  0.1163916E+00
         21   -1    0    0  503  502  0.00000000000E+00  0.00000000000E+00  0.74152397479E+03  0.74152397479E+03  0.00000000000E+00 0.  1.
         21   -1    0    0  501  503 -0.00000000000E+00 -0.00000000000E+00 -0.22361707131E+03  0.22361707131E+03  0.00000000000E+00 0.  1.
          6    2    1    2  501    0  0.53240843496E+02  0.34600101862E+02 -0.17150721013E+03  0.25191986966E+03  0.17325456167E+03 0.  0.
         24    2    3    3    0    0  0.22563127223E+02  0.88308132868E+02 -0.13196252655E+03  0.17835665284E+03  0.78035672333E+02 0.  0.
         -6    2    1    2    0  502 -0.53240843496E+02 -0.34600101862E+02  0.68941411360E+03  0.71322117645E+03  0.17135014453E+03 0.  0.
        -24    2    5    5    0    0 -0.25370451587E+02 -0.13666408361E+02  0.14991422786E+03  0.17257601094E+03  0.80484615333E+02 0.  0.
          5    1    3    3  501    0  0.30677716273E+02 -0.53708031005E+02 -0.39544683575E+02  0.73563216823E+02  0.47000000000E+01 0. -1.
        -11    1    4    4    0    0  0.47662475539E+02  0.30517396554E+02 -0.69607055064E+02  0.89711566599E+02  0.00000000000E+00 0.  1.
         12    1    4    4    0    0 -0.25099348316E+02  0.57790736314E+02 -0.62355471487E+02  0.88645086237E+02  0.00000000000E+00 0. -1.
         -5    1    5    5    0  502 -0.27870391909E+02 -0.20933693502E+02  0.53949988574E+03  0.54064516551E+03  0.47000000000E+01 0.  1.
         13    1    6    6    0    0 -0.95825651950E+01  0.30829402681E+02  0.94027293060E+02  0.99415338181E+02  0.00000000000E+00 0. -1.
        -14    1    6    6    0    0 -0.15787886392E+02 -0.44495811042E+02  0.55886934802E+02  0.73160672759E+02  0.00000000000E+00 0.  1.
</event>
<event>
12    1  0.8226261E-002  0.2058702E+03  0.7818608E-02  0.1145055E+00
         21   -1    0    0  501  502  0.00000000000E+00  0.00000000000E+00  0.18754867644E+02  0.18754867644E+02  0.00000000000E+00 0. -1.
         21   -1    0    0  502  503 -0.00000000000E+00 -0.00000000000E+00 -0.25783502848E+04  0.25783502848E+04  0.00000000000E+00 0. -1.
         -6    2    1    2    0  503  0.70053954771E+02 -0.88144294942E+02 -0.17452998238E+04  0.17573997839E+04  0.17235298746E+03 0.  0.
        -24    2    3    3    0    0  0.91071153636E+02 -0.63915720829E+02 -0.16735209970E+04  0.16786404262E+04  0.69151852648E+02 0.  0.
          6    2    1    2  501    0 -0.70053954771E+02  0.88144294942E+02 -0.81429559333E+03  0.83970536849E+03  0.17132080796E+03 0.  0.
         24    2    5    5    0    0 -0.48724961065E+02  0.11484399217E+03 -0.44605094039E+03  0.46984862025E+03  0.78949478479E+02 0.  0.
          5    1    5    5  501    0 -0.21328993707E+02 -0.26699697229E+02 -0.36824465294E+03  0.36985674824E+03  0.47000000000E+01 0. -1.
        -11    1    6    6    0    0  0.10741537322E+02  0.87195029085E+01 -0.13731906719E+03  0.13801426220E+03  0.00000000000E+00 0.  1.
         12    1    6    6    0    0 -0.59466498386E+02  0.10612448926E+03 -0.30873187320E+03  0.33183435805E+03  0.00000000000E+00 0. -1.
         -5    1    3    3    0  503 -0.21017198865E+02 -0.24228574113E+02 -0.71778826851E+02  0.78759357766E+02  0.47000000000E+01 0.  1.
         11    1    4    4    0    0  0.80351533052E+02 -0.71555642567E+02 -0.11672748604E+04  0.11722231778E+04  0.00000000000E+00 0. -1.
        -12    1    4    4    0    0  0.10719620584E+02  0.76399217372E+01 -0.50624613656E+03  0.50641724837E+03  0.00000000000E+00 0.  1.
</event>
<event>
12    1  0.8226261E-002  0.1988380E+03  0.7818608E-02  0.1150744E+00
         21   -1    0    0  501  502  0.00000000000E+00  0.00000000000E+00  0.89340754449E+02  0.89340754449E+02  0.00000000000E+00 0. -1.
         21   -1    0    0  502  503 -0.00000000000E+00 -0.00000000000E+00 -0.10874157131E+04  0.10874157131E+04  0.00000000000E+00 0.  1.
         -6    2    1    2    0  503  0.98424745757E+02 -0.11510292634E+02 -0.95216772470E+03  0.97268777575E+03  0.17227366519E+03 0.  0.
        -24    2    3    3    0    0  0.52840242720E+02 -0.12867736193E+02 -0.23145618554E+03  0.25051951125E+03  0.78932818316E+02 0.  0.
          6    2    1    2  501    0 -0.98424745757E+02  0.11510292634E+02 -0.45907233952E+02  0.20406869180E+03  0.17238514852E+03 0.  0.
         24    2    5    5    0    0 -0.10739691543E+03  0.16461702174E+02 -0.86825947236E+02  0.16162523080E+03  0.82333984693E+02 0.  0.
          5    1    5    5  501    0  0.89721696694E+01 -0.49514095393E+01  0.40918713284E+02  0.42443461002E+02  0.47000000000E+01 0. -1.
        -13    1    6    6    0    0 -0.10857374579E+03 -0.10732659881E+02 -0.69354240476E+02  0.12928054353E+03  0.00000000000E+00 0.  1.
         14    1    6    6    0    0  0.11768303671E+01  0.27194362054E+02 -0.17471706759E+02  0.32344687266E+02  0.00000000000E+00 0. -1.
         -5    1    3    3    0  503  0.45584503037E+02  0.13574435592E+01 -0.72071153917E+03  0.72216826450E+03  0.47000000000E+01 0.  1.
         13    1    4    4    0    0  0.23366516893E+02 -0.44285449724E+02 -0.15339512747E+03  0.16136065288E+03  0.00000000000E+00 0. -1.
        -14    1    4    4    0    0  0.29473725827E+02  0.31417713530E+02 -0.78061058072E+02  0.89158858365E+02  0.00000000000E+00 0.  1.
</event>
<event>
12    1  0.8226261E-002  0.1802268E+03  0.7818608E-02  0.1168020E+00
         21   -1    0    0  501  502  0.00000000000E+00  0.00000000000E+00  0.35592535466E+02  0.35592535466E+02  0.00000000000E+00 0.  1.
         21   -1    0    0  502  503 -0.00000000000E+00 -0.00000000000E+00 -0.90828980893E+03  0.90828980893E+03  0.00000000000E+00 0.  1.
         -6    2    1    2    0  503  0.15114203765E+02  0.30070579920E+02 -0.40001608294E+03  0.43800766002E+03  0.17522889229E+03 0.  0.
        -24    2    3    3    0    0 -0.13093345740E+02  0.50843398167E+02 -0.11976049362E+03  0.15553206607E+03  0.84209031028E+02 0.  0.
          6    2    1    2  501    0 -0.15114203765E+02 -0.30070579920E+02 -0.47268119052E+03  0.50587468437E+03  0.17705651495E+03 0.  0.
         24    2    5    5    0    0 -0.12917066393E+02 -0.33903010115E+02 -0.11628146733E+03  0.14941659761E+03  0.86531354408E+02 0.  0.
          5    1    5    5  501    0 -0.21971373719E+01  0.38324301954E+01 -0.35639972319E+03  0.35645808677E+03  0.47000000000E+01 0. -1.
        -13    1    6    6    0    0 -0.45644228838E+02 -0.39309762702E+02 -0.81600356663E+02  0.10142618635E+03  0.00000000000E+00 0.  1.
         14    1    6    6    0    0  0.32727162445E+02  0.54067525865E+01 -0.34681110670E+02  0.47990411256E+02  0.00000000000E+00 0. -1.
         -5    1    3    3    0  503  0.28207549505E+02 -0.20772818247E+02 -0.28025558933E+03  0.28247559395E+03  0.47000000000E+01 0.  1.
         13    1    4    4    0    0  0.15689290808E+02 -0.49396399187E+01  0.38533013541E+01  0.16893839703E+02  0.00000000000E+00 0. -1.
        -14    1    4    4    0    0 -0.28782636548E+02  0.55783038085E+02 -0.12361379497E+03  0.13863822637E+03  0.00000000000E+00 0.  1.
</event>
<event>
12    1  0.8226261E-002  0.2339934E+03  0.7818608E-02  0.1124026E+00
         21   -1    0    0  501  502  0.00000000000E+00  0.00000000000E+00  0.14966659090E+04  0.14966659090E+04  0.00000000000E+00 0. -1.
         21   -1    0    0  502  503 -0.00000000000E+00 -0.00000000000E+00 -0.61463551675E+02  0.61463551675E+02  0.00000000000E+00 0.  1.
         -6    2    1    2    0  503  0.98207194399E+02 -0.12402927053E+03  0.21956702410E+03  0.32017865893E+03  0.17110459544E+03 0.  0.
        -24    2    3    3    0    0  0.56085602584E+01 -0.59405078687E+01  0.57318235165E+02  0.99121601986E+02  0.80454747007E+02 0.  0.
          6    2    1    2  501    0 -0.98207194399E+02  0.12402927053E+03  0.12156353332E+04  0.12379508017E+04  0.17240942893E+03 0.  0.
         24    2    5    5    0    0 -0.32157205812E+02 -0.89305876730E-01  0.58610238908E+03  0.59289123879E+03  0.83486026882E+02 0.  0.
          5    1    5    5  501    0 -0.66049988587E+02  0.12411857641E+03  0.62953294412E+03  0.64505956294E+03  0.47000000000E+01 0. -1.
        -11    1    6    6    0    0 -0.24886077230E+02 -0.34552157107E+02  0.16816343908E+03  0.17347077749E+03  0.00000000000E+00 0.  1.
         12    1    6    6    0    0 -0.72711285819E+01  0.34462851231E+02  0.41793895000E+03  0.41942046130E+03  0.00000000000E+00 0. -1.
         -5    1    3    3    0  503  0.92598634140E+02 -0.11808876267E+03  0.16224878894E+03  0.22105705694E+03  0.47000000000E+01 0.  1.
         11    1    4    4    0    0 -0.27995546180E+02  0.13053877177E+01  0.58347974845E+02  0.64729752135E+02  0.00000000000E+00 0. -1.
        -12    1    4    4    0    0  0.33604106438E+02 -0.72458955864E+01 -0.10297396798E+01  0.34391849851E+02  0.00000000000E+00 0.  1.
</event>
<event>
12    1  0.8226261E-002  0.2005586E+03  0.7818608E-02  0.1149495E+00
         21   -1    0    0  503  502  0.00000000000E+00  0.00000000000E+00  0.24990730804E+03  0.24990730804E+03  0.00000000000E+00 0.  1.
         21   -1    0    0  501  503 -0.00000000000E+00 -0.00000000000E+00 -0.24471627035E+03  0.24471627035E+03  0.00000000000E+00 0. -1.
          6    2    1    2  501    0  0.10395359106E+03  0.23331945869E+00 -0.14283187135E+03  0.24622081362E+03  0.17151484500E+03 0.  0.
         24    2    3    3    0    0  0.10567675677E+03 -0.54572113708E+02 -0.84600512004E+02  0.16609849454E+03  0.79282852747E+02 0.  0.
         -6    2    1    2    0  502 -0.10395359106E+03 -0.23331945869E+00  0.14802290904E+03  0.24840276476E+03  0.17025495121E+03 0.  0.
        -24    2    5    5    0    0 -0.44428160410E+02  0.60245993646E+02  0.11133247313E+03  0.15583223871E+03  0.79280047049E+02 0.  0.
          5    1    3    3  501    0 -0.17231657136E+01  0.54805433167E+02 -0.58231359344E+02  0.80122319086E+02  0.47000000000E+01 0. -1.
        -11    1    4    4    0    0  0.37263375286E+01  0.14151031284E+02 -0.26140398873E+02  0.29957598886E+02  0.00000000000E+00 0.  1.
         12    1    4    4    0    0  0.10195041924E+03 -0.68723144992E+02 -0.58460113131E+02  0.13614089565E+03  0.00000000000E+00 0. -1.
         -5    1    5    5    0  502 -0.59525430648E+02 -0.60479313104E+02  0.36690435912E+02  0.92570526059E+02  0.47000000000E+01 0.  1.
         11    1    6    6    0    0  0.44647187838E+01 -0.17000295109E+02  0.19522802070E+02  0.26269441339E+02  0.00000000000E+00 0. -1.
        -12    1    6    6    0    0 -0.48892879194E+02  0.77246288754E+02  0.91809671055E+02  0.12956279737E+03  0.00000000000E+00 0.  1.
</event>
<event>
12    1  0.8226261E-002  0.2027735E+03  0.7818608E-02  0.1147421E+00
         21   -1    0    0  503  502  0.00000000000E+00  0.00000000000E+00  0.79073426275E+02  0.79073426275E+02  0.00000000000E+00 0. -1.
         21   -1    0    0  501  503 -0.00000000000E+00 -0.00000000000E+00 -0.57183415675E+03  0.57183415675E+03  0.00000000000E+00 0.  1.
          6    2    1    2  501    0 -0.10686711091E+03 -0.11991733448E+02 -0.14836144932E+03  0.25124777305E+03  0.17190096786E+03 0.  0.
         24    2    3    3    0    0 -0.50033928035E+02 -0.29202439563E+02 -0.16308914441E+03  0.18988643275E+03  0.78119215845E+02 0.  0.
         -6    2    1    2    0  502  0.10686711091E+03  0.11991733448E+02 -0.34439928115E+03  0.39965980998E+03  0.17190903928E+03 0.  0.
        -24    2    5    5    0    0  0.11824030637E+03 -0.37899414830E+02 -0.28662820373E+03  0.32234187132E+03  0.79570215143E+02 0.  0.
          5    1    3    3  501    0 -0.56833182874E+02  0.17210706115E+02  0.14727695096E+02  0.61361340300E+02  0.47000000000E+01 0. -1.
        -11    1    4    4    0    0 -0.57557458306E+02  0.28066057613E+01 -0.67243825735E+02  0.88557722091E+02  0.00000000000E+00 0.  1.
         12    1    4    4    0    0  0.75235302703E+01 -0.32009045325E+02 -0.95845318679E+02  0.10132871065E+03  0.00000000000E+00 0. -1.
         -5    1    5    5    0  502 -0.11373195458E+02  0.49891148278E+02 -0.57771077426E+02  0.77317938658E+02  0.47000000000E+01 0.  1.
         13    1    6    6    0    0  0.56008244554E+02 -0.39856467145E+02 -0.74966780657E+02  0.10171273093E+03  0.00000000000E+00 0. -1.
        -14    1    6    6    0    0  0.62232061813E+02  0.19570523152E+01 -0.21166142307E+03  0.22062914039E+03  0.00000000000E+00 0.  1.
</event>
<event>
12    1  0.8226261E-002  0.2147106E+03  0.7818608E-02  0.1138123E+00
         21   -1    0    0  501  502  0.00000000000E+00  0.00000000000E+00  0.85044542522E+03  0.85044542522E+03  0.00000000000E+00 0. -1.
         21   -1    0    0  502  503 -0.00000000000E+00 -0.00000000000E+00 -0.89522230572E+02  0.89522230572E+02  0.00000000000E+00 0. -1.
         -6    2    1    2    0  503 -0.99867683201E+02  0.80867901718E+02  0.84650848144E+02  0.23079520628E+03  0.17201014352E+03 0.  0.
        -24    2    3    3    0    0 -0.33099915533E+02  0.10591446590E+03  0.13098147626E+02  0.12966586273E+03  0.65789026360E+02 0.  0.
          6    2    1    2  501    0  0.99867683201E+02 -0.80867901718E+02  0.67627234650E+03  0.70917244951E+03  0.17049370904E+03 0.  0.
         24    2    5    5    0    0 -0.59432536472E+01 -0.65070822953E+02  0.27005906426E+03  0.28908100383E+03  0.79789688103E+02 0.  0.
          5    1    5    5  501    0  0.10581093685E+03 -0.15797078765E+02  0.40621328225E+03  0.42009144567E+03  0.47000000000E+01 0. -1.
        -11    1    6    6    0    0  0.60477881014E+01 -0.11688477818E+02  0.19882629866E+03  0.19926136929E+03  0.00000000000E+00 0.  1.
         12    1    6    6    0    0 -0.11991041749E+02 -0.53382345135E+02  0.71232765597E+02  0.89819634540E+02  0.00000000000E+00 0. -1.
         -5    1    3    3    0  503 -0.66767767667E+02 -0.25046564185E+02  0.71552700518E+02  0.10112934356E+03  0.47000000000E+01 0.  1.
         13    1    4    4    0    0 -0.48247590797E+02  0.10012346393E+03  0.18292754624E+02  0.11263730695E+03  0.00000000000E+00 0. -1.
        -14    1    4    4    0    0  0.15147675264E+02  0.57910019775E+01 -0.51946069979E+01  0.17028555772E+02  0.00000000000E+00 0.  1.
</event>
<event>
12    1  0.8226261E-002  0.1808281E+03  0.7818608E-02  0.1167235E+00
         21   -1    0    0  501  502  0.00000000000E+00  0.00000000000E+00  0.27120397899E+04  0.27120397899E+04  0.00000000000E+00 0.  1.
         21   -1    0    0  502  503 -0.00000000000E+00 -0.00000000000E+00 -0.12177163459E+02  0.12177163459E+02  0.00000000000E+00 0.  1.
         -6    2    1    2    0  503 -0.95173269479E-01 -0.52274177342E+02  0.11860328127E+04  0.11997385735E+04  0.17310751915E+03 0.  0.
        -24    2    3    3    0    0 -0.15485695054E+02 -0.65833970836E+02  0.11666231226E+04  0.11711105761E+04  0.76919132672E+02 0.  0.
          6    2    1    2  501    0  0.95173269479E-01  0.52274177342E+02  0.15138298137E+04  0.15244783799E+04  0.17210760332E+03 0.  0.
         24    2    5    5    0    0  0.33691301805E+02 -0.28976071826E+02  0.96495641213E+03  0.96858773972E+03  0.71039535897E+02 0.  0.
          5    1    5    5  501    0 -0.33596128536E+02  0.81250249167E+02  0.54887340161E+03  0.55589064018E+03  0.47000000000E+01 0. -1.
        -11    1    6    6    0    0  0.52293563467E+02 -0.11071350508E+02  0.48484717975E+03  0.48778476739E+03  0.00000000000E+00 0.  1.
         12    1    6    6    0    0 -0.18602261662E+02 -0.17904721318E+02  0.48010923238E+03  0.48080297233E+03  0.00000000000E+00 0. -1.
         -5    1    3    3    0  503  0.15390521785E+02  0.13559793494E+02  0.19409690166E+02  0.28627997359E+02  0.47000000000E+01 0.  1.
         13    1    4    4    0    0 -0.33710160560E+00 -0.70115982395E+02  0.11134650527E+04  0.11156705554E+04  0.00000000000E+00 0. -1.
        -14    1    4    4    0    0 -0.15148593449E+02  0.42820115586E+01  0.53158069850E+02  0.55440020712E+02  0.00000000000E+00 0.  1.
</event>
<event>
12    1  0.8226261E-002  0.1924474E+03  0.7818608E-02  0.1156556E+00
         21   -1    0    0  503  502  0.00000000000E+00  0.00000000000E+00  0.33150517005E+03  0.33150517005E+03  0.00000000000E+00 0.  1.
         21   -1    0    0  501  503 -0.00000000000E+00 -0.00000000000E+00 -0.17511805909E+03  0.17511805909E+03  0.00000000000E+00 0.  1.
          6    2    1    2  501    0 -0.34451287786E+02 -0.82363925588E+02 -0.74941790613E+02  0.20652430002E+03  0.17048550394E+03 0.  0.
         24    2    3    3    0    0 -0.73620722446E+02 -0.51699514267E+02 -0.29765806134E+01  0.11891361470E+03  0.77709312050E+02 0.  0.
         -6    2    1    2    0  502  0.34451287786E+02  0.82363925588E+02  0.23132890157E+03  0.30009892911E+03  0.16904318704E+03 0.  0.
        -24    2    5    5    0    0  0.59543205983E+02  0.55891892301E+02  0.67572709049E+02  0.13226402960E+03  0.79110084785E+02 0.  0.
          5    1    3    3  501    0  0.39169434661E+02 -0.30664411321E+02 -0.71965209999E+02  0.87610685327E+02  0.47000000000E+01 0. -1.
        -11    1    4    4    0    0 -0.84584909299E+02 -0.22265476941E+02 -0.20889194484E+01  0.87491267730E+02  0.00000000000E+00 0.  1.
         12    1    4    4    0    0  0.10964186852E+02 -0.29434037326E+02 -0.88766116501E+00  0.31422346968E+02  0.00000000000E+00 0. -1.
         -5    1    5    5    0  502 -0.25091918197E+02  0.26472033287E+02  0.16375619252E+03  0.16783489951E+03  0.47000000000E+01 0.  1.
         13    1    6    6    0    0 -0.16115996768E+02 -0.40180197295E+01  0.54030898459E+01  0.17466058922E+02  0.00000000000E+00 0. -1.
        -14    1    6    6    0    0  0.75659202751E+02  0.59909912030E+02  0.62169619203E+02  0.11479797068E+03  0.00000000000E+00 0.  1.
</event>
<event>
12    1  0.8226261E-002  0.2158639E+03  0.7818608E-02  0.1137526E+00
         21   -1    0    0  503  502  0.00000000000E+00  0.00000000000E+00  0.89405915562E+02  0.89405915562E+02  0.00000000000E+00 0. -1.
         21   -1    0    0  501  503 -0.00000000000E+00 -0.00000000000E+00 -0.68244484008E+03  0.68244484008E+03  0.00000000000E+00 0. -1.
          6    2    1    2  501    0  0.11162958217E+03 -0.64744377609E+02 -0.48928109663E+03  0.53478332058E+03  0.17304395512E+03 0.  0.
         24    2    3    3    0    0  0.37490138521E+02  0.30186501806E+02 -0.21861457915E+03  0.23848788920E+03  0.82264230994E+02 0.  0.
         -6    2    1    2    0  502 -0.11162958217E+03  0.64744377609E+02 -0.10375782789E+03  0.23706743506E+03  0.16965342281E+03 0.  0.
        -24    2    5    5    0    0  0.10760774451E+01  0.55604114804E+02 -0.27618833982E+02  0.10066601826E+03  0.79233021620E+02 0.  0.
          5    1    3    3  501    0  0.74139443649E+02 -0.94930879415E+02 -0.27066651748E+03  0.29629543138E+03  0.47000000000E+01 0. -1.
        -11    1    4    4    0    0  0.46009394094E+02  0.27175984657E+02 -0.22237200773E+03  0.22870222629E+03  0.00000000000E+00 0.  1.
         12    1    4    4    0    0 -0.85192555728E+01  0.30105171491E+01  0.37574285842E+01  0.97856629098E+01  0.00000000000E+00 0. -1.
         -5    1    5    5    0  502 -0.11270565962E+03  0.91402628052E+01 -0.76138993903E+02  0.13640141680E+03  0.47000000000E+01 0.  1.
         13    1    6    6    0    0  0.10971671021E+02  0.23770270892E+02  0.26405575178E+02  0.37184106064E+02  0.00000000000E+00 0. -1.
        -14    1    6    6    0    0 -0.98955935760E+01  0.31833843912E+02 -0.54024409160E+02  0.63481912192E+02  0.00000000000E+00 0.  1.
</event>
<event>
12    1  0.8226261E-002  0.1967343E+03  0.7818608E-02  0.1152853E+00
         21   -1    0    0  501  502  0.00000000000E+00  0.00000000000E+00  0.32269617919E+04  0.32269617919E+04  0.00000000000E+00 0.  1.
         21   -1    0    0  502  503 -0.00000000000E+00 -0.00000000000E+00 -0.12009915630E+02  0.12009915630E+02  0.00000000000E+00 0.  1.
         -6    2    1    2    0  503 -0.82070710415E+02  0.42376678265E+02  0.14473328079E+04  0.14604381638E+04  0.17197671091E+03 0.  0.
        -24    2    3    3    0    0 -0.11180149289E+03  0.52628452647E+02  0.86394535947E+03  0.87618477418E+03  0.77645647051E+02 0.  0.
          6    2    1    2  501    0  0.82070710415E+02 -0.42376678265E+02  0.17676190684E+04  0.17785335437E+04  0.17370380229E+03 0.  0.
         24    2    5    5    0    0  0.43806516614E+02 -0.76315055970E+02  0.15694090085E+04  0.15737769081E+04  0.77370031520E+02 0.  0.
          5    1    5    5  501    0  0.38264193801E+02  0.33938377706E+02  0.19821005990E+03  0.20475663568E+03  0.47000000000E+01 0. -1.
        -13    1    6    6    0    0  0.57274596671E+01 -0.70321855941E+02  0.70825443589E+03  0.71176001094E+03  0.00000000000E+00 0.  1.
         14    1    6    6    0    0  0.38079056946E+02 -0.59932000293E+01  0.86115457260E+03  0.86201689713E+03  0.00000000000E+00 0. -1.
         -5    1    3    3    0  503  0.29730782476E+02 -0.10251774382E+02  0.58338744846E+03  0.58425338965E+03  0.47000000000E+01 0.  1.
         11    1    4    4    0    0 -0.42561041062E+02 -0.91288698434E+01  0.14849236104E+03  0.15474094406E+03  0.00000000000E+00 0. -1.
        -12    1    4    4    0    0 -0.69240451829E+02  0.61757322490E+02  0.71545299844E+03  0.72144383012E+03  0.00000000000E+00 0.  1.
</event>
<event>
12    1  0.8226261E-002  0.1753622E+03  0.7818608E-02  0.1172586E+00
         21   -1    0    0  501  502  0.00000000000E+00  0.00000000000E+00  0.81705291730E+02  0.81705291730E+02  0.00000000000E+00 0. -1.
         21   -1    0    0  502  503 -0.00000000000E+00 -0.00000000000E+00 -0.48503194187E+03  0.48503194187E+03  0.00000000000E+00 0. -1.
         -6    2    1    2    0  503  0.28427889483E+02 -0.11890474844E+02 -0.33653972799E+03  0.37908752945E+03  0.17175225815E+03 0.  0.
        -24    2    3    3    0    0  0.38185760026E+02  0.51416241492E+02 -0.26496071868E+03  0.28291788277E+03  0.75740106849E+02 0.  0.
          6    2    1    2  501    0 -0.28427889483E+02  0.11890474844E+02 -0.66786922149E+02  0.18764970415E+03  0.17263368791E+03 0.  0.
         24    2    5    5    0    0 -0.52708812292E+02 -0.28927299440E+02  0.55799060818E+01  0.10096232480E+03  0.80915067388E+02 0.  0.
          5    1    5    5  501    0  0.24280922809E+02  0.40817774284E+02 -0.72366828231E+02  0.86687379348E+02  0.47000000000E+01 0. -1.
        -13    1    6    6    0    0 -0.25297637199E+02  0.27131049019E+02 -0.57577051123E+01  0.37539518336E+02  0.00000000000E+00 0.  1.
         14    1    6    6    0    0 -0.27411175093E+02 -0.56058348458E+02  0.11337611194E+02  0.63422806461E+02  0.00000000000E+00 0. -1.
         -5    1    3    3    0  503 -0.97578705431E+01 -0.63306716336E+02 -0.71579009304E+02  0.96169646686E+02  0.47000000000E+01 0.  1.
         13    1    4    4    0    0 -0.15446905904E+02  0.41893742882E+02 -0.11423082096E+03  0.12264735240E+03  0.00000000000E+00 0. -1.
        -14    1    4    4    0    0  0.53632665930E+02  0.95224986104E+01 -0.15072989773E+03  0.16027053036E+03  0.00000000000E+00 0.  1.
</event>
<event>
12    1  0.8226261E-002  0.1907020E+03  0.7818608E-02  0.1157988E+00
         21   -1    0    0  503  502  0.00000000000E+00  0.00000000000E+00  0.24482326402E+03  0.24482326402E+03  0.00000000000E+00 0.  1.
         21   -1    0    0  501  503 -0.00000000000E+00 -0.00000000000E+00 -0.16190108296E+03  0.16190108296E+03  0.00000000000E+00 0.  1.
          6    2    1    2  501    0 -0.63854019606E+02  0.48574905311E+02 -0.18065972353E+02  0.19155584121E+03  0.17300405688E+03 0.  0.
         24    2    3    3    0    0 -0.10590658338E+03  0.92709213216E+01 -0.12263469094E+02  0.13351292328E+03  0.79832033822E+02 0.  0.
         -6    2    1    2    0  502  0.63854019606E+02 -0.48574905311E+02  0.10098815341E+03  0.21516850578E+03  0.17222665735E+03 0.  0.
        -24    2    5    5    0    0  0.10487831954E+03 -0.60760900385E+02  0.90081889005E+02  0.17075535159E+03  0.79695008913E+02 0.  0.
          5    1    3    3  501    0  0.42052563773E+02  0.39303983990E+02 -0.58025032590E+01  0.58042917926E+02  0.47000000000E+01 0. -1.
        -13    1    4    4    0    0 -0.10378946610E+03  0.30026064323E+02  0.22997877962E+01  0.10806991643E+03  0.00000000000E+00 0.  1.
         14    1    4    4    0    0 -0.21171172755E+01 -0.20755143002E+02 -0.14563256890E+02  0.25443006855E+02  0.00000000000E+00 0. -1.
         -5    1    5    5    0  502 -0.41024299935E+02  0.12185995074E+02  0.10906264408E+02  0.44413154183E+02  0.47000000000E+01 0.  1.
         11    1    6    6    0    0 -0.95433656433E+01 -0.15946952125E+02  0.33526502454E+00  0.18587455784E+02  0.00000000000E+00 0. -1.
        -12    1    6    6    0    0  0.11442168518E+03 -0.44813948260E+02  0.89746623980E+02  0.15216789581E+03  0.00000000000E+00 0.  1.
</event>
<event>
12    1  0.8226261E-002  0.1992115E+03  0.7818608E-02  0.1151094E+00
         21   -1    0    0  501  502  0.00000000000E+00  0.00000000000E+00  0.70087576489E+03  0.70087576489E+03  0.00000000000E+00 0.  1.
         21   -1    0    0  502  503 -0.00000000000E+00 -0.00000000000E+00 -0.95663408671E+02  0.95663408671E+02  0.00000000000E+00 0.  1.
         -6    2    1    2    0  503  0.76129347498E+02 -0.53869734115E+02  0.43795746276E+02  0.20082629036E+03  0.17238186014E+03 0.  0.
        -24    2    3    3    0    0  0.27847806183E+02 -0.17761905787E+02  0.91055270404E+02  0.12407712021E+03  0.77544077049E+02 0.  0.
          6    2    1    2  501    0 -0.76129347498E+02  0.53869734115E+02  0.56141660994E+03  0.59571288320E+03  0.17603296136E+03 0.  0.
         24    2    5    5    0    0 -0.50323804012E+01  0.70713966067E+02  0.44964975911E+03  0.46209991292E+03  0.79533853215E+02 0.  0.
          5    1    5    5  501    0 -0.71096967096E+02 -0.16844231952E+02  0.11176685084E+03  0.13361297028E+03  0.47000000000E+01 0. -1.
        -11    1    6    6    0    0 -0.22728259093E+02  0.16257031621E+02  0.41989388664E+02  0.50437819133E+02  0.00000000000E+00 0.  1.
         12    1    6    6    0    0  0.17695878692E+02  0.54456934446E+02  0.40766037044E+03  0.41166209379E+03  0.00000000000E+00 0. -1.
         -5    1    3    3    0  503  0.48281541315E+02 -0.36107828327E+02 -0.47259524128E+02  0.76749170152E+02  0.47000000000E+01 0.  1.
         13    1    4    4    0    0 -0.17849599035E+02  0.14301143757E+02  0.49357266483E+02  0.54399178791E+02  0.00000000000E+00 0. -1.
        -14    1    4    4    0    0  0.45697405218E+02 -0.32063049544E+02  0.41698003921E+02  0.69677941421E+02  0.00000000000E+00 0.  1.
</event>
<event>
12    1  0.8226261E-002  0.1849363E+03  0.7818608E-02  0.1163259E+00
         21   -1    0    0  503  502  0.00000000000E+00  0.00000000000E+00  0.13033478794E+04  0.13033478794E+04  0.00000000000E+00 0. -1.
         21   -1    0    0  501  503 -0.00000000000E+00 -0.00000000000E+00 -0.27323391184E+02  0.27323391184E+02  0.00000000000E+00 0. -1.
          6    2    1    2  501    0  0.64608747032E+01 -0.67373889157E+02  0.49912521819E+03  0.53206379570E+03  0.17142028881E+03 0.  0.
         24    2    3    3    0    0 -0.48363009528E+02 -0.35134160147E+02  0.16930331835E+03  0.19613279977E+03  0.78937137285E+02 0.  0.
         -6    2    1    2    0  502 -0.64608747032E+01  0.67373889157E+02  0.77689927001E+03  0.79860747487E+03  0.17210589570E+03 0.  0.
        -24    2    5    5    0    0 -0.68668823619E+02  0.30807127990E+02  0.51825360521E+03  0.53004346602E+03  0.81821696906E+02 0.  0.
          5    1    3    3  501    0  0.54823884231E+02 -0.32239729010E+02  0.32982189984E+03  0.33593099593E+03  0.47000000000E+01 0. -1.
        -11    1    4    4    0    0 -0.50003713425E+02 -0.59455477902E+01  0.15616234510E+03  0.16408046478E+03  0.00000000000E+00 0.  1.
         12    1    4    4    0    0  0.16407038973E+01 -0.29188612357E+02  0.13140973248E+02  0.32052334993E+02  0.00000000000E+00 0. -1.
         -5    1    5    5    0  502  0.62207948916E+02  0.36566761167E+02  0.25864566480E+03  0.26856400885E+03  0.47000000000E+01 0.  1.
         11    1    6    6    0    0 -0.66420712816E+02  0.32503319740E+02  0.22628098471E+03  0.23805726396E+03  0.00000000000E+00 0. -1.
        -12    1    6    6    0    0 -0.22481108031E+01 -0.16961917508E+01  0.29197262050E+03  0.29198620206E+03  0.00000000000E+00 0.  1.
</event>
<event>
12    1  0.8226261E-002  0.2175903E+03  0.7818608E-02  0.1136156E+00
         21   -1    0    0  503  502  0.00000000000E+00  0.00000000000E+00  0.55555816407E+03  0.55555816407E+03  0.00000000000E+00 0.  1.
         21   -1    0    0  501  503 -0.00000000000E+00 -0.00000000000E+00 -0.84897551431E+02  0.84897551431E+02  0.00000000000E+00 0. -1.
          6    2    1    2  501    0  0.10338093484E+03 -0.85249418245E+02  0.20909200505E+03  0.30176975888E+03  0.17143640163E+03 0.  0.
         24    2    3    3    0    0  0.44573204117E+02 -0.11642809595E+03  0.16478517926E+03  0.22167204389E+03  0.80262492421E+02 0.  0.
         -6    2    1    2    0  502 -0.10338093484E+03  0.85249418245E+02  0.26156860759E+03  0.33868595662E+03  0.16832991336E+03 0.  0.
        -24    2    5    5    0    0 -0.35065634444E+01  0.35149695305E+02  0.18038205170E+03  0.20048965002E+03  0.80066335754E+02 0.  0.
          5    1    3    3  501    0  0.58807730720E+02  0.31178677700E+02  0.44306825789E+02  0.80097714993E+02  0.47000000000E+01 0. -1.
        -13    1    4    4    0    0  0.58794283578E+02 -0.10395082255E+03  0.16381792391E+03  0.20272852164E+03  0.00000000000E+00 0.  1.
         14    1    4    4    0    0 -0.14221079461E+02 -0.12477273400E+02  0.96725534257E+00  0.18943522255E+02  0.00000000000E+00 0. -1.
         -5    1    5    5    0  502 -0.99874371393E+02  0.50099722940E+02  0.81186555892E+02  0.13819630660E+03  0.47000000000E+01 0.  1.
         13    1    6    6    0    0  0.11933120733E+02 -0.23596105600E+02  0.62971782818E+02  0.68298030727E+02  0.00000000000E+00 0. -1.
        -14    1    6    6    0    0 -0.15439684177E+02  0.58745800905E+02  0.11741026888E+03  0.13219161929E+03  0.00000000000E+00 0.  1.
</event>
<event>
12    1  0.8226261E-002  0.1750821E+03  0.7818608E-02  0.1173246E+00
         21   -1    0    0  501  502  0.00000000000E+00  0.00000000000E+00  0.30241366792E+03  0.30241366792E+03  0.00000000000E+00 0.  1.
         21   -1    0    0  502  503 -0.00000000000E+00 -0.00000000000E+00 -0.19618945336E+03  0.19618945336E+03  0.00000000000E+00 0.  1.
         -6    2    1    2    0  503 -0.26383234411E-01  0.29838424755E+02 -0.12126396283E+03  0.21297576179E+03  0.17252070641E+03 0.  0.
        -24    2    3    3    0    0  0.31583159699E+01  0.77301133291E+02 -0.12440236484E+03  0.16507178933E+03  0.76074352355E+02 0.  0.
          6    2    1    2  501    0  0.26383234411E-01 -0.29838424755E+02  0.22748817739E+03  0.28562735950E+03  0.17012285371E+03 0.  0.
         24    2    5    5    0    0 -0.64593789705E+02 -0.17065611601E+02  0.16475074646E+03  0.19453956258E+03  0.78988861141E+02 0.  0.
          5    1    5    5  501    0  0.64620172939E+02 -0.12772813154E+02  0.62737430931E+02  0.91087796913E+02  0.47000000000E+01 0. -1.
        -13    1    6    6    0    0 -0.59385806378E+02 -0.12460368857E+02  0.17324441444E+03  0.18356350925E+03  0.00000000000E+00 0.  1.
         14    1    6    6    0    0 -0.52079833265E+01 -0.46052427446E+01 -0.84936679842E+01  0.10976053339E+02  0.00000000000E+00 0. -1.
         -5    1    3    3    0  503 -0.31846992043E+01 -0.47462708535E+02  0.31384020089E+01  0.47903972463E+02  0.47000000000E+01 0.  1.
         13    1    4    4    0    0 -0.23765177392E+02  0.74433583352E+02 -0.72783736696E+02  0.10678302447E+03  0.00000000000E+00 0. -1.
        -14    1    4    4    0    0  0.26923493362E+02  0.28675499384E+01 -0.51618628141E+02  0.58288764857E+02  0.00000000000E+00 0.  1.
</event>
<event>
12    1  0.8226261E-002  0.2061792E+03  0.7818608E-02  0.1144916E+00
         21   -1    0    0  503  502  0.00000000000E+00  0.00000000000E+00  0.98837741702E+02  0.98837741702E+02  0.00000000000E+00 0.  1.
         21   -1    0    0  501  503 -0.00000000000E+00 -0.00000000000E+00 -0.53338566090E+03  0.53338566090E+03  0.00000000000E+00 0. -1.
          6    2    1    2  501    0 -0.15864544802E+00 -0.11105646801E+03 -0.35894896286E+03  0.41394955043E+03  0.17371329284E+03 0.  0.
         24    2    3    3    0    0  0.26536476663E+02 -0.94742569452E+02 -0.11754960588E+03  0.17048597537E+03  0.74613798290E+02 0.  0.
         -6    2    1    2    0  502  0.15864544802E+00  0.11105646801E+03 -0.75598956339E+02  0.21827385217E+03  0.17203112534E+03 0.  0.
        -24    2    5    5    0    0 -0.33941940596E+02  0.38874960476E+02 -0.97511588794E+02  0.13535658340E+03  0.78419237681E+02 0.  0.
          5    1    3    3  501    0 -0.26695122111E+02 -0.16313898561E+02 -0.24139935698E+03  0.24346357506E+03  0.47000000000E+01 0. -1.
        -11    1    4    4    0    0 -0.10481446108E+02 -0.33539872998E+02 -0.84850847560E+02  0.91839262437E+02  0.00000000000E+00 0.  1.
         12    1    4    4    0    0  0.37017922770E+02 -0.61202696454E+02 -0.32698758318E+02  0.78646712932E+02  0.00000000000E+00 0. -1.
         -5    1    5    5    0  502  0.34100586044E+02  0.72181507537E+02  0.21912632455E+02  0.82917268768E+02  0.47000000000E+01 0.  1.
         13    1    6    6    0    0 -0.14949019904E+01 -0.23231746518E+02 -0.30789061483E+02  0.38599418198E+02  0.00000000000E+00 0. -1.
        -14    1    6    6    0    0 -0.32447038605E+02  0.62106706994E+02 -0.66722527311E+02  0.96757165206E+02  0.00000000000E+00 0.  1.
</event>
<event>
12    1  0.8226261E-002  0.1801591E+03  0.7818608E-02  0.1168535E+00
         21   -1    0    0  501  502  0.00000000000E+00  0.00000000000E+00  0.20121752158E+03  0.20121752158E+03  0.00000000000E+00 0.  1.
         21   -1    0    0  502  503 -0.00000000000E+00 -0.00000000000E+00 -0.19548922719E+03  0.19548922719E+03  0.00000000000E+00 0.  1.
         -6    2    1    2    0  503 -0.24982121022E+02 -0.32860453089E+02 -0.83931704455E+02  0.19547000446E+03  0.17163937743E+03 0.  0.
        -24    2    3    3    0    0 -0.10491302949E+02 -0.88164337010E+02 -0.57205887715E+02  0.13218602019E+03  0.79483410763E+02 0.  0.
          6    2    1    2  501    0  0.24982121022E+02  0.32860453089E+02  0.89659998842E+02  0.20123674431E+03  0.17536646236E+03 0.  0.
         24    2    5    5    0    0  0.32270634820E+02  0.68274110127E+02  0.11592469131E+03  0.15630152863E+03  0.72724726274E+02 0.  0.
          5    1    5    5  501    0 -0.72885137980E+01 -0.35413657037E+02 -0.26264692465E+02  0.44935215682E+02  0.47000000000E+01 0. -1.
        -13    1    6    6    0    0  0.45936393429E+02  0.72831963592E+02  0.79757062690E+02  0.11737050827E+03  0.00000000000E+00 0.  1.
         14    1    6    6    0    0 -0.13665758609E+02 -0.45578534657E+01  0.36167628616E+02  0.38931020361E+02  0.00000000000E+00 0. -1.
         -5    1    3    3    0  503 -0.14490818072E+02  0.55303883920E+02 -0.26725816739E+02  0.63283984273E+02  0.47000000000E+01 0.  1.
         11    1    4    4    0    0  0.17071250635E+02 -0.69708202738E+02 -0.66390469062E+02  0.97766842587E+02  0.00000000000E+00 0. -1.
        -12    1    4    4    0    0 -0.27562553585E+02 -0.18456134272E+02  0.91845813465E+01  0.34419177603E+02  0.00000000000E+00 0.  1.
</event>
<event>
12    1  0.8226261E-002  0.2424195E+03  0.7818608E-02  0.1118214E+00
         21   -1    0    0  503  502  0.00000000000E+00  0.00000000000E+00  0.49070194989E+02  0.49070194989E+02  0.00000000000E+00 0.  1.
         21   -1    0    0  501  503 -0.00000000000E+00 -0.00000000000E+00 -0.13981801395E+04  0.13981801395E+04  0.00000000000E+00 0.  1.
          6    2    1    2  501    0 -0.50064582172E+02 -0.16344351720E+03 -0.39986934908E+03  0.46754379446E+03  0.17170165316E+03 0.  0.
         24    2    3    3    0    0  0.24228425774E+02 -0.14116343056E+03 -0.27997538267E+03  0.32467145119E+03  0.80692041557E+02 0.  0.
         -6    2    1    2    0  502  0.50064582172E+02  0.16344351720E+03 -0.94924059539E+03  0.97970653999E+03  0.17189226529E+03 0.  0.
        -24    2    5    5    0    0  0.43508535788E+01  0.30480315483E+02 -0.21115529438E+03  0.22833382319E+03  0.81251442498E+02 0.  0.
          5    1    3    3  501    0 -0.74293007945E+02 -0.22280086639E+02 -0.11989396641E+03  0.14287234327E+03  0.47000000000E+01 0. -1.
        -11    1    4    4    0    0  0.29749490073E+01 -0.64088925616E+02 -0.50443365356E+02  0.81613563925E+02  0.00000000000E+00 0.  1.
         12    1    4    4    0    0  0.21253476767E+02 -0.77074504944E+02 -0.22953201731E+03  0.24305788726E+03  0.00000000000E+00 0. -1.
         -5    1    5    5    0  502  0.45713728593E+02  0.13296320172E+03 -0.73808530101E+03  0.75137271680E+03  0.47000000000E+01 0.  1.
         11    1    6    6    0    0  0.39935344310E+02  0.13614605899E+02 -0.14809415585E+03  0.15398723394E+03  0.00000000000E+00 0. -1.
        -12    1    6    6    0    0 -0.35584490732E+02  0.16865709583E+02 -0.63061138531E+02  0.74346589251E+02  0.00000000000E+00 0.  1.
</event>
<event>
12    1  0.8226261E-002  0.1754038E+03  0.7818608E-02  0.1172406E+00
         21   -1    0    0  503  502  0.00000000000E+00  0.00000000000E+00  0.11340824443E+03  0.11340824443E+03  0.00000000000E+00 0.  1.
         21   -1    0    0  501  503 -0.00000000000E+00 -0.00000000000E+00 -0.34414992771E+03  0.34414992771E+03  0.00000000000E+00 0.  1.
          6    2    1    2  501    0 -0.30571922704E+02 -0.14481802418E+02 -0.22107243998E+03  0.28220474812E+03  0.17211081049E+03 0.  0.
         24    2    3    3    0    0  0.79999040251E+01 -0.70726250212E+02 -0.12925947635E+03  0.16773670012E+03  0.79758306189E+02 0.  0.
         -6    2    1    2    0  502  0.30571922704E+02  0.14481802418E+02 -0.96692433090E+01  0.17535342401E+03  0.17178755481E+03 0.  0.
        -24    2    5    5    0    0 -0.46323455654E+02 -0.11275229443E+02  0.87178861745E+01  0.92067768381E+02  0.78278215952E+02 0.  0.
          5    1    3    3  501    0 -0.38571826729E+02  0.56244447794E+02 -0.91812963624E+02  0.11446804801E+03  0.47000000000E+01 0. -1.
        -11    1    4    4    0    0 -0.17651012283E+02 -0.71224194709E+02 -0.11961338349E+03  0.14032749430E+03  0.00000000000E+00 0.  1.
         12    1    4    4    0    0  0.25650916308E+02  0.49794449632E+00 -0.96460928634E+01  0.27409205820E+02  0.00000000000E+00 0. -1.
         -5    1    5    5    0  502  0.76895378358E+02  0.25757031861E+02 -0.18387129483E+02  0.83285655630E+02  0.47000000000E+01 0.  1.
         11    1    6    6    0    0 -0.21563142632E+02 -0.38764001842E+02  0.25803483598E+02  0.51317021784E+02  0.00000000000E+00 0. -1.
        -12    1    6    6    0    0 -0.24760313021E+02  0.27488772399E+02 -0.17085597423E+02  0.40750746597E+02  0.00000000000E+00 0.  1.
</event>
<event>
12    1  0.8226261E-002  0.2658266E+03  0.7818608E-02  0.1103993E+00
         21   -1    0    0  501  502  0.00000000000E+00  0.00000000000E+00  0.59595203830E+03  0.59595203830E+03  0.00000000000E+00 0.  1.
         21   -1    0    0  502  503 -0.00000000000E+00 -0.00000000000E+00 -0.12081692898E+03  0.12081692898E+03  0.00000000000E+00 0. -1.
         -6    2    1    2    0  503 -0.48563610694E+02 -0.19673175707E+03  0.29460706727E+03  0.39543711889E+03  0.16886498272E+03 0.  0.
        -24    2    3    3    0    0 -0.19000501706E+02 -0.19078775998E+03  0.17286001602E+03  0.26992320332E+03  0.78847714800E+02 0.  0.
          6    2    1    2  501    0  0.48563610694E+02  0.19673175707E+03  0.18052804206E+03  0.32133184839E+03  0.17205224292E+03 0.  0.
         24    2    5    5    0    0  0.41903872291E+01  0.28172634686E+02  0.94835668932E+02  0.12704743442E+03  0.79598930898E+02 0.  0.
          5    1    5    5  501    0  0.44373223465E+02  0.16855912238E+03  0.85692373130E+02  0.19428441397E+03  0.47000000000E+01 0. -1.
        -11    1    6    6    0    0  0.13576349456E+02  0.69152309866E+01  0.10168623288E+03  0.10282133846E+03  0.00000000000E+00 0.  1.
         12    1    6    6    0    0 -0.93859622272E+01  0.21257403699E+02 -0.68505639526E+01  0.24226095959E+02  0.00000000000E+00 0. -1.
         -5    1    3    3    0  503 -0.29563108988E+02 -0.59439970882E+01  0.12174705125E+03  0.12551391557E+03  0.47000000000E+01 0.  1.
         13    1    4    4    0    0  0.15743496423E+02 -0.95045326841E+02  0.12380732179E+03  0.15687486976E+03  0.00000000000E+00 0. -1.
        -14    1    4    4    0    0 -0.34743998130E+02 -0.95742433140E+02  0.49052694232E+02  0.11304833356E+03  0.00000000000E+00 0.  1.
</event>
<event>
12    1  0.8226261E-002  0.1797038E+03  0.7818608E-02  0.1168504E+00
         21   -1    0    0  503  502  0.00000000000E+00  0.00000000000E+00  0.19988078572E+03  0.19988078572E+03  0.00000000000E+00 0.  1.
         21   -1    0    0  501  503 -0.00000000000E+00 -0.00000000000E+00 -0.16554385000E+03  0.16554385000E+03  0.00000000000E+00 0.  1.
          6    2    1    2  501    0 -0.41009227589E+02  0.23225245356E+02 -0.16062535684E+02  0.18042021292E+03  0.17341360791E+03 0.  0.
         24    2    3    3    0    0 -0.55382440178E+02  0.73492006536E+01  0.48855444813E+02  0.11189961582E+03  0.83746307992E+02 0.  0.
         -6    2    1    2    0  502  0.41009227589E+02 -0.23225245356E+02  0.50399471397E+02  0.18500442280E+03  0.17165477264E+03 0.  0.
        -24    2    5    5    0    0  0.39186377984E+01 -0.40295424492E+02  0.90756297072E+02  0.12740350054E+03  0.79723707480E+02 0.  0.
          5    1    3    3  501    0  0.14373212588E+02  0.15876044702E+02 -0.64917980497E+02  0.68520597103E+02  0.47000000000E+01 0. -1.
        -13    1    4    4    0    0 -0.72265947468E+02  0.21413083996E+02  0.49047159261E+02  0.89925030783E+02  0.00000000000E+00 0.  1.
         14    1    4    4    0    0  0.16883507291E+02 -0.14063883343E+02 -0.19171444726E+00  0.21974585037E+02  0.00000000000E+00 0. -1.
         -5    1    5    5    0  502  0.37090589791E+02  0.17070179137E+02 -0.40356825675E+02  0.57600922261E+02  0.47000000000E+01 0.  1.
         11    1    6    6    0    0 -0.32117147436E+01  0.23530310782E+02  0.15004587639E+02  0.28091427292E+02  0.00000000000E+00 0. -1.
        -12    1    6    6    0    0  0.71303525419E+01 -0.63825735274E+02  0.75751709433E+02  0.99312073247E+02  0.00000000000E+00 0.  1.
</event>
<event>
12    1  0.8226261E-002  0.2472392E+03  0.7818608E-02  0.1115741E+00
         21   -1    0    0  503  502  0.00000000000E+00  0.00000000000E+00  0.57047409288E+03  0.57047409288E+03  0.00000000000E+00 0.  1.
         21   -1    0    0  501  503 -0.00000000000E+00 -0.00000000000E+00 -0.10638852165E+03  0.10638852165E+03  0.00000000000E+00 0.  1.
          6    2    1    2  501    0  0.16235072548E+03 -0.70824295843E+02  0.19648136903E+03  0.31252862906E+03  0.16641927972E+03 0.  0.
         24    2    3    3    0    0  0.13243227648E+03 -0.66273413374E+01  0.18264683276E+03  0.24021094829E+03  0.82214382282E+02 0.  0.
         -6    2    1    2    0  502 -0.16235072548E+03  0.70824295843E+02  0.26760420220E+03  0.36433398547E+03  0.17249175340E+03 0.  0.
        -24    2    5    5    0    0 -0.27753776564E+02  0.66131792781E+02  0.12576941729E+03  0.16868748166E+03  0.86566933727E+02 0.  0.
          5    1    3    3  501    0  0.29918448992E+02 -0.64196954505E+02  0.13834536264E+02  0.72317680767E+02  0.47000000000E+01 0. -1.
        -11    1    4    4    0    0  0.10279524072E+03 -0.27546062297E+02  0.85504096160E+02  0.13651592406E+03  0.00000000000E+00 0.  1.
         12    1    4    4    0    0  0.29637035764E+02  0.20918720959E+02  0.97142736603E+02  0.10369502423E+03  0.00000000000E+00 0. -1.
         -5    1    5    5    0  502 -0.13459694891E+03  0.46925030622E+01  0.14183478491E+03  0.19564650381E+03  0.47000000000E+01 0.  1.
         11    1    6    6    0    0  0.15172251533E+02  0.53033398360E+01  0.79329296552E+02  0.80941089203E+02  0.00000000000E+00 0. -1.
        -12    1    6    6    0    0 -0.42926028097E+02  0.60828452945E+02  0.46440120738E+02  0.87746392461E+02  0.00000000000E+00 0.  1.
</event>
<event>
12    1  0.8226261E-002  0.1925564E+03  0.7818608E-02  0.1156180E+00
         21   -1    0    0  503  502  0.00000000000E+00  0.00000000000E+00  0.10745183470E+03  0.10745183470E+03  0.00000000000E+00 0. -1.
         21   -1    0    0  501  503 -0.00000000000E+00 -0.00000000000E+00 -0.66469675980E+03  0.66469675980E+03  0.00000000000E+00 0. -1.
          6    2    1    2  501    0 -0.34474736573E+02  0.79324651649E+02 -0.54635074269E+03  0.57928421967E+03  0.17201792143E+03 0.  0.
         24    2    3    3    0    0 -0.37131562377E+02 -0.22128632277E+02 -0.22808728489E+03  0.24519808389E+03  0.78929471844E+02 0.  0.
         -6    2    1    2    0  502  0.34474736573E+02 -0.79324651649E+02 -0.10894182407E+02  0.19286437484E+03  0.17203800758E+03 0.  0.
        -24    2    5    5    0    0  0.72988521832E+02 -0.12642772156E+02  0.18195338117E+02  0.11041393572E+03  0.79831089586E+02 0.  0.
          5    1    3    3  501    0  0.26568258043E+01  0.10145328393E+03 -0.31826345781E+03  0.33408613577E+03  0.47000000000E+01 0. -1.
        -11    1    4    4    0    0  0.51998017373E+01  0.24833589030E+02 -0.86313427631E+02  0.89965287037E+02  0.00000000000E+00 0.  1.
         12    1    4    4    0    0 -0.42331364115E+02 -0.46962221307E+02 -0.14177385726E+03  0.15523279685E+03  0.00000000000E+00 0. -1.
         -5    1    5    5    0  502 -0.38513785259E+02 -0.66681879493E+02 -0.29089520524E+02  0.82450439125E+02  0.47000000000E+01 0.  1.
         13    1    6    6    0    0  0.88454767244E+02 -0.17883062307E+02  0.67981330261E+01  0.90500079438E+02  0.00000000000E+00 0. -1.
        -14    1    6    6    0    0 -0.15466245412E+02  0.52402901511E+01  0.11397205091E+02  0.19913856279E+02  0.00000000000E+00 0.  1.
</event>
<event>
12    1  0.8226261E-002  0.2840501E+03  0.7818608E-02  0.1093588E+00
         21   -1    0    0  501  502  0.00000000000E+00  0.00000000000E+00  0.29743527457E+03  0.29743527457E+03  0.00000000000E+00 0.  1.
         21   -1    0    0  502  503 -0.00000000000E+00 -0.00000000000E+00 -0.28037980217E+03  0.28037980217E+03  0.00000000000E+00 0. -1.
         -6    2    1    2    0  503  0.22640857041E+03  0.38078014153E+01 -0.45357573934E+02  0.28764865673E+03  0.17149081637E+03 0.  0.
        -24    2    3    3    0    0  0.16434493401E+03  0.17799193739E+02 -0.95145202120E+02  0.20672553307E+03  0.79729341555E+02 0.  0.
          6    2    1    2  501    0 -0.22640857041E+03 -0.38078014153E+01  0.62413046336E+02  0.29016642001E+03  0.17036966526E+03 0.  0.
         24    2    5    5    0    0 -0.65139616101E+02  0.42754148940E+02  0.49171273258E+02  0.12172317913E+03  0.79546410262E+02 0.  0.
          5    1    5    5  501    0 -0.16126895431E+03 -0.46561950356E+02  0.13241773078E+02  0.16844324088E+03  0.47000000000E+01 0. -1.
        -11    1    6    6    0    0 -0.65485089340E+01 -0.21429658519E+02  0.11599110706E+01  0.22437883750E+02  0.00000000000E+00 0.  1.
         12    1    6    6    0    0 -0.58591107167E+02  0.64183807459E+02  0.48011362188E+02  0.99285295377E+02  0.00000000000E+00 0. -1.
         -5    1    3    3    0  503  0.62063636399E+02 -0.13991392324E+02  0.49787628186E+02  0.80923123658E+02  0.47000000000E+01 0.  1.
         13    1    4    4    0    0  0.12110588486E+03 -0.21622617817E+02 -0.49881275777E+02  0.13274906637E+03  0.00000000000E+00 0. -1.
        -14    1    4    4    0    0  0.43239049152E+02  0.39421811556E+02 -0.45263926343E+02  0.73976466703E+02  0.00000000000E+00 0.  1.
</event>
<event>
12    1  0.8226261E-002  0.2122010E+03  0.7818608E-02  0.1140200E+00
         21   -1    0    0  501  502  0.00000000000E+00  0.00000000000E+00  0.66481086485E+03  0.66481086485E+03  0.00000000000E+00 0.  1.
         21   -1    0    0  502  503 -0.00000000000E+00 -0.00000000000E+00 -0.68087201881E+02  0.68087201881E+02  0.00000000000E+00 0.  1.
         -6    2    1    2    0  503 -0.52812309303E+01 -0.12105891911E+03  0.34290018815E+03  0.40324905628E+03  0.17420134631E+03 0.  0.
        -24    2    3    3    0    0 -0.11814053810E+02 -0.13722981733E+03  0.18309871357E+03  0.24242997468E+03  0.79218426418E+02 0.  0.
          6    2    1    2  501    0  0.52812309303E+01  0.12105891911E+03  0.25382347481E+03  0.32964901045E+03  0.17192719514E+03 0.  0.
         24    2    5    5    0    0  0.32566513604E+02  0.10234429771E+03  0.26283565133E+03  0.29503639670E+03  0.80180812453E+02 0.  0.
          5    1    5    5  501    0 -0.27285282674E+02  0.18714621401E+02 -0.90121765212E+01  0.34612613747E+02  0.47000000000E+01 0. -1.
        -13    1    6    6    0    0  0.32649181427E+02  0.52038210180E+02  0.59329014853E+02  0.85404194101E+02  0.00000000000E+00 0.  1.
         14    1    6    6    0    0 -0.82667823144E-01  0.50306087533E+02  0.20350663648E+03  0.20963220260E+03  0.00000000000E+00 0. -1.
         -5    1    3    3    0  503  0.65328228799E+01  0.16170898215E+02  0.15980147459E+03  0.16081908159E+03  0.47000000000E+01 0.  1.
         13    1    4    4    0    0  0.23722918005E+02 -0.61770447271E+02  0.12285210805E+03  0.13953854466E+03  0.00000000000E+00 0. -1.
        -14    1    4    4    0    0 -0.35536971815E+02 -0.75459370058E+02  0.60246605518E+02  0.10289143002E+03  0.00000000000E+00 0.  1.
</event>
<event>
12    1  0.8226261E-002  0.2428839E+03  0.7818608E-02  0.1118125E+00
         21   -1    0    0  503  502  0.00000000000E+00  0.00000000000E+00  0.17448863672E+03  0.17448863672E+03  0.00000000000E+00 0.  1.
         21   -1    0    0  501  503 -0.00000000000E+00 -0.00000000000E+00 -0.34433140958E+03  0.34433140958E+03  0.00000000000E+00 0. -1.
          6    2    1    2  501    0  0.14059063270E+03  0.97559047082E+02 -0.12484603193E+03  0.27180328093E+03  0.17031440975E+03 0.  0.
         24    2    3    3    0    0  0.83272845946E+01  0.62165228574E+01 -0.12335073042E+02  0.75543616577E+02  0.73801728661E+02 0.  0.
         -6    2    1    2    0  502 -0.14059063270E+03 -0.97559047082E+02 -0.44996740926E+02  0.24701676536E+03  0.17236322696E+03 0.  0.
        -24    2    5    5    0    0 -0.72333490268E+02 -0.95736442562E+02  0.27526944748E+02  0.14729648476E+03  0.80875963596E+02 0.  0.
          5    1    3    3  501    0  0.13226334810E+03  0.91342524224E+02 -0.11251095889E+03  0.19625966436E+03  0.47000000000E+01 0. -1.
        -13    1    4    4    0    0  0.11928346413E+02 -0.40889013257E+01  0.29619588479E+02  0.32191995649E+02  0.00000000000E+00 0.  1.
         14    1    4    4    0    0 -0.36010618187E+01  0.10305424183E+02 -0.41954661520E+02  0.43351620928E+02  0.00000000000E+00 0. -1.
         -5    1    5    5    0  502 -0.68257142428E+02 -0.18226045199E+01 -0.72523685673E+02  0.99720280602E+02  0.47000000000E+01 0.  1.
         13    1    6    6    0    0 -0.50307144356E+02 -0.73004755464E+02 -0.19337818185E+02  0.90743894041E+02  0.00000000000E+00 0. -1.
        -14    1    6    6    0    0 -0.22026345912E+02 -0.22731687097E+02  0.46864762933E+02  0.56552590721E+02  0.00000000000E+00 0.  1.
</event>
<event>
12    1  0.8226261E-002  0.1812352E+03  0.7818608E-02  0.1166815E+00
         21   -1    0    0  503  502  0.00000000000E+00  0.00000000000E+00  0.13619441729E+03  0.13619441729E+03  0.00000000000E+00 0. -1.
         21   -1    0    0  501  503 -0.00000000000E+00 -0.00000000000E+00 -0.27518581380E+03  0.27518581380E+03  0.00000000000E+00 0. -1.
          6    2    1    2  501    0 -0.55092755480E+02  0.19741291108E+02 -0.14284829976E+03  0.23010404014E+03  0.17063792738E+03 0.  0.
         24    2    3    3    0    0 -0.17675428188E+02 -0.42246680031E+02 -0.12401621544E+03  0.15514203411E+03  0.81190062939E+02 0.  0.
         -6    2    1    2    0  502  0.55092755480E+02 -0.19741291108E+02  0.38569032523E+01  0.18127619096E+03  0.17152624121E+03 0.  0.
        -24    2    5    5    0    0  0.51913819700E+02  0.30845585413E+02  0.48904974113E+02  0.11330151628E+03  0.82456305300E+02 0.  0.
          5    1    3    3  501    0 -0.37417327292E+02  0.61987971139E+02 -0.18832084324E+02  0.74962006027E+02  0.47000000000E+01 0. -1.
        -13    1    4    4    0    0  0.13030906660E+02  0.62355668476E+01  0.38821894183E+01  0.14958549962E+02  0.00000000000E+00 0.  1.
         14    1    4    4    0    0 -0.30706334848E+02 -0.48482246878E+02 -0.12789840486E+03  0.14018348415E+03  0.00000000000E+00 0. -1.
         -5    1    5    5    0  502  0.31789357799E+01 -0.50586876521E+02 -0.45048070861E+02  0.67974674674E+02  0.47000000000E+01 0.  1.
         11    1    6    6    0    0  0.36094062466E+02 -0.40595948621E+01  0.62791897570E+02  0.72540223712E+02  0.00000000000E+00 0. -1.
        -12    1    6    6    0    0  0.15819757234E+02  0.34905180275E+02 -0.13886923457E+02  0.40761292571E+02  0.00000000000E+00 0.  1.
</event>
<event>
12    1  0.8226261E-002  0.2551558E+03  0.7818608E-02  0.1110350E+00
         21   -1    0    0  503  502  0.00000000000E+00  0.00000000000E+00  0.78471637384E+03  0.78471637384E+03  0.00000000000E+00 0. -1.
         21   -1    0    0  501  503 -0.00000000000E+00 -0.00000000000E+00 -0.11054396022E+03  0.11054396022E+03  0.00000000000E+00 0.  1.
          6    2    1    2  501    0 -0.26399714955E+02  0.18730109622E+03  0.11212688235E+03  0.27870577846E+03  0.17124785431E+03 0.  0.
         24    2    3    3    0    0  0.23427358199E+02  0.17990831262E+03  0.11234142753E+03  0.22811401531E+03  0.80619883276E+02 0.  0.
         -6    2    1    2    0  502  0.26399714955E+02 -0.18730109622E+03  0.56204553126E+03  0.61655455560E+03  0.16871779760E+03 0.  0.
        -24    2    5    5    0    0 -0.68691977482E+01 -0.51839259833E+02  0.35358822198E+03  0.36568951327E+03  0.77263799137E+02 0.  0.
          5    1    3    3  501    0 -0.49827073154E+02  0.73927835979E+01 -0.21454518252E+00  0.50591763145E+02  0.47000000000E+01 0. -1.
        -11    1    4    4    0    0  0.19009226925E+02  0.69903768301E+02  0.23348293971E+01  0.72479921077E+02  0.00000000000E+00 0.  1.
         12    1    4    4    0    0  0.44181312743E+01  0.11000454432E+03  0.11000659814E+03  0.15563409423E+03  0.00000000000E+00 0. -1.
         -5    1    5    5    0  502  0.33268912703E+02 -0.13546183638E+03  0.20845730929E+03  0.25086504233E+03  0.47000000000E+01 0.  1.
         13    1    6    6    0    0  0.14218445095E+02  0.13575328697E+02  0.13847287818E+03  0.13986133033E+03  0.00000000000E+00 0. -1.
        -14    1    6    6    0    0 -0.21087642844E+02 -0.65414588530E+02  0.21511534380E+03  0.22582818294E+03  0.00000000000E+00 0.  1.
</event>
<event>
12    1  0.8226261E-002  0.1897908E+03  0.7818608E-02  0.1159096E+00
         21   -1    0    0  501  502  0.00000000000E+00  0.00000000000E+00  0.47187228645E+03  0.47187228645E+03  0.00000000000E+00 0. -1.
         21   -1    0    0  502  503 -0.00000000000E+00 -0.00000000000E+00 -0.92815945336E+02  0.92815945336E+02  0.00000000000E+00 0. -1.
         -6    2    1    2    0  503  0.35083195489E+02 -0.65538621627E+02  0.66940807944E+02  0.19939839188E+03  0.17248914571E+03 0.  0.
        -24    2    3    3    0    0 -0.67217684780E+01 -0.37315426896E+02 -0.25971698930E+02  0.93572933384E+02  0.81509149553E+02 0.  0.
          6    2    1    2  501    0 -0.35083195489E+02  0.65538621627E+02  0.31211553317E+03  0.36528983990E+03  0.17462651448E+03 0.  0.
         24    2    5    5    0    0  0.14778598924E+01  0.14377147554E+02  0.46575044779E+02  0.92364853553E+02  0.78441984511E+02 0.  0.
          5    1    5    5  501    0 -0.36561055381E+02  0.51161474073E+02  0.26554048839E+03  0.27292498635E+03  0.47000000000E+01 0. -1.
        -13    1    6    6    0    0  0.27023085685E+02 -0.18286048945E+02  0.37882986540E+02  0.49997474087E+02  0.00000000000E+00 0.  1.
         14    1    6    6    0    0 -0.25545225793E+02  0.32663196499E+02  0.86920582398E+01  0.42367379465E+02  0.00000000000E+00 0. -1.
         -5    1    3    3    0  503  0.41804963967E+02 -0.28223194731E+02  0.92912506874E+02  0.10582545850E+03  0.47000000000E+01 0.  1.
         13    1    4    4    0    0  0.35520299325E+02 -0.14330938507E+02 -0.24484911701E+02  0.45459634442E+02  0.00000000000E+00 0. -1.
        -14    1    4    4    0    0 -0.42242067803E+02 -0.22984488389E+02 -0.14867872291E+01  0.48113298942E+02  0.00000000000E+00 0.  1.
</event>
<event>
12    1  0.8226261E-002  0.2559512E+03  0.7818608E-02  0.1110167E+00
         21   -1    0    0  503  502  0.00000000000E+00  0.00000000000E+00  0.24407960553E+03  0.24407960553E+03  0.00000000000E+00 0.  1.
         21   -1    0    0  501  503 -0.00000000000E+00 -0.00000000000E+00 -0.46307441129E+03  0.46307441129E+03  0.00000000000E+00 0. -1.
          6    2    1    2  501    0 -0.92223361755E+02 -0.16000795249E+03  0.12244727142E+03  0.28042961813E+03  0.17187129817E+03 0.  0.
         24    2    3    3    0    0  0.75751611858E+01 -0.52897281133E+02  0.88673450252E+02  0.13011261279E+03  0.78808665823E+02 0.  0.
         -6    2    1    2    0  502  0.92223361755E+02  0.16000795249E+03 -0.34144207718E+03  0.42672439869E+03  0.17720983904E+03 0.  0.
        -24    2    5    5    0    0  0.29391442737E+02  0.10722091143E+03 -0.30945239251E+03  0.33852149808E+03  0.80472608239E+02 0.  0.
          5    1    3    3  501    0 -0.99798522940E+02 -0.10711067136E+03  0.33773821165E+02  0.15031700534E+03  0.47000000000E+01 0. -1.
        -13    1    4    4    0    0 -0.16558266493E+02 -0.65797380756E+02  0.62686126461E+02  0.92374357666E+02  0.00000000000E+00 0.  1.
         14    1    4    4    0    0  0.24133427678E+02  0.12900099624E+02  0.25987323791E+02  0.37738255122E+02  0.00000000000E+00 0. -1.
         -5    1    5    5    0  502  0.62831919017E+02  0.52787041053E+02 -0.31989684672E+02  0.88202900610E+02  0.47000000000E+01 0.  1.
         11    1    6    6    0    0  0.15073841376E+02 -0.10946366278E+01 -0.11062307566E+03  0.11165072230E+03  0.00000000000E+00 0. -1.
        -12    1    6    6    0    0  0.14317601362E+02  0.10831554806E+03 -0.19882931685E+03  0.22687077578E+03  0.00000000000E+00 0.  1.
</event>
<event>
12    1  0.8226261E-002  0.1956299E+03  0.7818608E-02  0.1153762E+00
         21   -1    0    0  501  502  0.00000000000E+00  0.00000000000E+00  0.81551552522E+03  0.81551552522E+03  0.00000000000E+00 0.  1.
         21   -1    0    0  502  503 -0.00000000000E+00 -0.00000000000E+00 -0.49733695199E+02  0.49733695199E+02  0.00000000000E+00 0.  1.
         -6    2    1    2    0  503 -0.28590861279E+02 -0.84870337477E+02  0.27579927099E+03  0.33813652773E+03  0.17392717435E+03 0.  0.
        -24    2    3    3    0    0  0.61058714638E+00 -0.81223539639E+02  0.76436204862E+02  0.13655838938E+03  0.78791269116E+02 0.  0.
          6    2    1    2  501    0  0.28590861279E+02  0.84870337477E+02  0.48998255903E+03  0.52711269269E+03  0.17246585489E+03 0.  0.
         24    2    5    5    0    0  0.39231806297E+02  0.42338356989E+02  0.46687807958E+03  0.47733211369E+03  0.80864914907E+02 0.  0.
          5    1    5    5  501    0 -0.10640945018E+02  0.42531980488E+02  0.23104479449E+02  0.49780579001E+02  0.47000000000E+01 0. -1.
        -13    1    6    6    0    0 -0.23888181419E+01  0.53800473876E+02  0.30902166671E+03  0.31367911620E+03  0.00000000000E+00 0.  1.
         14    1    6    6    0    0  0.41620624439E+02 -0.11462116887E+02  0.15785641287E+03  0.16365299748E+03  0.00000000000E+00 0. -1.
         -5    1    3    3    0  503 -0.29201448426E+02 -0.36467978376E+01  0.19936306613E+03  0.20157813835E+03  0.47000000000E+01 0.  1.
         11    1    4    4    0    0  0.11928865215E+02  0.97970583324E+01 -0.23879952648E+01  0.15619945540E+02  0.00000000000E+00 0. -1.
        -12    1    4    4    0    0 -0.11318278068E+02 -0.91020597972E+02  0.78824200126E+02  0.12093844384E+03  0.00000000000E+00 0.  1.
</event>
<event>
12    1  0.8226261E-002  0.2922470E+03  0.7818608E-02  0.1089438E+00
         21   -1    0    0  503  502  0.00000000000E+00  0.00000000000E+00  0.93534421649E+03  0.93534421649E+03  0.00000000000E+00 0. -1.
         21   -1    0    0  501  503 -0.00000000000E+00 -0.00000000000E+00 -0.91493787456E+02  0.91493787456E+02  0.00000000000E+00 0. -1.
          6    2    1    2  501    0 -0.13199172579E+03 -0.19124132637E+03  0.37257605112E+03  0.47230410983E+03  0.17396320793E+03 0.  0.
         24    2    3    3    0    0 -0.12045863984E+03 -0.64991239950E+02  0.16533577686E+03  0.22931703680E+03  0.80723225111E+02 0.  0.
         -6    2    1    2    0  502  0.13199172579E+03  0.19124132637E+03  0.47127437792E+03  0.55453389411E+03  0.17723780592E+03 0.  0.
        -24    2    5    5    0    0  0.14190342462E+03  0.14207420230E+03  0.26441536637E+03  0.34162924756E+03  0.80457416940E+02 0.  0.
          5    1    3    3  501    0 -0.11533085956E+02 -0.12625008642E+03  0.20724027425E+03  0.24298707304E+03  0.47000000000E+01 0. -1.
        -13    1    4    4    0    0 -0.74222366554E-01  0.13247148188E+02  0.26338566838E+02  0.29482410810E+02  0.00000000000E+00 0.  1.
         14    1    4    4    0    0 -0.12038441747E+03 -0.78238388138E+02  0.13899721003E+03  0.19983462599E+03  0.00000000000E+00 0. -1.
         -5    1    5    5    0  502 -0.99116988273E+01  0.49167124069E+02  0.20685901155E+03  0.21290464655E+03  0.47000000000E+01 0.  1.
         11    1    6    6    0    0  0.10382568893E+03  0.97612038511E+02  0.12179203196E+03  0.18745981647E+03  0.00000000000E+00 0. -1.
        -12    1    6    6    0    0  0.38077735693E+02  0.44462163787E+02  0.14262333441E+03  0.15416943109E+03  0.00000000000E+00 0.  1.
</event>
<event>
12    1  0.8226261E-002  0.1921216E+03  0.7818608E-02  0.1156897E+00
         21   -1    0    0  503  502  0.00000000000E+00  0.00000000000E+00  0.40375006624E+03  0.40375006624E+03  0.00000000000E+00 0. -1.
         21   -1    0    0  501  503 -0.00000000000E+00 -0.00000000000E+00 -0.22199229444E+03  0.22199229444E+03  0.00000000000E+00 0. -1.
          6    2    1    2  501    0  0.82832855374E+01 -0.85763872684E+02 -0.14987171185E+03  0.24248159099E+03  0.17003451790E+03 0.  0.
         24    2    3    3    0    0 -0.91094012641E+00 -0.12068316522E+03 -0.81080417256E+02  0.16464700364E+03  0.77261540014E+02 0.  0.
         -6    2    1    2    0  502 -0.82832855374E+01  0.85763872684E+02  0.33162948365E+03  0.38326076969E+03  0.17171676820E+03 0.  0.
        -24    2    5    5    0    0 -0.35754349398E+02  0.11898281118E+03  0.27512202343E+03  0.31203338531E+03  0.78977356999E+02 0.  0.
          5    1    3    3  501    0  0.91942256638E+01  0.34919292533E+02 -0.68791294591E+02  0.77834587351E+02  0.47000000000E+01 0. -1.
        -11    1    4    4    0    0  0.36699093482E+02 -0.77508101095E+02 -0.53650524995E+02  0.10115684866E+03  0.00000000000E+00 0.  1.
         12    1    4    4    0    0 -0.37610033609E+02 -0.43175064123E+02 -0.27429892260E+02  0.63490154981E+02  0.00000000000E+00 0. -1.
         -5    1    5    5    0  502  0.27471063860E+02 -0.33218938496E+02  0.56507460226E+02  0.71227384380E+02  0.47000000000E+01 0.  1.
         13    1    6    6    0    0 -0.45745828014E-01  0.31363024122E+02  0.15987379554E+03  0.16292106025E+03  0.00000000000E+00 0. -1.
        -14    1    6    6    0    0 -0.35708603569E+02  0.87619787058E+02  0.11524822789E+03  0.14911232506E+03  0.00000000000E+00 0.  1.
</event>
<event>
12    1  0.8226261E-002  0.1799897E+03  0.7818608E-02  0.1168113E+00
         21   -1    0    0  501  502  0.00000000000E+00  0.00000000000E+00  0.20349604242E+03  0.20349604242E+03  0.00000000000E+00 0. -1.
         21   -1    0    0  502  503 -0.00000000000E+00 -0.00000000000E+00 -0.15856265708E+03  0.15856265708E+03  0.00000000000E+00 0. -1.
         -6    2    1    2    0  503  0.48197120322E+02  0.13952760758E+02  0.32079101694E+02  0.18161053500E+03  0.17156828296E+03 0.  0.
        -24    2    3    3    0    0  0.19027069709E+02 -0.55685879146E+02  0.32857518249E+02  0.10595917710E+03  0.81760529521E+02 0.  0.
          6    2    1    2  501    0 -0.48197120322E+02 -0.13952760758E+02  0.12854283640E+02  0.18044816450E+03  0.17285446342E+03 0.  0.
         24    2    5    5    0    0 -0.39685982706E+02 -0.49879746521E+01 -0.59300577831E+02  0.10709135918E+03  0.79700336038E+02 0.  0.
          5    1    5    5  501    0 -0.85111376155E+01 -0.89647861060E+01  0.72154861471E+02  0.73356805324E+02  0.47000000000E+01 0. -1.
        -13    1    6    6    0    0 -0.33295806398E+02 -0.35590309145E+02 -0.11664969363E+02  0.50113394806E+02  0.00000000000E+00 0.  1.
         14    1    6    6    0    0 -0.63901763081E+01  0.30602334493E+02 -0.47635608468E+02  0.56977964370E+02  0.00000000000E+00 0. -1.
         -5    1    3    3    0  503  0.29170050612E+02  0.69638639904E+02 -0.77841655472E+00  0.75651357904E+02  0.47000000000E+01 0.  1.
         11    1    4    4    0    0  0.21905708071E+02 -0.19848204837E+02 -0.24413396248E+02  0.38338299359E+02  0.00000000000E+00 0. -1.
        -12    1    4    4    0    0 -0.28786383620E+01 -0.35837674309E+02  0.57270914497E+02  0.67620877738E+02  0.00000000000E+00 0.  1.
</event>
<event>
12    1  0.8226261E-002  0.2204941E+03  0.7818608E-02  0.1133589E+00
         21   -1    0    0  501  502  0.00000000000E+00  0.00000000000E+00  0.15379138620E+03  0.15379138620E+03  0.00000000000E+00 0.  1.
         21   -1    0    0  502  503 -0.00000000000E+00 -0.00000000000E+00 -0.44239311618E+03  0.44239311618E+03  0.00000000000E+00 0.  1.
         -6    2    1    2    0  503 -0.59212125812E+02  0.12315780938E+03  0.15401953105E+02  0.22063703094E+03  0.17253856789E+03 0.  0.
        -24    2    3    3    0    0  0.90083046431E+01  0.12451924088E+02  0.44944794111E+02  0.87202816346E+02  0.73130682309E+02 0.  0.
          6    2    1    2  501    0  0.59212125812E+02 -0.12315780938E+03 -0.30400368309E+03  0.37554747144E+03  0.17304260202E+03 0.  0.
         24    2    5    5    0    0 -0.33046375329E+02 -0.64991720893E+02 -0.11869045599E+03  0.16047072462E+03  0.79670837887E+02 0.  0.
          5    1    5    5  501    0  0.92258501140E+02 -0.58166088488E+02 -0.18531322710E+03  0.21507674682E+03  0.47000000000E+01 0. -1.
        -13    1    6    6    0    0  0.15682176543E+02 -0.42224883762E+02 -0.22701483020E+02  0.50440348939E+02  0.00000000000E+00 0.  1.
         14    1    6    6    0    0 -0.48728551871E+02 -0.22766837131E+02 -0.95988972969E+02  0.11003037568E+03  0.00000000000E+00 0. -1.
         -5    1    3    3    0  503 -0.68220430455E+02  0.11070588529E+03 -0.29542841005E+02  0.13343421459E+03  0.47000000000E+01 0.  1.
         11    1    4    4    0    0  0.17437354147E+02 -0.15626565204E+02 -0.95781310335E+01  0.25298052372E+02  0.00000000000E+00 0. -1.
        -12    1    4    4    0    0 -0.84290495036E+01  0.28078489292E+02  0.54522925144E+02  0.61904763974E+02  0.00000000000E+00 0.  1.
</event>
<event>
12    1  0.8226261E-002  0.2108646E+03  0.7818608E-02  0.1142443E+00
         21   -1    0    0  503  502  0.00000000000E+00  0.00000000000E+00  0.13083196107E+03  0.13083196107E+03  0.00000000000E+00 0.  1.
         21   -1    0    0  501  503 -0.00000000000E+00 -0.00000000000E+00 -0.35662195193E+03  0.35662195193E+03  0.00000000000E+00 0.  1.
          6    2    1    2  501    0  0.71499228775E+02 -0.91413431872E+02 -0.18064186974E+03  0.27181010323E+03  0.16667540872E+03 0.  0.
         24    2    3    3    0    0 -0.29725562886E+01 -0.89063699606E+02 -0.15088676713E+03  0.19144204898E+03  0.77084777638E+02 0.  0.
         -6    2    1    2    0  502 -0.71499228775E+02  0.91413431872E+02 -0.45148121115E+02  0.21564380978E+03  0.17605494771E+03 0.  0.
        -24    2    5    5    0    0  0.20581630186E+02  0.49989779541E+02  0.14525800392E+02  0.98264635868E+02  0.80761118279E+02 0.  0.
          5    1    3    3  501    0  0.74471785063E+02 -0.23497322658E+01 -0.29755102608E+02  0.80368054247E+02  0.47000000000E+01 0. -1.
        -11    1    4    4    0    0  0.32546663112E+02 -0.59786704930E+02 -0.11256890768E+03  0.13155034908E+03  0.00000000000E+00 0.  1.
         12    1    4    4    0    0 -0.35519219401E+02 -0.29276994676E+02 -0.38317859448E+02  0.59891699899E+02  0.00000000000E+00 0. -1.
         -5    1    5    5    0  502 -0.92080858961E+02  0.41423652331E+02 -0.59673921507E+02  0.11737917391E+03  0.47000000000E+01 0.  1.
         11    1    6    6    0    0  0.14746879923E+02 -0.14150095072E+02  0.25764962555E+02  0.32886607509E+02  0.00000000000E+00 0. -1.
        -12    1    6    6    0    0  0.58347502631E+01  0.64139874613E+02 -0.11239162163E+02  0.65378028359E+02  0.00000000000E+00 0.  1.
</event>
<event>
12    1  0.8226261E-002  0.1776272E+03  0.7818608E-02  0.1170674E+00
         21   -1    0    0  503  502  0.00000000000E+00  0.00000000000E+00  0.35678258153E+03  0.35678258153E+03  0.00000000000E+00 0. -1.
         21   -1    0    0  501  503 -0.00000000000E+00 -0.00000000000E+00 -0.14365990047E+03  0.14365990047E+03  0.00000000000E+00 0. -1.
          6    2    1    2  501    0 -0.30136371946E+02  0.31285007897E+02 -0.50540909937E+02  0.18252752523E+03  0.16992634068E+03 0.  0.
         24    2    3    3    0    0 -0.12226424582E+02 -0.50108855831E+02 -0.26986223379E+02  0.95794368214E+02  0.76078392718E+02 0.  0.
         -6    2    1    2    0  502  0.30136371946E+02 -0.31285007897E+02  0.26366359099E+03  0.31791495677E+03  0.17223378847E+03 0.  0.
        -24    2    5    5    0    0 -0.24778505302E+02 -0.33650731571E+02  0.24290312140E+03  0.25897153059E+03  0.79485729620E+02 0.  0.
          5    1    3    3  501    0 -0.17909947364E+02  0.81393863728E+02 -0.23554686557E+02  0.86733157016E+02  0.47000000000E+01 0. -1.
        -13    1    4    4    0    0  0.86434324366E+01 -0.37001708131E+02  0.19849879736E+02  0.42870188412E+02  0.00000000000E+00 0.  1.
         14    1    4    4    0    0 -0.20869857018E+02 -0.13107147700E+02 -0.46836103115E+02  0.52924179803E+02  0.00000000000E+00 0. -1.
         -5    1    5    5    0  502  0.54914877248E+02  0.23657236739E+01  0.20760469595E+02  0.58943426177E+02  0.47000000000E+01 0.  1.
         11    1    6    6    0    0  0.16806117002E+01 -0.46330921855E+02  0.72465692243E+02  0.86027061602E+02  0.00000000000E+00 0. -1.
        -12    1    6    6    0    0 -0.26459117002E+02  0.12680190284E+02  0.17043742915E+03  0.17294446899E+03  0.00000000000E+00 0.  1.
</event>
<event>
12    1  0.8226261E-002  0.1921732E+03  0.7818608E-02  0.1157228E+00
         21   -1    0    0  501  502  0.00000000000E+00  0.00000000000E+00  0.85419447311E+03  0.85419447311E+03  0.00000000000E+00 0. -1.
         21   -1    0    0  502  503 -0.00000000000E+00 -0.00000000000E+00 -0.43200530787E+02  0.43200530787E+02  0.00000000000E+00 0. -1.
         -6    2    1    2    0  503  0.16415557487E+02 -0.84167554155E+02  0.46501629853E+03  0.50316069402E+03  0.17197929647E+03 0.  0.
        -24    2    3    3    0    0 -0.25431111611E+02 -0.83092649949E+02  0.18322237559E+03  0.21823578437E+03  0.80655370255E+02 0.  0.
          6    2    1    2  501    0 -0.16415557487E+02  0.84167554155E+02  0.34597764380E+03  0.39423430988E+03  0.16842361288E+03 0.  0.
         24    2    5    5    0    0 -0.50136273172E+02  0.10740903953E+03  0.24015255811E+03  0.28066366196E+03  0.83955299500E+02 0.  0.
          5    1    5    5  501    0  0.33720715685E+02 -0.23241485375E+02  0.10582508569E+03  0.11357064792E+03  0.47000000000E+01 0. -1.
        -13    1    6    6    0    0  0.14354647434E+01 -0.13587157685E+02  0.20264401834E+02  0.24440077632E+02  0.00000000000E+00 0.  1.
         14    1    6    6    0    0 -0.51571737916E+02  0.12099619722E+03  0.21988815628E+03  0.25622358432E+03  0.00000000000E+00 0. -1.
         -5    1    3    3    0  503  0.41846669097E+02 -0.10749042058E+01  0.28179392294E+03  0.28492490965E+03  0.47000000000E+01 0.  1.
         11    1    4    4    0    0 -0.14494981790E+01 -0.61954313468E+02  0.17438463611E+03  0.18506874213E+03  0.00000000000E+00 0. -1.
        -12    1    4    4    0    0 -0.23981613431E+02 -0.21138336481E+02  0.88377394769E+01  0.33167042241E+02  0.00000000000E+00 0.  1.
</event>
<event>
12    1  0.8226261E-002  0.1976413E+03  0.7818608E-02  0.1154103E+00
         21   -1    0    0  501  502  0.00000000000E+00  0.00000000000E+00  0.46859266430E+02  0.46859266430E+02  0.00000000000E+00 0. -1.
         21   -1    0    0  502  503 -0.00000000000E+00 -0.00000000000E+00 -0.79090027460E+03  0.79090027460E+03  0.00000000000E+00 0. -1.
         -6    2    1    2    0  503  0.24954046123E+02 -0.72041406157E+02 -0.38149364811E+03  0.42483984814E+03  0.17070097950E+03 0.  0.
        -24    2    3    3    0    0  0.78921008232E+02 -0.30095424725E+02 -0.26204819121E+03  0.28714015486E+03  0.81522720049E+02 0.  0.
          6    2    1    2  501    0 -0.24954046123E+02  0.72041406157E+02 -0.36254736006E+03  0.41291969288E+03  0.18234422357E+03 0.  0.
         24    2    5    5    0    0  0.58268192988E+02  0.30501868730E+02 -0.15774705558E+03  0.18793807371E+03  0.78173139218E+02 0.  0.
          5    1    5    5  501    0 -0.83222239112E+02  0.41539537427E+02 -0.20480030448E+03  0.22498161918E+03  0.47000000000E+01 0. -1.
        -13    1    6    6    0    0  0.45405711647E+02 -0.18942806900E+02 -0.95336942654E+02  0.10728299594E+03  0.00000000000E+00 0.  1.
         14    1    6    6    0    0  0.12862481341E+02  0.49444675629E+02 -0.62410112924E+02  0.80655077767E+02  0.00000000000E+00 0. -1.
         -5    1    3    3    0  503 -0.53966962109E+02 -0.41945981432E+02 -0.11944545690E+03  0.13769969329E+03  0.47000000000E+01 0.  1.
         13    1    4    4    0    0  0.15543340225E+01 -0.37903214405E+02 -0.11007947111E+03  0.11643263965E+03  0.00000000000E+00 0. -1.
        -14    1    4    4    0    0  0.77366674210E+02  0.78077896807E+01 -0.15196872010E+03  0.17070751520E+03  0.00000000000E+00 0.  1.
</event>
<event>
12    1  0.8226261E-002  0.2047593E+03  0.7818608E-02  0.1146183E+00
         21   -1    0    0  503  502  0.00000000000E+00  0.00000000000E+00  0.43235908803E+03  0.43235908803E+03  0.00000000000E+00 0. -1.
         21   -1    0    0  501  503 -0.00000000000E+00 -0.00000000000E+00 -0.10968056507E+03  0.10968056507E+03  0.00000000000E+00 0. -1.
          6    2    1    2  501    0 -0.58524411891E+02  0.93014227845E+02  0.25618717174E+03  0.32675502704E+03  0.17047060556E+03 0.  0.
         24    2    3    3    0    0 -0.36025218471E+02  0.11325746412E+03  0.14124708990E+03  0.20780413493E+03  0.95429285561E+02 0.  0.
         -6    2    1    2    0  502  0.58524411891E+02 -0.93014227845E+02  0.66491351215E+02  0.21528462607E+03  0.17277041722E+03 0.  0.
        -24    2    5    5    0    0  0.64234695333E+02 -0.10190781679E+03  0.10270553726E+03  0.17726804373E+03  0.79776141402E+02 0.  0.
          5    1    3    3  501    0 -0.22499193419E+02 -0.20243236279E+02  0.11494008185E+03  0.11895089211E+03  0.47000000000E+01 0. -1.
        -13    1    4    4    0    0 -0.67816695321E+02  0.67844685044E+02  0.77473641965E+02  0.12330519313E+03  0.00000000000E+00 0.  1.
         14    1    4    4    0    0  0.31791476850E+02  0.45412779081E+02  0.63773447931E+02  0.84498941799E+02  0.00000000000E+00 0. -1.
         -5    1    5    5    0  502 -0.57102834428E+01  0.88935889437E+01 -0.36214186046E+02  0.38016582333E+02  0.47000000000E+01 0.  1.
         11    1    6    6    0    0  0.82061914370E+01  0.11906883268E+02  0.68636865949E+00  0.14477104303E+02  0.00000000000E+00 0. -1.
        -12    1    6    6    0    0  0.56028503896E+02 -0.11381470006E+03  0.10201916860E+03  0.16279093943E+03  0.00000000000E+00 0.  1.
</event>
<event>
12    1  0.8226261E-002  0.1733151E+03  0.7818608E-02  0.1174688E+00
         21   -1    0    0  501  502  0.00000000000E+00  0.00000000000E+00  0.60563913147E+03  0.60563913147E+03  0.00000000000E+00 0. -1.
         21   -1    0    0  502  503 -0.00000000000E+00 -0.00000000000E+00 -0.55550059112E+02  0.55550059112E+02  0.00000000000E+00 0. -1.
         -6    2    1    2    0  503  0.13054450482E+02  0.23654795115E+00  0.16356548529E+03  0.23758724838E+03  0.17182420661E+03 0.  0.
        -24    2    3    3    0    0 -0.53244872872E+02 -0.28534999711E+02  0.88527002596E+02  0.13329790991E+03  0.79259320600E+02 0.  0.
          6    2    1    2  501    0 -0.13054450482E+02 -0.23654795115E+00  0.38652358707E+03  0.42360194221E+03  0.17282258953E+03 0.  0.
         24    2    5    5    0    0  0.18294970958E+02 -0.22813498194E+02  0.37503621727E+03  0.38302418264E+03  0.72112402259E+02 0.  0.
          5    1    5    5  501    0 -0.31349421440E+02  0.22576950243E+02  0.11487369796E+02  0.40577759570E+02  0.47000000000E+01 0. -1.
        -13    1    6    6    0    0 -0.14188679635E+02  0.17356288754E+02  0.66091173103E+02  0.69789702329E+02  0.00000000000E+00 0.  1.
         14    1    6    6    0    0  0.32483650593E+02 -0.40169786948E+02  0.30894504417E+03  0.31323448031E+03  0.00000000000E+00 0. -1.
         -5    1    3    3    0  503  0.66299323354E+02  0.28771547662E+02  0.75038482698E+02  0.10428933847E+03  0.47000000000E+01 0.  1.
         11    1    4    4    0    0 -0.38212578762E+01  0.20930025845E+02  0.10414607789E+01  0.21301470236E+02  0.00000000000E+00 0. -1.
        -12    1    4    4    0    0 -0.49423614996E+02 -0.49465025556E+02  0.87485541817E+02  0.11199643967E+03  0.00000000000E+00 0.  1.
</event>
<event>
12    1  0.8226261E-002  0.2049270E+03  0.7818608E-02  0.1145976E+00
         21   -1    0    0  503  502  0.00000000000E+00  0.00000000000E+00  0.21277699722E+03  0.21277699722E+03  0.00000000000E+00 0. -1.
         21   -1    0    0  501  503 -0.00000000000E+00 -0.00000000000E+00 -0.30598653068E+03  0.30598653068E+03  0.00000000000E+00 0. -1.
          6    2    1    2  501    0 -0.71829666025E+02  0.84267440271E+02 -0.20235310710E+03  0.28799625843E+03  0.17243712625E+03 0.  0.
         24    2    3    3    0    0  0.11784969067E+02  0.85484141781E+02 -0.76145457618E+02  0.13652563966E+03  0.73448591387E+02 0.  0.
         -6    2    1    2    0  502  0.71829666025E+02 -0.84267440271E+02  0.10914357363E+03  0.23076726947E+03  0.17053067343E+03 0.  0.
        -24    2    5    5    0    0  0.28004510670E+02 -0.33228175674E+01  0.10823531620E+03  0.13859573851E+03  0.81844983510E+02 0.  0.
          5    1    3    3  501    0 -0.83614635092E+02 -0.12167015095E+01 -0.12620764948E+03  0.15147061878E+03  0.47000000000E+01 0. -1.
        -13    1    4    4    0    0 -0.37698823237E+01  0.86942017103E+02 -0.82259650586E+02  0.11974880569E+03  0.00000000000E+00 0.  1.
         14    1    4    4    0    0  0.15554851391E+02 -0.14578753221E+01  0.61141929682E+01  0.16776833965E+02  0.00000000000E+00 0. -1.
         -5    1    5    5    0  502  0.43825155355E+02 -0.80944622704E+02  0.90825743075E+00  0.92171530953E+02  0.47000000000E+01 0.  1.
         13    1    6    6    0    0  0.55516535781E+02 -0.71945137575E+01  0.54635959213E+02  0.78223620553E+02  0.00000000000E+00 0. -1.
        -14    1    6    6    0    0 -0.27512025111E+02  0.38716961902E+01  0.53599356991E+02  0.60372117960E+02  0.00000000000E+00 0.  1.
</event>
<event>
12    1  0.8226261E-002  0.2457573E+03  0.7818608E-02  0.1116117E+00
         21   -1    0    0  501  502  0.00000000000E+00  0.00000000000E+00  0.46034421472E+03  0.46034421472E+03  0.00000000000E+00 0. -1.
         21   -1    0    0  502  503 -0.00000000000E+00 -0.00000000000E+00 -0.13356943154E+03  0.13356943154E+03  0.00000000000E+00 0.  1.
         -6    2    1    2    0  503  0.17118201449E+03 -0.39875961376E+02  0.12133389783E+03  0.27407761979E+03  0.17176510858E+03 0.  0.
        -24    2    3    3    0    0  0.68988296594E+02 -0.53345134780E+02  0.45341641551E+01  0.11822755596E+03  0.79700112114E+02 0.  0.
          6    2    1    2  501    0 -0.17118201449E+03  0.39875961376E+02  0.20544088534E+03  0.31983602648E+03  0.17086764492E+03 0.  0.
         24    2    5    5    0    0 -0.11438032369E+03  0.23816067087E+02  0.21638814155E+03  0.25961738567E+03  0.83230376900E+02 0.  0.
          5    1    5    5  501    0 -0.56801690801E+02  0.16059894289E+02 -0.10947256207E+02  0.60218640809E+02  0.47000000000E+01 0. -1.
        -13    1    6    6    0    0 -0.28866142382E+02  0.97798200552E+01  0.46480436635E+01  0.30830234612E+02  0.00000000000E+00 0.  1.
         14    1    6    6    0    0 -0.85514181304E+02  0.14036247032E+02  0.21174009789E+03  0.22878715105E+03  0.00000000000E+00 0. -1.
         -5    1    3    3    0  503  0.10219371789E+03  0.13469173404E+02  0.11679973368E+03  0.15585006383E+03  0.47000000000E+01 0.  1.
         11    1    4    4    0    0  0.13547627540E+02 -0.31259949076E+02  0.36995119228E+02  0.50292757678E+02  0.00000000000E+00 0. -1.
        -12    1    4    4    0    0  0.55440669054E+02 -0.22085185705E+02 -0.32460955073E+02  0.67934798277E+02  0.00000000000E+00 0.  1.
</event>
<event>
12    1  0.8226261E-002  0.3600424E+03  0.7818608E-02  0.1058663E+00
         21   -1    0    0  501  502  0.00000000000E+00  0.00000000000E+00  0.86596013248E+03  0.86596013248E+03  0.00000000000E+00 0.  1.
         21   -1    0    0  502  503 -0.00000000000E+00 -0.00000000000E+00 -0.15001714727E+03  0.15001714727E+03  0.00000000000E+00 0.  1.
         -6    2    1    2    0  503  0.30646307289E+03  0.77683972439E+02  0.32315611306E+03  0.48379791077E+03  0.17226761284E+03 0.  0.
        -24    2    3    3    0    0  0.15562068704E+03  0.43317859793E+02  0.25716683885E+03  0.31553879696E+03  0.85648783826E+02 0.  0.
          6    2    1    2  501    0 -0.30646307289E+03 -0.77683972439E+02  0.39278687215E+03  0.53217936898E+03  0.17023201585E+03 0.  0.
         24    2    5    5    0    0 -0.30795226497E+03 -0.82734527789E+02  0.40262344520E+03  0.52007259519E+03  0.81794046567E+02 0.  0.
          5    1    5    5  501    0  0.14891920771E+01  0.50505553504E+01 -0.98365730511E+01  0.12106773797E+02  0.47000000000E+01 0. -1.
        -11    1    6    6    0    0 -0.22328781380E+03 -0.21074580562E+02  0.28233700967E+03  0.36057699978E+03  0.00000000000E+00 0.  1.
         12    1    6    6    0    0 -0.84664451166E+02 -0.61659947227E+02  0.12028643553E+03  0.15949559541E+03  0.00000000000E+00 0. -1.
         -5    1    3    3    0  503  0.15084238585E+03  0.34366112646E+02  0.65989274204E+02  0.16825911380E+03  0.47000000000E+01 0.  1.
         11    1    4    4    0    0  0.19551398315E+02  0.39478761241E+02  0.87944727248E+02  0.98362110672E+02  0.00000000000E+00 0. -1.
        -12    1    4    4    0    0  0.13606928873E+03  0.38390985522E+01  0.16922211161E+03  0.21717668629E+03  0.00000000000E+00 0.  1.
</event>
<event>
12    1  0.8226261E-002  0.4670794E+03  0.7818608E-02  0.1022749E+00
         21   -1    0    0  501  502  0.00000000000E+00  0.00000000000E+00  0.18367665298E+04  0.18367665298E+04  0.00000000000E+00 0.  1.
         21   -1    0    0  502  503 -0.00000000000E+00 -0.00000000000E+00 -0.11915493240E+03  0.11915493240E+03  0.00000000000E+00 0.  1.
         -6    2    1    2    0  503  0.42431559568E+03 -0.91364164318E+02  0.80329473616E+03  0.92921775849E+03  0.17254586137E+03 0.  0.
        -24    2    3    3    0    0  0.32787611682E+03 -0.13091894382E+03  0.60960864901E+03  0.70921424937E+03  0.81973341623E+02 0.  0.
          6    2    1    2  501    0 -0.42431559568E+03  0.91364164318E+02  0.91431686120E+03  0.10267037037E+04  0.17249358598E+03 0.  0.
         24    2    5    5    0    0 -0.38993358340E+03  0.76281162575E+02  0.69825631637E+03  0.80735496595E+03  0.79957128905E+02 0.  0.
          5    1    5    5  501    0 -0.34382012282E+02  0.15083001743E+02  0.21606054483E+03  0.21934873773E+03  0.47000000000E+01 0. -1.
        -13    1    6    6    0    0 -0.22183758952E+03  0.55067716112E+01  0.35492995718E+03  0.41858991288E+03  0.00000000000E+00 0.  1.
         14    1    6    6    0    0 -0.16809599388E+03  0.70774390964E+02  0.34332635920E+03  0.38876505308E+03  0.00000000000E+00 0. -1.
         -5    1    3    3    0  503  0.96439478868E+02  0.39554779499E+02  0.19368608716E+03  0.22000350912E+03  0.47000000000E+01 0.  1.
         11    1    4    4    0    0  0.57155821061E+02  0.85334157592E+01  0.10414697466E+03  0.11910583275E+03  0.00000000000E+00 0. -1.
        -12    1    4    4    0    0  0.27072029576E+03 -0.13945235958E+03  0.50546167435E+03  0.59010841662E+03  0.00000000000E+00 0.  1.
</event>
<event>
12    1  0.8226261E-002  0.1825138E+03  0.7818608E-02  0.1165707E+00
         21   -1    0    0  503  502  0.00000000000E+00  0.00000000000E+00  0.86378540636E+02  0.86378540636E+02  0.00000000000E+00 0. -1.
         21   -1    0    0  501  503 -0.00000000000E+00 -0.00000000000E+00 -0.45077374968E+03  0.45077374968E+03  0.00000000000E+00 0. -1.
          6    2    1    2  501    0 -0.55734458563E+02 -0.26950883673E+02 -0.28700496488E+03  0.34012225673E+03  0.17169338850E+03 0.  0.
         24    2    3    3    0    0 -0.90010408424E+02  0.19683577886E+02 -0.16312816979E+03  0.20331156963E+03  0.78965041016E+02 0.  0.
         -6    2    1    2    0  502  0.55734458563E+02  0.26950883673E+02 -0.77390244169E+02  0.19703003359E+03  0.17029064637E+03 0.  0.
        -24    2    5    5    0    0  0.51783191799E+02  0.50808777925E+02  0.82188877513E+01  0.10794678547E+03  0.79510549682E+02 0.  0.
          5    1    3    3  501    0  0.34275949861E+02 -0.46634461559E+02 -0.12387679508E+03  0.13681068710E+03  0.47000000000E+01 0. -1.
        -13    1    4    4    0    0 -0.52850360670E+02  0.49726248605E+02 -0.85371642718E+02  0.11204542741E+03  0.00000000000E+00 0.  1.
         14    1    4    4    0    0 -0.37160047754E+02 -0.30042670719E+02 -0.77756527075E+02  0.91266142220E+02  0.00000000000E+00 0. -1.
         -5    1    5    5    0  502  0.39512667640E+01 -0.23857894253E+02 -0.85609131920E+02  0.89083248119E+02  0.47000000000E+01 0.  1.
         11    1    6    6    0    0  0.20988820812E+02  0.63997203803E+02 -0.12579515386E+02  0.68515814970E+02  0.00000000000E+00 0. -1.
        -12    1    6    6    0    0  0.30794370988E+02 -0.13188425878E+02  0.20798403138E+02  0.39430970502E+02  0.00000000000E+00 0.  1.
</event>
<event>
12    1  0.8226261E-002  0.1903570E+03  0.7818608E-02  0.1158174E+00
         21   -1    0    0  503  502  0.00000000000E+00  0.00000000000E+00  0.25614245188E+03  0.25614245188E+03  0.00000000000E+00 0. -1.
         21   -1    0    0  501  503 -0.00000000000E+00 -0.00000000000E+00 -0.14372629833E+03  0.14372629833E+03  0.00000000000E+00 0. -1.
          6    2    1    2  501    0  0.73404921077E+02  0.37499518612E+02  0.30502029912E+02  0.19263527077E+03  0.17141609429E+03 0.  0.
         24    2    3    3    0    0  0.20994016625E+02  0.60495167590E+02 -0.30637480413E+02  0.10875540132E+03  0.82393373965E+02 0.  0.
         -6    2    1    2    0  502 -0.73404921077E+02 -0.37499518612E+02  0.81914123633E+02  0.20723347943E+03  0.17158465844E+03 0.  0.
        -24    2    5    5    0    0  0.11193783407E+02  0.25367032616E+02  0.42352246625E+02  0.94555282005E+02  0.79863642730E+02 0.  0.
          5    1    3    3  501    0  0.52410904452E+02 -0.22995648979E+02  0.61139510325E+02  0.83879869458E+02  0.47000000000E+01 0. -1.
        -13    1    4    4    0    0  0.37363641737E+02  0.83741054987E+01 -0.37620965522E+02  0.53679646176E+02  0.00000000000E+00 0.  1.
         14    1    4    4    0    0 -0.16369625112E+02  0.52121062092E+02  0.69834851093E+01  0.55075755139E+02  0.00000000000E+00 0. -1.
         -5    1    5    5    0  502 -0.84598704484E+02 -0.62866551228E+02  0.39561877008E+02  0.11267819743E+03  0.47000000000E+01 0.  1.
         11    1    6    6    0    0  0.28702787680E+02 -0.18455376657E+02  0.52495799104E+01  0.34525483883E+02  0.00000000000E+00 0. -1.
        -12    1    6    6    0    0 -0.17509004273E+02  0.43822409273E+02  0.37102666714E+02  0.60029798121E+02  0.00000000000E+00 0.  1.
</event>
<event>
12    1  0.8226261E-002  0.1883384E+03  0.7818608E-02  0.1160583E+00
         21   -1    0    0  501  502  0.00000000000E+00  0.00000000000E+00  0.32877600371E+03  0.32877600371E+03  0.00000000000E+00 0. -1.
         21   -1    0    0  502  503 -0.00000000000E+00 -0.00000000000E+00 -0.10998215830E+03  0.10998215830E+03  0.00000000000E+00 0. -1.
         -6    2    1    2    0  503 -0.65068787522E+02  0.33693047312E+02  0.14843648629E+03  0.23770713236E+03  0.17059343998E+03 0.  0.
        -24    2    3    3    0    0 -0.73566628674E+02  0.73526640387E+02  0.68316365453E+02  0.14770573123E+03  0.79571612710E+02 0.  0.
          6    2    1    2  501    0  0.65068787522E+02 -0.33693047312E+02  0.70357359125E+02  0.20105102965E+03  0.17349982707E+03 0.  0.
         24    2    5    5    0    0  0.12231615821E+02  0.46392618938E+02  0.19418892774E+02  0.92320638288E+02  0.76446839959E+02 0.  0.
          5    1    5    5  501    0  0.52837171701E+02 -0.80085666250E+02  0.50938466351E+02  0.10873039136E+03  0.47000000000E+01 0. -1.
        -13    1    6    6    0    0 -0.28330735413E+02  0.19394629042E+02  0.26115349834E+02  0.43136918082E+02  0.00000000000E+00 0.  1.
         14    1    6    6    0    0  0.40562351234E+02  0.26997989897E+02 -0.66964570596E+01  0.49183720205E+02  0.00000000000E+00 0. -1.
         -5    1    3    3    0  503  0.84978411523E+01 -0.39833593076E+02  0.80120120839E+02  0.90001401127E+02  0.47000000000E+01 0.  1.
         13    1    4    4    0    0 -0.68685178856E+02  0.26492155842E+02  0.12701007623E+02  0.74704777024E+02  0.00000000000E+00 0. -1.
        -14    1    4    4    0    0 -0.48814498182E+01  0.47034484545E+02  0.55615357830E+02  0.73000954208E+02  0.00000000000E+00 0.  1.
</event>
<event>
12    1  0.8226261E-002  0.1792428E+03  0.7818608E-02  0.1168613E+00
         21   -1    0    0  503  502  0.00000000000E+00  0.00000000000E+00  0.73998594211E+02  0.73998594211E+02  0.00000000000E+00 0. -1.
         21   -1    0    0  501  503 -0.00000000000E+00 -0.00000000000E+00 -0.73317858967E+03  0.73317858967E+03  0.00000000000E+00 0. -1.
          6    2    1    2  501    0 -0.51899907384E+02  0.32982652912E+01 -0.58781718924E+03  0.61453805896E+03  0.17153279280E+03 0.  0.
         24    2    3    3    0    0  0.18275633922E+02  0.45420283027E+02 -0.31939432319E+03  0.33387492281E+03  0.84040046937E+02 0.  0.
         -6    2    1    2    0  502  0.51899907384E+02 -0.32982652912E+01 -0.71362806216E+02  0.19263912492E+03  0.17120953068E+03 0.  0.
        -24    2    5    5    0    0  0.81318045039E+02 -0.17622815178E+01 -0.99767699817E+02  0.15144793594E+03  0.79794443963E+02 0.  0.
          5    1    3    3  501    0 -0.70175541306E+02 -0.42122017736E+02 -0.26842286605E+03  0.28066313615E+03  0.47000000000E+01 0. -1.
        -11    1    4    4    0    0  0.32832280329E+02 -0.16729574500E+01 -0.48882398712E+02  0.58908796644E+02  0.00000000000E+00 0.  1.
         12    1    4    4    0    0 -0.14556646407E+02  0.47093240477E+02 -0.27051192448E+03  0.27496612617E+03  0.00000000000E+00 0. -1.
         -5    1    5    5    0  502 -0.29418137654E+02 -0.15359837734E+01  0.28404893601E+02  0.41191188981E+02  0.47000000000E+01 0.  1.
         11    1    6    6    0    0  0.76989047808E+02  0.17450219441E+02 -0.39956809304E+02  0.88478077797E+02  0.00000000000E+00 0. -1.
        -12    1    6    6    0    0  0.43289972311E+01 -0.19212500959E+02 -0.59810890513E+02  0.62969858139E+02  0.00000000000E+00 0.  1.
</event>
<event>
12    1  0.8226261E-002  0.1810138E+03  0.7818608E-02  0.1166915E+00
         21   -1    0    0  503  502  0.00000000000E+00  0.00000000000E+00  0.76036982239E+02  0.76036982239E+02  0.00000000000E+00 0.  1.
         21   -1    0    0  501  503 -0.00000000000E+00 -0.00000000000E+00 -0.43920778565E+03  0.43920778565E+03  0.00000000000E+00 0.  1.
          6    2    1    2  501    0  0.37107844345E+02  0.43001063819E+02 -0.14417511894E+03  0.23112310830E+03  0.17147986083E+03 0.  0.
         24    2    3    3    0    0  0.26125961778E+02  0.10779116563E+02  0.57547382750E+00  0.82349186744E+02  0.77345343458E+02 0.  0.
         -6    2    1    2    0  502 -0.37107844345E+02 -0.43001063819E+02 -0.21899568448E+03  0.28412165959E+03  0.17187182441E+03 0.  0.
        -24    2    5    5    0    0  0.31622407739E+02  0.23820544418E+02 -0.39360873461E+02  0.80455928040E+02  0.57935161946E+02 0.  0.
          5    1    3    3  501    0  0.10981882567E+02  0.32221947256E+02 -0.14475059277E+03  0.14877392156E+03  0.47000000000E+01 0. -1.
        -13    1    4    4    0    0  0.50802618503E+02  0.18826691093E+02  0.92899698724E+01  0.54969572352E+02  0.00000000000E+00 0.  1.
         14    1    4    4    0    0 -0.24676656725E+02 -0.80475745302E+01 -0.87144960449E+01  0.27379614392E+02  0.00000000000E+00 0. -1.
         -5    1    5    5    0  502 -0.68730252083E+02 -0.66821608237E+02 -0.17963481102E+03  0.20366573155E+03  0.47000000000E+01 0.  1.
         11    1    6    6    0    0 -0.76698054858E+01 -0.10368605267E+02  0.30914154431E+01  0.13262380661E+02  0.00000000000E+00 0. -1.
        -12    1    6    6    0    0  0.39292213224E+02  0.34189149684E+02 -0.42452288904E+02  0.67193547379E+02  0.00000000000E+00 0.  1.
</event>
<event>
12    1  0.8226261E-002  0.3109746E+03  0.7818608E-02  0.1079988E+00
         21   -1    0    0  503  502  0.00000000000E+00  0.00000000000E+00  0.49160717846E+02  0.49160717846E+02  0.00000000000E+00 0.  1.
         21   -1    0    0  501  503 -0.00000000000E+00 -0.00000000000E+00 -0.22139356855E+04  0.22139356855E+04  0.00000000000E+00 0. -1.
          6    2    1    2  501    0 -0.24011834352E+03 -0.97152333922E+02 -0.70162607900E+03  0.76745315291E+03  0.17207496127E+03 0.  0.
         24    2    3    3    0    0 -0.83007493534E+02 -0.95879974686E+02 -0.27554268079E+03  0.31330054606E+03  0.78423527674E+02 0.  0.
         -6    2    1    2    0  502  0.24011834352E+03  0.97152333922E+02 -0.14631488886E+04  0.14956432504E+04  0.17043669594E+03 0.  0.
        -24    2    5    5    0    0  0.26060386735E+03  0.82409047759E+02 -0.13675251451E+04  0.13966330918E+04  0.75850800383E+02 0.  0.
          5    1    3    3  501    0 -0.15711084999E+03 -0.12723592361E+01 -0.42608339821E+03  0.45415260686E+03  0.47000000000E+01 0. -1.
        -11    1    4    4    0    0 -0.82372481829E+02 -0.42401311077E+02 -0.20330766944E+03  0.22342136289E+03  0.00000000000E+00 0.  1.
         12    1    4    4    0    0 -0.63501170565E+00 -0.53478663609E+02 -0.72235011353E+02  0.89879183165E+02  0.00000000000E+00 0. -1.
         -5    1    5    5    0  502 -0.20485523829E+02  0.14743286163E+02 -0.95623743544E+02  0.99010158584E+02  0.47000000000E+01 0.  1.
         13    1    6    6    0    0  0.10342216796E+03  0.27256235873E+02 -0.72592107186E+03  0.73375775962E+03  0.00000000000E+00 0. -1.
        -14    1    6    6    0    0  0.15718169939E+03  0.55152811886E+02 -0.64160407324E+03  0.66287533223E+03  0.00000000000E+00 0.  1.
</event>
<event>
12    1  0.8226261E-002  0.3922694E+03  0.7818608E-02  0.1046512E+00
         21   -1    0    0  501  502  0.00000000000E+00  0.00000000000E+00  0.32910993454E+03  0.32910993454E+03  0.00000000000E+00 0.  1.
         21   -1    0    0  502  503 -0.00000000000E+00 -0.00000000000E+00 -0.71055135913E+03  0.71055135913E+03  0.00000000000E+00 0. -1.
         -6    2    1    2    0  503 -0.11762667218E+03 -0.33278890260E+03 -0.49494230710E+03  0.63154033205E+03  0.17114559868E+03 0.  0.
        -24    2    3    3    0    0  0.56812771844E+00 -0.18463335570E+03 -0.25783126358E+03  0.32795539540E+03  0.83594151041E+02 0.  0.
          6    2    1    2  501    0  0.11762667218E+03  0.33278890260E+03  0.11350088251E+03  0.40812096163E+03  0.17057485538E+03 0.  0.
         24    2    5    5    0    0  0.10753962824E+03  0.31396582017E+03  0.53437821200E+02  0.34420133850E+03  0.74024677051E+02 0.  0.
          5    1    5    5  501    0  0.10087043940E+02  0.18823082435E+02  0.60063061307E+02  0.63919623133E+02  0.47000000000E+01 0. -1.
        -13    1    6    6    0    0  0.27645223442E+02  0.12703143593E+03  0.54347618148E+02  0.14090744371E+03  0.00000000000E+00 0.  1.
         14    1    6    6    0    0  0.79894404798E+02  0.18693438424E+03 -0.90979694767E+00  0.20329389479E+03  0.00000000000E+00 0. -1.
         -5    1    3    3    0  503 -0.11819479990E+03 -0.14815554691E+03 -0.23711104352E+03  0.30358493665E+03  0.47000000000E+01 0.  1.
         11    1    4    4    0    0 -0.32026710599E+02 -0.13110301180E+03 -0.20771763644E+03  0.24771016608E+03  0.00000000000E+00 0. -1.
        -12    1    4    4    0    0  0.32594838317E+02 -0.53530343896E+02 -0.50113627145E+02  0.80245229317E+02  0.00000000000E+00 0.  1.
</event>
<event>
12    1  0.8226261E-002  0.1875952E+03  0.7818608E-02  0.1161648E+00
         21   -1    0    0  501  502  0.00000000000E+00  0.00000000000E+00  0.70196386459E+03  0.70196386459E+03  0.00000000000E+00 0.  1.
         21   -1    0    0  502  503 -0.00000000000E+00 -0.00000000000E+00 -0.76820812552E+02  0.76820812552E+02  0.00000000000E+00 0.  1.
         -6    2    1    2    0  503 -0.33647696769E+01 -0.64749076193E+02  0.80519386480E+02  0.20414533467E+03  0.17603460321E+03 0.  0.
        -24    2    3    3    0    0 -0.13262559003E+02 -0.10379757582E+02 -0.24372742911E+02  0.85492741579E+02  0.80195657158E+02 0.  0.
          6    2    1    2  501    0  0.33647696769E+01  0.64749076193E+02  0.54462366556E+03  0.57463934247E+03  0.17143999616E+03 0.  0.
         24    2    5    5    0    0  0.53917587375E+01  0.25680426624E+01  0.47259539179E+03  0.47934636352E+03  0.79942891927E+02 0.  0.
          5    1    5    5  501    0 -0.20269890606E+01  0.62181033530E+02  0.72028273770E+02  0.95292978954E+02  0.47000000000E+01 0. -1.
        -13    1    6    6    0    0 -0.27674385121E+02  0.15868126816E+02  0.98049390655E+02  0.10310844800E+03  0.00000000000E+00 0.  1.
         14    1    6    6    0    0  0.33066143859E+02 -0.13300084154E+02  0.37454600113E+03  0.37623791552E+03  0.00000000000E+00 0. -1.
         -5    1    3    3    0  503  0.98977893265E+01 -0.54369318611E+02  0.10489212939E+03  0.11865259309E+03  0.47000000000E+01 0.  1.
         11    1    4    4    0    0 -0.12804971027E+02  0.34098775503E+02 -0.42466713220E+01  0.36670533009E+02  0.00000000000E+00 0. -1.
        -12    1    4    4    0    0 -0.45758797626E+00 -0.44478533085E+02 -0.20126071589E+02  0.48822208571E+02  0.00000000000E+00 0.  1.
</event>
<event>
12    1  0.8226261E-002  0.1831200E+03  0.7818608E-02  0.1164834E+00
         21   -1    0    0  503  502  0.00000000000E+00  0.00000000000E+00  0.93272647799E+03  0.93272647799E+03  0.00000000000E+00 0. -1.
         21   -1    0    0  501  503 -0.00000000000E+00 -0.00000000000E+00 -0.39261015379E+02  0.39261015379E+02  0.00000000000E+00 0. -1.
          6    2    1    2  501    0  0.61535481589E+02  0.62364688504E+01  0.30525708996E+03  0.35593389249E+03  0.17228330105E+03 0.  0.
         24    2    3    3    0    0  0.93473046685E+02 -0.29371874207E+02  0.17343778384E+03  0.21562572586E+03  0.82546177002E+02 0.  0.
         -6    2    1    2    0  502 -0.61535481589E+02 -0.62364688504E+01  0.58820837265E+03  0.61605360087E+03  0.17235846498E+03 0.  0.
        -24    2    5    5    0    0 -0.58787443417E+02  0.10661469158E+02  0.58955463221E+03  0.59824926327E+03  0.82206363575E+02 0.  0.
          5    1    3    3  501    0 -0.31937565096E+02  0.35608343057E+02  0.13181930612E+03  0.14030816664E+03  0.47000000000E+01 0. -1.
        -13    1    4    4    0    0  0.49260770483E+02 -0.30201547566E+02  0.15889598661E+03  0.16907599340E+03  0.00000000000E+00 0.  1.
         14    1    4    4    0    0  0.44212276201E+02  0.82967335938E+00  0.14541797224E+02  0.46549732451E+02  0.00000000000E+00 0. -1.
         -5    1    5    5    0  502 -0.27480381717E+01 -0.16897938008E+02 -0.13462595580E+01  0.17804337604E+02  0.47000000000E+01 0.  1.
         13    1    6    6    0    0 -0.51543137252E+02 -0.13365276851E+02  0.17466024050E+03  0.18259661890E+03  0.00000000000E+00 0. -1.
        -14    1    6    6    0    0 -0.72443061660E+01  0.24026746009E+02  0.41489439171E+03  0.41565264437E+03  0.00000000000E+00 0.  1.
</event>
<event>
12    1  0.8226261E-002  0.2009336E+03  0.7818608E-02  0.1149023E+00
         21   -1    0    0  501  502  0.00000000000E+00  0.00000000000E+00  0.51925033003E+02  0.51925033003E+02  0.00000000000E+00 0. -1.
         21   -1    0    0  502  503 -0.00000000000E+00 -0.00000000000E+00 -0.93942052177E+03  0.93942052177E+03  0.00000000000E+00 0. -1.
         -6    2    1    2    0  503  0.61897508784E+01  0.10171472642E+03 -0.65000968538E+03  0.68026064911E+03  0.17279398441E+03 0.  0.
        -24    2    3    3    0    0 -0.43301533460E+02  0.11728700798E+03 -0.46490265640E+03  0.48796248127E+03  0.79634403064E+02 0.  0.
          6    2    1    2  501    0 -0.61897508784E+01 -0.10171472642E+03 -0.23748580338E+03  0.31108490566E+03  0.17317653748E+03 0.  0.
         24    2    5    5    0    0 -0.50199414224E+02 -0.59492009609E+02 -0.67525462721E+02  0.13045208561E+03  0.79992362934E+02 0.  0.
          5    1    5    5  501    0  0.44009663345E+02 -0.42222716814E+02 -0.16996034066E+03  0.18063282005E+03  0.47000000000E+01 0. -1.
        -11    1    6    6    0    0  0.18375277586E+02 -0.22443643473E+02 -0.28050407819E+01  0.29141657683E+02  0.00000000000E+00 0.  1.
         12    1    6    6    0    0 -0.68574691810E+02 -0.37048366137E+02 -0.64720421939E+02  0.10131042792E+03  0.00000000000E+00 0. -1.
         -5    1    3    3    0  503  0.49491284338E+02 -0.15572281558E+02 -0.18510702898E+03  0.19229816784E+03  0.47000000000E+01 0.  1.
         13    1    4    4    0    0  0.19510425801E+01  0.74109371567E+02 -0.15507405154E+03  0.17188358556E+03  0.00000000000E+00 0. -1.
        -14    1    4    4    0    0 -0.45252576040E+02  0.43177636415E+02 -0.30982860486E+03  0.31607889571E+03  0.00000000000E+00 0.  1.
</event>
<event>
12    1  0.8226261E-002  0.1791641E+03  0.7818608E-02  0.1169568E+00
         21   -1    0    0  503  502  0.00000000000E+00  0.00000000000E+00  0.16679603503E+02  0.16679603503E+02  0.00000000000E+00 0.  1.
         21   -1    0    0  501  503 -0.00000000000E+00 -0.00000000000E+00 -0.25460923152E+04  0.25460923152E+04  0.00000000000E+00 0.  1.
          6    2    1    2  501    0  0.13635210231E+01 -0.43934748541E+02 -0.19083229862E+04  0.19163570236E+04  0.16969237184E+03 0.  0.
         24    2    3    3    0    0  0.57329231909E+01 -0.19748306734E+02 -0.18611623509E+04  0.18629689055E+04  0.79403930577E+02 0.  0.
         -6    2    1    2    0  502 -0.13635210231E+01  0.43934748541E+02 -0.62108972548E+03  0.64641489505E+03  0.17368836497E+03 0.  0.
        -24    2    5    5    0    0  0.57648139709E+02 -0.48703382681E+01 -0.28442748542E+03  0.30112101082E+03  0.80173814247E+02 0.  0.
          5    1    3    3  501    0 -0.43694021678E+01 -0.24186441806E+02 -0.47160635269E+02  0.53388118168E+02  0.47000000000E+01 0. -1.
        -13    1    4    4    0    0  0.17786515894E+02 -0.41505921189E+02 -0.65714528268E+03  0.65869494016E+03  0.00000000000E+00 0.  1.
         14    1    4    4    0    0 -0.12053592703E+02  0.21757614454E+02 -0.12040170683E+04  0.12042739653E+04  0.00000000000E+00 0. -1.
         -5    1    5    5    0  502 -0.59011660732E+02  0.48805086809E+02 -0.33666224006E+03  0.34529388423E+03  0.47000000000E+01 0.  1.
         11    1    6    6    0    0  0.96831931872E-01  0.25135061933E+02 -0.14705784554E+03  0.14919045093E+03  0.00000000000E+00 0. -1.
        -12    1    6    6    0    0  0.57551307777E+02 -0.30005400201E+02 -0.13736963988E+03  0.15193055989E+03  0.00000000000E+00 0.  1.
</event>
<event>
12    1  0.8226261E-002  0.2090610E+03  0.7818608E-02  0.1142451E+00
         21   -1    0    0  503  502  0.00000000000E+00  0.00000000000E+00  0.49638570224E+03  0.49638570224E+03  0.00000000000E+00 0.  1.
         21   -1    0    0  501  503 -0.00000000000E+00 -0.00000000000E+00 -0.88279445580E+02  0.88279445580E+02  0.00000000000E+00 0.  1.
          6    2    1    2  501    0 -0.78725096304E+02 -0.91830128690E+02  0.18188629327E+03  0.27710850500E+03  0.17051711510E+03 0.  0.
         24    2    3    3    0    0 -0.10856290205E+02 -0.43885849372E+02  0.22907343103E+02  0.97661506264E+02  0.83481714319E+02 0.  0.
         -6    2    1    2    0  502  0.78725096304E+02  0.91830128690E+02  0.22621996339E+03  0.30755664282E+03  0.16966202693E+03 0.  0.
        -24    2    5    5    0    0  0.65079062341E+02 -0.73013159397E+01  0.87683916312E+02  0.13659587569E+03  0.81739650756E+02 0.  0.
          5    1    3    3  501    0 -0.67868806099E+02 -0.47944279318E+02  0.15897895017E+03  0.17944699874E+03  0.47000000000E+01 0. -1.
        -13    1    4    4    0    0  0.32214484154E+02 -0.29782518159E+02  0.28014448983E+02  0.52053633197E+02  0.00000000000E+00 0.  1.
         14    1    4    4    0    0 -0.43070774359E+02 -0.14103331213E+02 -0.51071058796E+01  0.45607873067E+02  0.00000000000E+00 0. -1.
         -5    1    5    5    0  502  0.13646033963E+02  0.99131444630E+02  0.13853604708E+03  0.17096076713E+03  0.47000000000E+01 0.  1.
         13    1    6    6    0    0 -0.50995260764E+01 -0.25525346755E+02  0.46287621181E+02  0.53104541875E+02  0.00000000000E+00 0. -1.
        -14    1    6    6    0    0  0.70178588417E+02  0.18224030815E+02  0.41396295131E+02  0.83491333813E+02  0.00000000000E+00 0.  1.
</event>
<event>
12    1  0.8226261E-002  0.2100088E+03  0.7818608E-02  0.1143147E+00
         21   -1    0    0  503  502  0.00000000000E+00  0.00000000000E+00  0.81172289749E+02  0.81172289749E+02  0.00000000000E+00 0. -1.
         21   -1    0    0  501  503 -0.00000000000E+00 -0.00000000000E+00 -0.65301074389E+03  0.65301074389E+03  0.00000000000E+00 0.  1.
          6    2    1    2  501    0 -0.84277792618E+02 -0.64513803355E+02 -0.45394135064E+03  0.50016642491E+03  0.18121513631E+03 0.  0.
         24    2    3    3    0    0 -0.73434185107E+02  0.26832986385E+02 -0.18975410411E+03  0.22038291744E+03  0.80308290807E+02 0.  0.
         -6    2    1    2    0  502  0.84277792618E+02  0.64513803355E+02 -0.11789710350E+03  0.23401660873E+03  0.17204438089E+03 0.  0.
        -24    2    5    5    0    0  0.15240549380E+02  0.76350070538E+02 -0.11809570101E+03  0.16381427533E+03  0.82625145011E+02 0.  0.
          5    1    3    3  501    0 -0.10843607511E+02 -0.91346789740E+02 -0.26418724653E+03  0.27978350747E+03  0.47000000000E+01 0. -1.
        -11    1    4    4    0    0 -0.38470853546E+02 -0.17635592514E+02 -0.13568221461E+03  0.14212911052E+03  0.00000000000E+00 0.  1.
         12    1    4    4    0    0 -0.34963331561E+02  0.44468578899E+02 -0.54071889494E+02  0.78253806915E+02  0.00000000000E+00 0. -1.
         -5    1    5    5    0  502  0.69037243238E+02 -0.11836267183E+02  0.19859750583E+00  0.70202333407E+02  0.47000000000E+01 0.  1.
         11    1    6    6    0    0  0.20223289589E+02  0.58251811605E+02 -0.21334243195E+02  0.65248792554E+02  0.00000000000E+00 0. -1.
        -12    1    6    6    0    0 -0.49827402092E+01  0.18098258933E+02 -0.96761457811E+02  0.98565482772E+02  0.00000000000E+00 0.  1.
</event>
<event>
12    1  0.8226261E-002  0.2005361E+03  0.7818608E-02  0.1149421E+00
         21   -1    0    0  501  502  0.00000000000E+00  0.00000000000E+00  0.12074478965E+04  0.12074478965E+04  0.00000000000E+00 0. -1.
         21   -1    0    0  502  503 -0.00000000000E+00 -0.00000000000E+00 -0.33603094895E+02  0.33603094895E+02  0.00000000000E+00 0.  1.
         -6    2    1    2    0  503 -0.93395936494E+02  0.40927800775E+02  0.65392287893E+03  0.68379565135E+03  0.17194032505E+03 0.  0.
        -24    2    3    3    0    0 -0.20688617002E+02  0.49483202284E+02  0.17412948310E+03  0.19842636730E+03  0.78583332688E+02 0.  0.
          6    2    1    2  501    0  0.93395936494E+02 -0.40927800775E+02  0.51992192272E+03  0.55725534009E+03  0.17267548324E+03 0.  0.
         24    2    5    5    0    0  0.30136939998E+02 -0.80516705668E+02  0.23357932365E+03  0.26131082491E+03  0.79579342378E+02 0.  0.
          5    1    5    5  501    0  0.63258996496E+02  0.39588904893E+02  0.28634259907E+03  0.29594451518E+03  0.47000000000E+01 0. -1.
        -13    1    6    6    0    0 -0.54338702910E+01 -0.44579580163E+02  0.18782147318E+03  0.19311595403E+03  0.00000000000E+00 0.  1.
         14    1    6    6    0    0  0.35570810289E+02 -0.35937125505E+02  0.45757850467E+02  0.68194870874E+02  0.00000000000E+00 0. -1.
         -5    1    3    3    0  503 -0.72707319492E+02 -0.85554015094E+01  0.47979339584E+03  0.48536928404E+03  0.47000000000E+01 0.  1.
         11    1    4    4    0    0  0.70235748535E+01  0.24866261826E+02  0.15418337088E+03  0.15633353267E+03  0.00000000000E+00 0. -1.
        -12    1    4    4    0    0 -0.27712191855E+02  0.24616940458E+02  0.19946112213E+02  0.42092834632E+02  0.00000000000E+00 0.  1.
</event>
<event>
12    1  0.8226261E-002  0.5225131E+03  0.7818608E-02  0.1008106E+00
         21   -1    0    0  503  502  0.00000000000E+00  0.00000000000E+00  0.73487026864E+03  0.73487026864E+03  0.00000000000E+00 0. -1.
         21   -1    0    0  501  503 -0.00000000000E+00 -0.00000000000E+00 -0.54705451543E+03  0.54705451543E+03  0.00000000000E+00 0.  1.
          6    2    1    2  501    0 -0.34795510075E+03 -0.34959630636E+03 -0.26970359162E+03  0.58741493486E+03  0.17037003492E+03 0.  0.
         24    2    3    3    0    0 -0.16786809105E+03 -0.24305904274E+03 -0.11589516197E+03  0.32768306805E+03  0.81774753230E+02 0.  0.
         -6    2    1    2    0  502  0.34795510075E+03  0.34959630636E+03  0.45751934483E+03  0.69450984921E+03  0.17242288187E+03 0.  0.
        -24    2    5    5    0    0  0.15405404811E+03  0.11504221735E+03  0.25422983435E+03  0.32850171547E+03  0.79455691332E+02 0.  0.
          5    1    3    3  501    0 -0.18008700971E+03 -0.10653726362E+03 -0.15380842966E+03  0.25973186681E+03  0.47000000000E+01 0. -1.
        -11    1    4    4    0    0 -0.86129611491E+02 -0.18275337122E+03 -0.97981069373E+02  0.22453818077E+03  0.00000000000E+00 0.  1.
         12    1    4    4    0    0 -0.81738479556E+02 -0.60305671528E+02 -0.17914092592E+02  0.10314488728E+03  0.00000000000E+00 0. -1.
         -5    1    5    5    0  502  0.19390105264E+03  0.23455408901E+03  0.20328951048E+03  0.36600813374E+03  0.47000000000E+01 0.  1.
         13    1    6    6    0    0  0.16265489221E+03  0.10135205708E+03  0.23012328307E+03  0.29947550625E+03  0.00000000000E+00 0. -1.
        -14    1    6    6    0    0 -0.86008440956E+01  0.13690160274E+02  0.24106551278E+02  0.29026209225E+02  0.00000000000E+00 0.  1.
</event>
<event>
12    1  0.8226261E-002  0.2235479E+03  0.7818608E-02  0.1131622E+00
         21   -1    0    0  503  502  0.00000000000E+00  0.00000000000E+00  0.68132198306E+02  0.68132198306E+02  0.00000000000E+00 0. -1.
         21   -1    0    0  501  503 -0.00000000000E+00 -0.00000000000E+00 -0.75791276967E+03  0.75791276967E+03  0.00000000000E+00 0.  1.
          6    2    1    2  501    0 -0.67797772995E+02 -0.12257102041E+03 -0.42671322139E+03  0.48082314515E+03  0.17171642478E+03 0.  0.
         24    2    3    3    0    0 -0.11106068200E+03 -0.86103917642E+02 -0.27944278428E+03  0.32298715265E+03  0.80523731755E+02 0.  0.
         -6    2    1    2    0  502  0.67797772995E+02  0.12257102041E+03 -0.26306734998E+03  0.34522182283E+03  0.17422251078E+03 0.  0.
        -24    2    5    5    0    0  0.42499148404E+02  0.76247606244E+01 -0.14118618074E+03  0.17572323150E+03  0.95293241466E+02 0.  0.
          5    1    3    3  501    0  0.43262909008E+02 -0.36467102770E+02 -0.14727043711E+03  0.15783599250E+03  0.47000000000E+01 0. -1.
        -13    1    4    4    0    0 -0.73235900514E+02 -0.32356659770E+02 -0.22093393253E+03  0.23499415545E+03  0.00000000000E+00 0.  1.
         14    1    4    4    0    0 -0.37824781489E+02 -0.53747257871E+02 -0.58508851749E+02  0.87992997201E+02  0.00000000000E+00 0. -1.
         -5    1    5    5    0  502  0.25298624591E+02  0.11494625979E+03 -0.12188116924E+03  0.16949859132E+03  0.47000000000E+01 0.  1.
         13    1    6    6    0    0 -0.71719667927E-01 -0.17075463808E+02 -0.12153305026E+03  0.12272676527E+03  0.00000000000E+00 0. -1.
        -14    1    6    6    0    0  0.42570868072E+02  0.24700224433E+02 -0.19653130472E+02  0.52996466229E+02  0.00000000000E+00 0.  1.
</event>
<event>
12    1  0.8226261E-002  0.2099359E+03  0.7818608E-02  0.1141909E+00
         21   -1    0    0  503  502  0.00000000000E+00  0.00000000000E+00  0.12878947271E+04  0.12878947271E+04  0.00000000000E+00 0.  1.
         21   -1    0    0  501  503 -0.00000000000E+00 -0.00000000000E+00 -0.34798585159E+02  0.34798585159E+02  0.00000000000E+00 0.  1.
          6    2    1    2  501    0 -0.97737942358E+02 -0.64587506165E+02  0.73001477062E+03  0.75960162429E+03  0.17420910126E+03 0.  0.
         24    2    3    3    0    0 -0.25453020136E+02 -0.55691196597E+02  0.19852187381E+03  0.22312138824E+03  0.81380918508E+02 0.  0.
         -6    2    1    2    0  502  0.97737942358E+02  0.64587506165E+02  0.52308137127E+03  0.56309168793E+03  0.17243513769E+03 0.  0.
        -24    2    5    5    0    0  0.55135176366E+02  0.23690183942E+02  0.47982629976E+03  0.48973858406E+03  0.77520902261E+02 0.  0.
          5    1    3    3  501    0 -0.72284922223E+02 -0.88963095688E+01  0.53149289681E+03  0.53648023604E+03  0.47000000000E+01 0. -1.
        -13    1    4    4    0    0 -0.22222129409E+02 -0.48837611862E+02  0.20576120330E+03  0.21264197175E+03  0.00000000000E+00 0.  1.
         14    1    4    4    0    0 -0.32308907270E+01 -0.68535847346E+01 -0.72393294855E+01  0.10479416492E+02  0.00000000000E+00 0. -1.
         -5    1    5    5    0  502  0.42602765993E+02  0.40897322223E+02  0.43255071509E+02  0.73353103864E+02  0.47000000000E+01 0.  1.
         11    1    6    6    0    0  0.67213072191E+02  0.15080224658E+02  0.24657339782E+03  0.25601455185E+03  0.00000000000E+00 0. -1.
        -12    1    6    6    0    0 -0.12077895825E+02  0.86099592842E+01  0.23325290195E+03  0.23372403221E+03  0.00000000000E+00 0.  1.
</event>
<event>
12    1  0.8226261E-002  0.1723345E+03  0.7818608E-02  0.1175532E+00
         21   -1    0    0  501  502  0.00000000000E+00  0.00000000000E+00  0.98687561383E+02  0.98687561383E+02  0.00000000000E+00 0.  1.
         21   -1    0    0  502  503 -0.00000000000E+00 -0.00000000000E+00 -0.88264683225E+03  0.88264683225E+03  0.00000000000E+00 0.  1.
         -6    2    1    2    0  503  0.11621159840E+02 -0.68460901500E+01 -0.79068450722E+03  0.80924727787E+03  0.17180583945E+03 0.  0.
        -24    2    3    3    0    0  0.29141927748E+02  0.46281690034E+02 -0.31081564031E+03  0.32610572743E+03  0.82142171945E+02 0.  0.
          6    2    1    2  501    0 -0.11621159840E+02  0.68460901500E+01  0.67252363580E+01  0.17208711576E+03  0.17142586240E+03 0.  0.
         24    2    5    5    0    0 -0.34466066476E+02  0.26059860474E+00 -0.56838700584E+02  0.10405974967E+03  0.80061326287E+02 0.  0.
          5    1    5    5  501    0  0.22844906636E+02  0.65854915452E+01  0.63563936942E+02  0.68027366094E+02  0.47000000000E+01 0. -1.
        -11    1    6    6    0    0 -0.41322714321E+02  0.84547774227E+01  0.39276197818E+01  0.42361257976E+02  0.00000000000E+00 0.  1.
         12    1    6    6    0    0  0.68566478450E+01 -0.81941788180E+01 -0.60766320366E+02  0.61698491692E+02  0.00000000000E+00 0. -1.
         -5    1    3    3    0  503 -0.17520767908E+02 -0.53127780183E+02 -0.47986886691E+03  0.48314155044E+03  0.47000000000E+01 0.  1.
         11    1    4    4    0    0  0.36428880542E+02 -0.46022664450E+00 -0.22662492485E+03  0.22953459806E+03  0.00000000000E+00 0. -1.
        -12    1    4    4    0    0 -0.72869527944E+01  0.46741916678E+02 -0.84190715465E+02  0.96571129362E+02  0.00000000000E+00 0.  1.
</event>
<event>
12    1  0.8226261E-002  0.2401875E+03  0.7818608E-02  0.1119752E+00
         21   -1    0    0  503  502  0.00000000000E+00  0.00000000000E+00  0.31146193319E+03  0.31146193319E+03  0.00000000000E+00 0. -1.
         21   -1    0    0  501  503 -0.00000000000E+00 -0.00000000000E+00 -0.64077500212E+03  0.64077500212E+03  0.00000000000E+00 0. -1.
          6    2    1    2  501    0  0.43959990933E+02 -0.16201664748E+03 -0.56632783988E+03  0.61515627535E+03  0.17177935269E+03 0.  0.
         24    2    3    3    0    0  0.77197326489E+02 -0.17045802398E+03 -0.45002104460E+03  0.49380827190E+03  0.79450007296E+02 0.  0.
         -6    2    1    2    0  502 -0.43959990933E+02  0.16201664748E+03  0.23701477095E+03  0.33708065997E+03  0.17107160727E+03 0.  0.
        -24    2    5    5    0    0  0.18265131076E+02  0.74432571828E+02  0.53311229519E+02  0.12421446432E+03  0.81934871641E+02 0.  0.
          5    1    3    3  501    0 -0.33237335556E+02  0.84413764952E+01 -0.11630679528E+03  0.12134800345E+03  0.47000000000E+01 0. -1.
        -11    1    4    4    0    0  0.41506346079E+02 -0.10998446761E+03 -0.18139752499E+03  0.21615832612E+03  0.00000000000E+00 0.  1.
         12    1    4    4    0    0  0.35690980410E+02 -0.60473556371E+02 -0.26862351961E+03  0.27764994578E+03  0.00000000000E+00 0. -1.
         -5    1    5    5    0  502 -0.62225122008E+02  0.87584075654E+02  0.18370354143E+03  0.21286619565E+03  0.47000000000E+01 0.  1.
         13    1    6    6    0    0 -0.95953450626E+01  0.79640603265E+02  0.24680738847E+02  0.83927559271E+02  0.00000000000E+00 0. -1.
        -14    1    6    6    0    0  0.27860476138E+02 -0.52080314369E+01  0.28630490673E+02  0.40286905047E+02  0.00000000000E+00 0.  1.
</event>
<event>
12    1  0.8226261E-002  0.1801061E+03  0.7818608E-02  0.1169831E+00
         21   -1    0    0  501  502  0.00000000000E+00  0.00000000000E+00  0.14920153533E+04  0.14920153533E+04  0.00000000000E+00 0. -1.
         21   -1    0    0  502  503 -0.00000000000E+00 -0.00000000000E+00 -0.92152952254E+02  0.92152952254E+02  0.00000000000E+00 0. -1.
         -6    2    1    2    0  503 -0.43526264377E+01 -0.48869434409E+00  0.64318748912E+01  0.18022094124E+03  0.18005286576E+03 0.  0.
        -24    2    3    3    0    0  0.42240347972E+02 -0.39649083903E+02  0.43533764754E+02  0.10878508466E+03  0.81133896240E+02 0.  0.
          6    2    1    2  501    0  0.43526264377E+01  0.48869434409E+00  0.13934305261E+04  0.14039473643E+04  0.17146540864E+03 0.  0.
         24    2    5    5    0    0  0.49898470500E+02  0.45456819562E+02  0.96833569813E+03  0.97403544425E+03  0.80714574775E+02 0.  0.
          5    1    5    5  501    0 -0.45545844062E+02 -0.44968125218E+02  0.42509482799E+03  0.42991192002E+03  0.47000000000E+01 0. -1.
        -11    1    6    6    0    0  0.12969232739E+02 -0.10503272677E+02  0.40822724153E+02  0.44102319010E+02  0.00000000000E+00 0.  1.
         12    1    6    6    0    0  0.36929237761E+02  0.55960092239E+02  0.92751297398E+03  0.92993312524E+03  0.00000000000E+00 0. -1.
         -5    1    3    3    0  503 -0.46592974410E+02  0.39160389558E+02 -0.37101889863E+02  0.71435856586E+02  0.47000000000E+01 0.  1.
         13    1    4    4    0    0 -0.16866358157E+02  0.61728187176E+01  0.26613412206E+02  0.32106875239E+02  0.00000000000E+00 0. -1.
        -14    1    4    4    0    0  0.59106706129E+02 -0.45821902620E+02  0.16920352548E+02  0.76678209418E+02  0.00000000000E+00 0.  1.
</event>
<event>
12    1  0.8226261E-002  0.2261412E+03  0.7818608E-02  0.1129712E+00
         21   -1    0    0  501  502  0.00000000000E+00  0.00000000000E+00  0.16383701498E+03  0.16383701498E+03  0.00000000000E+00 0.  1.
         21   -1    0    0  502  503 -0.00000000000E+00 -0.00000000000E+00 -0.33385850807E+03  0.33385850807E+03  0.00000000000E+00 0.  1.
         -6    2    1    2    0  503 -0.67114648482E+02 -0.12982206496E+03 -0.15170105555E+03  0.27081346993E+03  0.17020158826E+03 0.  0.
        -24    2    3    3    0    0  0.53063968788E+01 -0.10542192673E+03 -0.44891346959E+02  0.13939589725E+03  0.79208854660E+02 0.  0.
          6    2    1    2  501    0  0.67114648482E+02  0.12982206496E+03 -0.18320437537E+02  0.22688205312E+03  0.17257370312E+03 0.  0.
         24    2    5    5    0    0  0.67694404808E+02  0.11564984789E+03 -0.71415023407E+02  0.17172488765E+03  0.80199200200E+02 0.  0.
          5    1    5    5  501    0 -0.57975632568E+00  0.14172217067E+02  0.53094585870E+02  0.55157165470E+02  0.47000000000E+01 0. -1.
        -13    1    6    6    0    0  0.91369915454E+01  0.16245504630E+02  0.17885388406E+02  0.25831921215E+02  0.00000000000E+00 0.  1.
         14    1    6    6    0    0  0.58557413262E+02  0.99404343258E+02 -0.89300411813E+02  0.14589296644E+03  0.00000000000E+00 0. -1.
         -5    1    3    3    0  503 -0.72421045361E+02 -0.24400138228E+02 -0.10680970860E+03  0.13141757267E+03  0.47000000000E+01 0.  1.
         13    1    4    4    0    0 -0.17440689110E+02 -0.36668695560E+02  0.17109048882E+02  0.44062347013E+02  0.00000000000E+00 0. -1.
        -14    1    4    4    0    0  0.22747085989E+02 -0.68753231169E+02 -0.62000395841E+02  0.95333550241E+02  0.00000000000E+00 0.  1.
</event>
<event>
12    1  0.8226261E-002  0.1785553E+03  0.7818608E-02  0.1169535E+00
         21   -1    0    0  503  502  0.00000000000E+00  0.00000000000E+00  0.19588707109E+04  0.19588707109E+04  0.00000000000E+00 0.  1.
         21   -1    0    0  501  503 -0.00000000000E+00 -0.00000000000E+00 -0.27169475268E+02  0.27169475268E+02  0.00000000000E+00 0.  1.
          6    2    1    2  501    0 -0.12197418568E+02  0.48394346458E+02  0.33572595621E+03  0.38025505381E+03  0.17143861434E+03 0.  0.
         24    2    3    3    0    0 -0.68645334765E+02 -0.35050125222E+01  0.20822299507E+03  0.23139604063E+03  0.73911060378E+02 0.  0.
         -6    2    1    2    0  502  0.12197418568E+02 -0.48394346458E+02  0.15959752795E+04  0.16057851324E+04  0.17005295934E+03 0.  0.
        -24    2    5    5    0    0  0.53492095638E+02 -0.74251104887E+02  0.97243221611E+03  0.98032381132E+03  0.83879253894E+02 0.  0.
          5    1    3    3  501    0  0.56447916197E+02  0.51899358980E+02  0.12750296114E+03  0.14885901318E+03  0.47000000000E+01 0. -1.
        -11    1    4    4    0    0 -0.39665915554E+02  0.33063773724E+02  0.82887550420E+02  0.97657278296E+02  0.00000000000E+00 0.  1.
         12    1    4    4    0    0 -0.28979419211E+02 -0.36568786246E+02  0.12533544465E+03  0.13373876233E+03  0.00000000000E+00 0. -1.
         -5    1    5    5    0  502 -0.41294677070E+02  0.25856758429E+02  0.62354306336E+03  0.62546132108E+03  0.47000000000E+01 0.  1.
         11    1    6    6    0    0  0.45693862587E+02 -0.35239025866E+02  0.24105466967E+03  0.24786502736E+03  0.00000000000E+00 0. -1.
        -12    1    6    6    0    0  0.77982330508E+01 -0.39012079021E+02  0.73137754645E+03  0.73245878396E+03  0.00000000000E+00 0.  1.
</event>
<event>
12    1  0.8226261E-002  0.2418791E+03  0.7818608E-02  0.1121115E+00
         21   -1    0    0  503  502  0.00000000000E+00  0.00000000000E+00  0.15543923814E+03  0.15543923814E+03  0.00000000000E+00 0. -1.
         21   -1    0    0  501  503 -0.00000000000E+00 -0.00000000000E+00 -0.57085475719E+03  0.57085475719E+03  0.00000000000E+00 0.  1.
          6    2    1    2  501    0  0.78962733475E+02  0.12431226213E+03 -0.43593060199E+03  0.49853885119E+03  0.19187716018E+03 0.  0.
         24    2    3    3    0    0  0.11139641453E+03  0.13039635419E+03 -0.42063192750E+03  0.46186325597E+03  0.83510947955E+02 0.  0.
         -6    2    1    2    0  502 -0.78962733475E+02 -0.12431226213E+03  0.20515082936E+02  0.22775514415E+03  0.17251923158E+03 0.  0.
        -24    2    5    5    0    0 -0.12052794023E+03 -0.82801778167E+02  0.31000228586E+02  0.16789852404E+03  0.76457709597E+02 0.  0.
          5    1    3    3  501    0 -0.32433681058E+02 -0.60840920611E+01 -0.15298674492E+02  0.36675595215E+02  0.47000000000E+01 0. -1.
        -11    1    4    4    0    0  0.91859384210E+01  0.49254222316E+02 -0.19377364899E+03  0.20014641371E+03  0.00000000000E+00 0.  1.
         12    1    4    4    0    0  0.10221047611E+03  0.81142131873E+02 -0.22685827851E+03  0.26171684226E+03  0.00000000000E+00 0. -1.
         -5    1    5    5    0  502  0.41565206759E+02 -0.41510483960E+02 -0.10485145650E+02  0.59856620109E+02  0.47000000000E+01 0.  1.
         13    1    6    6    0    0 -0.45907548298E+02 -0.62609447644E+02  0.44408344787E+02  0.89440186783E+02  0.00000000000E+00 0. -1.
        -14    1    6    6    0    0 -0.74620391936E+02 -0.20192330523E+02 -0.13408116201E+02  0.78458337254E+02  0.00000000000E+00 0.  1.
</event>
<event>
12    1  0.8226261E-002  0.2166913E+03  0.7818608E-02  0.1136388E+00
         21   -1    0    0  501  502  0.00000000000E+00  0.00000000000E+00  0.13631589792E+03  0.13631589792E+03  0.00000000000E+00 0.  1.
         21   -1    0    0  502  503 -0.00000000000E+00 -0.00000000000E+00 -0.50615583504E+03  0.50615583504E+03  0.00000000000E+00 0.  1.
         -6    2    1    2    0  503 -0.13009260196E+03 -0.19253948273E+02 -0.36656934911E+03  0.42582648751E+03  0.17222168896E+03 0.  0.
        -24    2    3    3    0    0 -0.25045195862E+02 -0.60667088671E+02 -0.18322068295E+03  0.21044582657E+03  0.80061662326E+02 0.  0.
          6    2    1    2  501    0  0.13009260196E+03  0.19253948273E+02 -0.32705880037E+01  0.21664524545E+03  0.17213269888E+03 0.  0.
         24    2    5    5    0    0  0.86981730566E+02  0.85087438826E+01  0.56260623067E+02  0.14221365444E+03  0.97063101257E+02 0.  0.
          5    1    5    5  501    0  0.43110871396E+02  0.10745204390E+02 -0.59531211071E+02  0.74431591018E+02  0.47000000000E+01 0. -1.
        -11    1    6    6    0    0  0.63998302230E+02  0.27246266848E+02  0.78695803473E+02  0.10502938270E+03  0.00000000000E+00 0.  1.
         12    1    6    6    0    0  0.22983428337E+02 -0.18737522966E+02 -0.22435180406E+02  0.37184271740E+02  0.00000000000E+00 0. -1.
         -5    1    3    3    0  503 -0.10504740610E+03  0.41413140398E+02 -0.18334866616E+03  0.21538066094E+03  0.47000000000E+01 0.  1.
         11    1    4    4    0    0 -0.15046773911E+01  0.19711314969E+02 -0.35582046061E+02  0.40704815363E+02  0.00000000000E+00 0. -1.
        -12    1    4    4    0    0 -0.23540518471E+02 -0.80378403639E+02 -0.14763863689E+03  0.16974101120E+03  0.00000000000E+00 0.  1.
</event>
<event>
12    1  0.8226261E-002  0.1805703E+03  0.7818608E-02  0.1167356E+00
         21   -1    0    0  501  502  0.00000000000E+00  0.00000000000E+00  0.26107040267E+04  0.26107040267E+04  0.00000000000E+00 0. -1.
         21   -1    0    0  502  503 -0.00000000000E+00 -0.00000000000E+00 -0.13973352692E+02  0.13973352692E+02  0.00000000000E+00 0. -1.
         -6    2    1    2    0  503 -0.54128908226E+02 -0.50039945357E+01  0.86503171065E+03  0.88358951912E+03  0.17174282868E+03 0.  0.
        -24    2    3    3    0    0 -0.55247751392E+02  0.22147540800E+02  0.84119653840E+03  0.84713868762E+03  0.80557508902E+02 0.  0.
          6    2    1    2  501    0  0.54128908226E+02  0.50039945357E+01  0.17316989633E+04  0.17410878602E+04  0.17219366661E+03 0.  0.
         24    2    5    5    0    0  0.51343674321E+02  0.53992169160E+02  0.79778934370E+03  0.80587832949E+03  0.86143588221E+02 0.  0.
          5    1    5    5  501    0  0.27852339054E+01 -0.48988174625E+02  0.93390961961E+03  0.93520953074E+03  0.47000000000E+01 0. -1.
        -13    1    6    6    0    0  0.22574403005E+02  0.19721330132E+02  0.63421537138E+02  0.70148598747E+02  0.00000000000E+00 0.  1.
         14    1    6    6    0    0  0.28769271316E+02  0.34270839028E+02  0.73436780656E+03  0.73572973074E+03  0.00000000000E+00 0. -1.
         -5    1    3    3    0  503  0.11188431658E+01 -0.27151535336E+02  0.23835172247E+02  0.36450831502E+02  0.47000000000E+01 0.  1.
         11    1    4    4    0    0 -0.23744463005E+01 -0.23580890934E+02  0.10554108021E+03  0.10816938580E+03  0.00000000000E+00 0. -1.
        -12    1    4    4    0    0 -0.52873305092E+02  0.45728431734E+02  0.73565545819E+03  0.73896930182E+03  0.00000000000E+00 0.  1.
</event>
<event>
12    1  0.8226261E-002  0.1924623E+03  0.7818608E-02  0.1156416E+00
         21   -1    0    0  503  502  0.00000000000E+00  0.00000000000E+00  0.14619553016E+04  0.14619553016E+04  0.00000000000E+00 0. -1.
         21   -1    0    0  501  503 -0.00000000000E+00 -0.00000000000E+00 -0.32208515362E+02  0.32208515362E+02  0.00000000000E+00 0. -1.
          6    2    1    2  501    0  0.84852175148E+02 -0.10266976968E+02  0.36850764116E+03  0.41573984156E+03  0.17244254644E+03 0.  0.
         24    2    3    3    0    0  0.77366877508E+02 -0.62573349049E+02  0.31590864317E+03  0.34103555233E+03  0.81276807091E+02 0.  0.
         -6    2    1    2    0  502 -0.84852175148E+02  0.10266976968E+02  0.10612391451E+04  0.10784239754E+04  0.17165210523E+03 0.  0.
        -24    2    5    5    0    0 -0.31522501250E+02  0.69366534365E+02  0.69726995588E+03  0.70582167738E+03  0.78698568698E+02 0.  0.
          5    1    3    3  501    0  0.74852976400E+01  0.52306372082E+02  0.52598997988E+02  0.74704289237E+02  0.47000000000E+01 0. -1.
        -13    1    4    4    0    0 -0.66142738768E+01  0.12831306948E+02  0.23246688504E+02  0.27364202589E+02  0.00000000000E+00 0.  1.
         14    1    4    4    0    0  0.83981151385E+02 -0.75404655998E+02  0.29266195467E+03  0.31367134974E+03  0.00000000000E+00 0. -1.
         -5    1    5    5    0  502 -0.53329673898E+02 -0.59099557397E+02  0.36396918917E+03  0.37260229799E+03  0.47000000000E+01 0.  1.
         11    1    6    6    0    0 -0.26126791126E+02  0.20491774518E+02  0.54054925959E+03  0.54156811583E+03  0.00000000000E+00 0. -1.
        -12    1    6    6    0    0 -0.53957101243E+01  0.48874759847E+02  0.15672069628E+03  0.16425356155E+03  0.00000000000E+00 0.  1.
</event>
<event>
12    1  0.8226261E-002  0.1846347E+03  0.7818608E-02  0.1163514E+00
         21   -1    0    0  501  502  0.00000000000E+00  0.00000000000E+00  0.49025965010E+03  0.49025965010E+03  0.00000000000E+00 0. -1.
         21   -1    0    0  502  503 -0.00000000000E+00 -0.00000000000E+00 -0.69870009698E+02  0.69870009698E+02  0.00000000000E+00 0. -1.
         -6    2    1    2    0  503  0.48971294189E+02 -0.43327331914E+02  0.18544463200E+03  0.26131679650E+03  0.17210842875E+03 0.  0.
        -24    2    3    3    0    0  0.42393586900E+02 -0.84721946659E+00  0.19709478687E+03  0.21653239860E+03  0.79006269633E+02 0.  0.
          6    2    1    2  501    0 -0.48971294189E+02  0.43327331914E+02  0.23494500839E+03  0.29881286329E+03  0.17266883030E+03 0.  0.
         24    2    5    5    0    0 -0.83046232203E+02 -0.83221434208E+01  0.10704739621E+03  0.15665570060E+03  0.78204403591E+02 0.  0.
          5    1    5    5  501    0  0.34074938014E+02  0.51649475335E+02  0.12789761218E+03  0.14215716269E+03  0.47000000000E+01 0. -1.
        -13    1    6    6    0    0 -0.27128172937E+01  0.21824813725E+02  0.47109600672E+02  0.51990348597E+02  0.00000000000E+00 0.  1.
         14    1    6    6    0    0 -0.80333414910E+02 -0.30146957145E+02  0.59937795541E+02  0.10466535201E+03  0.00000000000E+00 0. -1.
         -5    1    3    3    0  503  0.65777072894E+01 -0.42480112447E+02 -0.11650154867E+02  0.44784397899E+02  0.47000000000E+01 0.  1.
         11    1    4    4    0    0 -0.12087862403E+02  0.77263413509E+01  0.12470163057E+03  0.12552413885E+03  0.00000000000E+00 0. -1.
        -12    1    4    4    0    0  0.54481449303E+02 -0.85735608175E+01  0.72393156304E+02  0.91008259751E+02  0.00000000000E+00 0.  1.
</event>
<event>
12    1  0.8226261E-002  0.1815207E+03  0.7818608E-02  0.1166341E+00
         21   -1    0    0  503  502  0.00000000000E+00  0.00000000000E+00  0.23420394159E+03  0.23420394159E+03  0.00000000000E+00 0. -1.
         21   -1    0    0  501  503 -0.00000000000E+00 -0.00000000000E+00 -0.54238704641E+03  0.54238704641E+03  0.00000000000E+00 0.  1.
          6    2    1    2  501    0 -0.85412186937E+01  0.57204043838E+02 -0.48825639047E+03  0.52090697223E+03  0.17205962871E+03 0.  0.
         24    2    3    3    0    0  0.12704855909E+02  0.10164013222E+03 -0.38692195179E+03  0.40813853649E+03  0.79851977745E+02 0.  0.
         -6    2    1    2    0  502  0.85412186937E+01 -0.57204043838E+02  0.18007328565E+03  0.25568401577E+03  0.17205427244E+03 0.  0.
        -24    2    5    5    0    0 -0.14570645707E+02 -0.20884071043E+02  0.23781256695E+02  0.93503292447E+02  0.86769057784E+02 0.  0.
          5    1    3    3  501    0 -0.21246074602E+02 -0.44436088380E+02 -0.10133443868E+03  0.11276843574E+03  0.47000000000E+01 0. -1.
        -13    1    4    4    0    0 -0.19148189880E+02  0.51511515722E+02 -0.28435290551E+03  0.28961468247E+03  0.00000000000E+00 0.  1.
         14    1    4    4    0    0  0.31853045789E+02  0.50128616495E+02 -0.10256904628E+03  0.11852385402E+03  0.00000000000E+00 0. -1.
         -5    1    5    5    0  502  0.23111864401E+02 -0.36319972795E+02  0.15629202896E+03  0.16218072332E+03  0.47000000000E+01 0.  1.
         13    1    6    6    0    0  0.23128141806E+02 -0.24627071585E+02  0.39943783454E+02  0.52315479878E+02  0.00000000000E+00 0. -1.
        -14    1    6    6    0    0 -0.37698787513E+02  0.37430005418E+01 -0.16162526759E+02  0.41187812569E+02  0.00000000000E+00 0.  1.
</event>
<event>
12    1  0.8226261E-002  0.2653350E+03  0.7818608E-02  0.1104084E+00
         21   -1    0    0  503  502  0.00000000000E+00  0.00000000000E+00  0.17111016652E+03  0.17111016652E+03  0.00000000000E+00 0.  1.
         21   -1    0    0  501  503 -0.00000000000E+00 -0.00000000000E+00 -0.41824997882E+03  0.41824997882E+03  0.00000000000E+00 0. -1.
          6    2    1    2  501    0 -0.19965835140E+03 -0.26911979375E+02 -0.16391773916E+03  0.31128001687E+03  0.17157654786E+03 0.  0.
         24    2    3    3    0    0 -0.62642446141E+02  0.16770065993E+01 -0.14558797957E+03  0.17003994289E+03  0.61569748830E+02 0.  0.
         -6    2    1    2    0  502  0.19965835140E+03  0.26911979375E+02 -0.83222073147E+02  0.27808012847E+03  0.17267001035E+03 0.  0.
        -24    2    5    5    0    0  0.10890315369E+03  0.21443499753E+02 -0.11705146338E+03  0.18095686748E+03  0.82003794094E+02 0.  0.
          5    1    3    3  501    0 -0.13701590526E+03 -0.28588985974E+02 -0.18329759581E+02  0.14124007398E+03  0.47000000000E+01 0. -1.
        -13    1    4    4    0    0  0.10155802160E+02 -0.20530503533E+00 -0.41840042103E+01  0.10985825363E+02  0.00000000000E+00 0.  1.
         14    1    4    4    0    0 -0.72798248301E+02  0.18823116346E+01 -0.14140397536E+03  0.15905411753E+03  0.00000000000E+00 0. -1.
         -5    1    5    5    0  502  0.90755197711E+02  0.54684796219E+01  0.33829390231E+02  0.97123260985E+02  0.47000000000E+01 0.  1.
         13    1    6    6    0    0  0.86482154129E+02 -0.18749912625E+02 -0.56854130381E+02  0.10518134030E+03  0.00000000000E+00 0. -1.
        -14    1    6    6    0    0  0.22420999558E+02  0.40193412378E+02 -0.60197332998E+02  0.75775527183E+02  0.00000000000E+00 0.  1.
</event>
<event>
12    1  0.8226261E-002  0.1860485E+03  0.7818608E-02  0.1162543E+00
         21   -1    0    0  503  502  0.00000000000E+00  0.00000000000E+00  0.38167395139E+03  0.38167395139E+03  0.00000000000E+00 0.  1.
         21   -1    0    0  501  503 -0.00000000000E+00 -0.00000000000E+00 -0.10126053753E+03  0.10126053753E+03  0.00000000000E+00 0.  1.
          6    2    1    2  501    0 -0.89659835320E+01  0.67594213993E+02  0.57986104607E+02  0.19295526437E+03  0.17093852431E+03 0.  0.
         24    2    3    3    0    0  0.39153886145E+02  0.75265283214E+02  0.50962833764E+01  0.12088730789E+03  0.85964408026E+02 0.  0.
         -6    2    1    2    0  502  0.89659835320E+01 -0.67594213993E+02  0.22242730925E+03  0.28997922455E+03  0.17310307954E+03 0.  0.
        -24    2    5    5    0    0  0.71407905282E+01  0.28890122321E+02  0.13619552055E+03  0.16047798955E+03  0.79487956674E+02 0.  0.
          5    1    3    3  501    0 -0.48119869677E+02 -0.76710692211E+01  0.52889821231E+02  0.72067956476E+02  0.47000000000E+01 0. -1.
        -13    1    4    4    0    0 -0.18270315886E+02  0.57285906679E+02 -0.28245458190E+01  0.60195162643E+02  0.00000000000E+00 0.  1.
         14    1    4    4    0    0  0.57424202032E+02  0.17979376536E+02  0.79208291954E+01  0.60692145248E+02  0.00000000000E+00 0. -1.
         -5    1    5    5    0  502  0.18251930038E+01 -0.96484336315E+02  0.86231788703E+02  0.12950123500E+03  0.47000000000E+01 0.  1.
         11    1    6    6    0    0 -0.18469291707E+02  0.16468077168E+02  0.37730158434E+01  0.25030939861E+02  0.00000000000E+00 0. -1.
        -12    1    6    6    0    0  0.25610082235E+02  0.12422045154E+02  0.13242250470E+03  0.13544704969E+03  0.00000000000E+00 0.  1.
</event>
<event>
12    1  0.8226261E-002  0.1870807E+03  0.7818608E-02  0.1161474E+00
         21   -1    0    0  501  502  0.00000000000E+00  0.00000000000E+00  0.73672134339E+02  0.73672134339E+02  0.00000000000E+00 0.  1.
         21   -1    0    0  502  503 -0.00000000000E+00 -0.00000000000E+00 -0.88409267831E+03  0.88409267831E+03  0.00000000000E+00 0.  1.
         -6    2    1    2    0  503 -0.61113270215E+02 -0.37390500752E+02 -0.73335994279E+03  0.75684607269E+03  0.17281866428E+03 0.  0.
        -24    2    3    3    0    0  0.27869245180E+01  0.34778844824E+02 -0.26121388702E+03  0.27493774396E+03  0.78362831016E+02 0.  0.
          6    2    1    2  501    0  0.61113270215E+02  0.37390500752E+02 -0.77060601187E+02  0.20091873996E+03  0.17116402212E+03 0.  0.
         24    2    5    5    0    0  0.43059750418E+02  0.87938783118E+02 -0.73136704779E+02  0.14689517667E+03  0.81497507085E+02 0.  0.
          5    1    5    5  501    0  0.18053519797E+02 -0.50548282366E+02 -0.39238964075E+01  0.54023563287E+02  0.47000000000E+01 0. -1.
        -11    1    6    6    0    0  0.50658028539E+01  0.36557007550E+02  0.13449894938E+02  0.39280743798E+02  0.00000000000E+00 0.  1.
         12    1    6    6    0    0  0.37993947564E+02  0.51381775569E+02 -0.86586599717E+02  0.10761443287E+03  0.00000000000E+00 0. -1.
         -5    1    3    3    0  503 -0.63900194733E+02 -0.72169345576E+02 -0.47214605576E+03  0.48190832873E+03  0.47000000000E+01 0.  1.
         13    1    4    4    0    0  0.38410467876E+01  0.30776448502E+02 -0.26645806269E+03  0.26825704575E+03  0.00000000000E+00 0. -1.
        -14    1    4    4    0    0 -0.10541222695E+01  0.40023963220E+01  0.52441756694E+01  0.66806982067E+01  0.00000000000E+00 0.  1.
</event>
<event>
12    1  0.8226261E-002  0.1733160E+03  0.7818608E-02  0.1176399E+00
         21   -1    0    0  501  502  0.00000000000E+00  0.00000000000E+00  0.13219470381E+04  0.13219470381E+04  0.00000000000E+00 0. -1.
         21   -1    0    0  502  503 -0.00000000000E+00 -0.00000000000E+00 -0.31139627863E+02  0.31139627863E+02  0.00000000000E+00 0. -1.
         -6    2    1    2    0  503 -0.29462354619E+02 -0.36095034410E+01  0.26380888943E+03  0.31156643690E+03  0.16308726378E+03 0.  0.
        -24    2    3    3    0    0 -0.40885767955E+02  0.17310044693E+02  0.74726014270E+02  0.12092922767E+03  0.84075068997E+02 0.  0.
          6    2    1    2  501    0  0.29462354619E+02  0.36095034410E+01  0.10269985208E+04  0.10415202290E+04  0.17075528381E+03 0.  0.
         24    2    5    5    0    0  0.67958826998E+02  0.98559383745E+01  0.41378387121E+03  0.42704867332E+03  0.80236747329E+02 0.  0.
          5    1    5    5  501    0 -0.38496472379E+02 -0.62464349335E+01  0.61321464958E+03  0.61447155573E+03  0.47000000000E+01 0. -1.
        -11    1    6    6    0    0  0.18092640003E+02  0.42306536729E+02  0.18980785855E+03  0.19530542706E+03  0.00000000000E+00 0.  1.
         12    1    6    6    0    0  0.49866186994E+02 -0.32450598355E+02  0.22397601267E+03  0.23174324626E+03  0.00000000000E+00 0. -1.
         -5    1    3    3    0  503  0.11423413336E+02 -0.20919548134E+02  0.18908287516E+03  0.19063720924E+03  0.47000000000E+01 0.  1.
         13    1    4    4    0    0 -0.33417728731E+02 -0.30991797311E+02  0.29152639834E+02  0.54102795708E+02  0.00000000000E+00 0. -1.
        -14    1    4    4    0    0 -0.74680392238E+01  0.48301842004E+02  0.45573374436E+02  0.66826431959E+02  0.00000000000E+00 0.  1.
</event>
<event>
12    1  0.8226261E-002  0.1767705E+03  0.7818608E-02  0.1172116E+00
         21   -1    0    0  501  502  0.00000000000E+00  0.00000000000E+00  0.31596069080E+03  0.31596069080E+03  0.00000000000E+00 0.  1.
         21   -1    0    0  502  503 -0.00000000000E+00 -0.00000000000E+00 -0.21877222339E+03  0.21877222339E+03  0.00000000000E+00 0.  1.
         -6    2    1    2    0  503 -0.17270253185E+02  0.35630152768E+02 -0.15168244845E+03  0.22947149540E+03  0.16757634858E+03 0.  0.
        -24    2    3    3    0    0 -0.25119902550E+02 -0.31114421261E+02 -0.12920269155E+03  0.15845118403E+03  0.82548927926E+02 0.  0.
          6    2    1    2  501    0  0.17270253185E+02 -0.35630152768E+02  0.24887091586E+03  0.30526141879E+03  0.17227893548E+03 0.  0.
         24    2    5    5    0    0 -0.32610589408E+02  0.44225283817E+01  0.21777962946E+03  0.23397976747E+03  0.78965532220E+02 0.  0.
          5    1    5    5  501    0  0.49880842593E+02 -0.40052681150E+02  0.31091286400E+02  0.71281651321E+02  0.47000000000E+01 0. -1.
        -13    1    6    6    0    0  0.74994479107E+00 -0.34089003408E+02  0.99942080563E+02  0.10559849449E+03  0.00000000000E+00 0.  1.
         14    1    6    6    0    0 -0.33360534199E+02  0.38511531790E+02  0.11783754890E+03  0.12838127299E+03  0.00000000000E+00 0. -1.
         -5    1    3    3    0  503  0.78496493650E+01  0.66744574029E+02 -0.22479756906E+02  0.71020311377E+02  0.47000000000E+01 0.  1.
         13    1    4    4    0    0 -0.61848100707E+01  0.22395016395E+02 -0.79247349879E+01  0.24547709864E+02  0.00000000000E+00 0. -1.
        -14    1    4    4    0    0 -0.18935092480E+02 -0.53509437656E+02 -0.12127795656E+03  0.13390347416E+03  0.00000000000E+00 0.  1.
</event>
<event>
12    1  0.8226261E-002  0.2293574E+03  0.7818608E-02  0.1127430E+00
         21   -1    0    0  501  502  0.00000000000E+00  0.00000000000E+00  0.10738802983E+03  0.10738802983E+03  0.00000000000E+00 0.  1.
         21   -1    0    0  502  503 -0.00000000000E+00 -0.00000000000E+00 -0.49478228986E+03  0.49478228986E+03  0.00000000000E+00 0.  1.
         -6    2    1    2    0  503  0.25184761519E+02  0.14661703557E+03 -0.15392739173E+03  0.27622177551E+03  0.17456803834E+03 0.  0.
        -24    2    3    3    0    0  0.16093465305E+02  0.28338423181E+02 -0.12798325640E+03  0.15469947314E+03  0.80561449943E+02 0.  0.
          6    2    1    2  501    0 -0.25184761519E+02 -0.14661703557E+03 -0.23346686830E+03  0.32594854417E+03  0.17206059260E+03 0.  0.
         24    2    5    5    0    0 -0.55731843140E+02 -0.10123644351E+03 -0.23298823816E+03  0.27104097259E+03  0.76320599214E+02 0.  0.
          5    1    5    5  501    0  0.30547081621E+02 -0.45380592054E+02 -0.47863013636E+00  0.54907571587E+02  0.47000000000E+01 0. -1.
        -11    1    6    6    0    0 -0.55907122223E+01 -0.77268089790E+02 -0.97032358015E+02  0.12416477868E+03  0.00000000000E+00 0.  1.
         12    1    6    6    0    0 -0.50141130918E+02 -0.23968353723E+02 -0.13595588015E+03  0.14687619391E+03  0.00000000000E+00 0. -1.
         -5    1    3    3    0  503  0.90912962141E+01  0.11827861239E+03 -0.25944135327E+02  0.12152230237E+03  0.47000000000E+01 0.  1.
         13    1    4    4    0    0  0.42335113172E+02  0.51579317760E+01 -0.34438870590E+02  0.54816985279E+02  0.00000000000E+00 0. -1.
        -14    1    4    4    0    0 -0.26241647868E+02  0.23180491405E+02 -0.93544385813E+02  0.99882487863E+02  0.00000000000E+00 0.  1.
</event>
<event>
12    1  0.8226261E-002  0.1806280E+03  0.7818608E-02  0.1167292E+00
         21   -1    0    0  501  502  0.00000000000E+00  0.00000000000E+00  0.17889627356E+04  0.17889627356E+04  0.00000000000E+00 0.  1.
         21   -1    0    0  502  503 -0.00000000000E+00 -0.00000000000E+00 -0.78522043121E+02  0.78522043121E+02  0.00000000000E+00 0. -1.
         -6    2    1    2    0  503  0.53207734491E+02  0.17427888169E+02  0.36581323473E+02  0.18390772999E+03  0.17131568996E+03 0.  0.
        -24    2    3    3    0    0  0.14854415018E+02  0.76500508716E+02  0.25054649768E+02  0.11238496565E+03  0.77004308638E+02 0.  0.
          6    2    1    2  501    0 -0.53207734491E+02 -0.17427888169E+02  0.16738593690E+04  0.16835770487E+04  0.17173146918E+03 0.  0.
         24    2    5    5    0    0 -0.37733636121E+01 -0.65618367629E+01  0.15041364702E+04  0.15064054357E+04  0.82301395105E+02 0.  0.
          5    1    5    5  501    0 -0.49434370879E+02 -0.10866051406E+02  0.16972289879E+03  0.17717161305E+03  0.47000000000E+01 0. -1.
        -11    1    6    6    0    0 -0.79381457190E+01  0.27170101290E+02  0.12069273814E+04  0.12072592649E+04  0.00000000000E+00 0.  1.
         12    1    6    6    0    0  0.41647821069E+01 -0.33731938053E+02  0.29720908880E+03  0.29914617082E+03  0.00000000000E+00 0. -1.
         -5    1    3    3    0  503  0.38353319473E+02 -0.59072620547E+02  0.11526673705E+02  0.71522764345E+02  0.47000000000E+01 0.  1.
         11    1    4    4    0    0  0.26101998348E+02  0.68279579785E+02 -0.10824654499E+02  0.73895794727E+02  0.00000000000E+00 0. -1.
        -12    1    4    4    0    0 -0.11247583331E+02  0.82209289311E+01  0.35879304267E+02  0.38489170918E+02  0.00000000000E+00 0.  1.
</event>
<event>
12    1  0.8226261E-002  0.2382913E+03  0.7818608E-02  0.1121024E+00
         21   -1    0    0  503  502  0.00000000000E+00  0.00000000000E+00  0.77550733732E+02  0.77550733732E+02  0.00000000000E+00 0. -1.
         21   -1    0    0  501  503 -0.00000000000E+00 -0.00000000000E+00 -0.13853089329E+04  0.13853089329E+04  0.00000000000E+00 0.  1.
          6    2    1    2  501    0  0.12820504170E+03  0.10149536581E+03 -0.11563341395E+04  0.11805265175E+04  0.17261626326E+03 0.  0.
         24    2    3    3    0    0  0.12082486939E+03  0.13886202456E+03 -0.88128183348E+03  0.90280976399E+03  0.67279187044E+02 0.  0.
         -6    2    1    2    0  502 -0.12820504170E+03 -0.10149536581E+03 -0.15142405972E+03  0.28233314919E+03  0.17333470301E+03 0.  0.
        -24    2    5    5    0    0 -0.15398049196E+03 -0.91904296416E+02 -0.91733288597E+02  0.21644353995E+03  0.79223848327E+02 0.  0.
          5    1    3    3  501    0  0.73801723118E+01 -0.37366658754E+02 -0.27505230602E+03  0.27771675350E+03  0.47000000000E+01 0. -1.
        -11    1    4    4    0    0  0.10540767749E+03  0.72881084562E+02 -0.56483160981E+03  0.57918665247E+03  0.00000000000E+00 0.  1.
         12    1    4    4    0    0  0.15417191900E+02  0.65980940002E+02 -0.31645022366E+03  0.32362311151E+03  0.00000000000E+00 0. -1.
         -5    1    5    5    0  502  0.25775450260E+02 -0.95910693939E+01 -0.59690771123E+02  0.65889609237E+02  0.47000000000E+01 0.  1.
         11    1    6    6    0    0 -0.79325437275E+02 -0.22992264556E+01 -0.39656585453E+02  0.88715591701E+02  0.00000000000E+00 0. -1.
        -12    1    6    6    0    0 -0.74655054688E+02 -0.89605069961E+02 -0.52076703143E+02  0.12772794825E+03  0.00000000000E+00 0.  1.
</event>
<event>
12    1  0.8226261E-002  0.1745941E+03  0.7818608E-02  0.1173189E+00
         21   -1    0    0  501  502  0.00000000000E+00  0.00000000000E+00  0.24370591983E+03  0.24370591983E+03  0.00000000000E+00 0. -1.
         21   -1    0    0  502  503 -0.00000000000E+00 -0.00000000000E+00 -0.19053131732E+03  0.19053131732E+03  0.00000000000E+00 0. -1.
         -6    2    1    2    0  503  0.11725234011E+02 -0.28097930462E+02 -0.10081227696E+03  0.20143891425E+03  0.17171938207E+03 0.  0.
        -24    2    3    3    0    0  0.66655581173E+02 -0.23951901342E+02 -0.25191234220E+02  0.10776306516E+03  0.77211526680E+02 0.  0.
          6    2    1    2  501    0 -0.11725234011E+02  0.28097930462E+02  0.15398687947E+03  0.23279832290E+03  0.17191894976E+03 0.  0.
         24    2    5    5    0    0 -0.70698722682E+02 -0.69465197910E+00  0.97758133625E+02  0.14624979877E+03  0.82665343526E+02 0.  0.
          5    1    5    5  501    0  0.58973488671E+02  0.28792582441E+02  0.56228745843E+02  0.86548524128E+02  0.47000000000E+01 0. -1.
        -13    1    6    6    0    0 -0.23032325289E+02 -0.38458947446E+02  0.24662617816E+02  0.51164669103E+02  0.00000000000E+00 0.  1.
         14    1    6    6    0    0 -0.47666397392E+02  0.37764295467E+02  0.73095515809E+02  0.95085129667E+02  0.00000000000E+00 0. -1.
         -5    1    3    3    0  503 -0.54930347162E+02 -0.41460291197E+01 -0.75621042738E+02  0.93675849084E+02  0.47000000000E+01 0.  1.
         11    1    4    4    0    0  0.58131288453E+02  0.41822808855E+01 -0.43857911658E+02  0.72940075306E+02  0.00000000000E+00 0. -1.
        -12    1    4    4    0    0  0.85242927200E+01 -0.28134182228E+02  0.18666677438E+02  0.34822989857E+02  0.00000000000E+00 0.  1.
</event>
<event>
12    1  0.8226261E-002  0.2155890E+03  0.7818608E-02  0.1137278E+00
         21   -1    0    0  501  502  0.00000000000E+00  0.00000000000E+00  0.26039475168E+03  0.26039475168E+03  0.00000000000E+00 0. -1.
         21   -1    0    0  502  503 -0.00000000000E+00 -0.00000000000E+00 -0.25862071395E+03  0.25862071395E+03  0.00000000000E+00 0. -1.
         -6    2    1    2    0  503  0.75940379185E+02 -0.10498034535E+03 -0.14380630298E+03  0.25915032350E+03  0.17231025301E+03 0.  0.
        -24    2    3    3    0    0  0.11427989982E+03 -0.61276110095E+02 -0.73878505816E+02  0.16809009158E+03  0.77340727262E+02 0.  0.
          6    2    1    2  501    0 -0.75940379185E+02  0.10498034535E+03  0.14558034072E+03  0.25986514213E+03  0.17189660377E+03 0.  0.
         24    2    5    5    0    0 -0.83370158810E+02  0.16430052169E+02  0.44727999719E+02  0.12536740708E+03  0.80596915601E+02 0.  0.
          5    1    5    5  501    0  0.74297796252E+01  0.88550293184E+02  0.10085234100E+03  0.13449773505E+03  0.47000000000E+01 0. -1.
        -13    1    6    6    0    0  0.76641748155E+01  0.11490291818E+02 -0.11740731249E+02  0.18127635034E+02  0.00000000000E+00 0.  1.
         14    1    6    6    0    0 -0.91034333625E+02  0.49397603511E+01  0.56468730968E+02  0.10723977204E+03  0.00000000000E+00 0. -1.
         -5    1    3    3    0  503 -0.38339520636E+02 -0.43704235259E+02 -0.69927797163E+02  0.91060231925E+02  0.47000000000E+01 0.  1.
         13    1    4    4    0    0  0.70612478462E+02 -0.63570085704E+02 -0.17285204555E+02  0.96571508259E+02  0.00000000000E+00 0. -1.
        -14    1    4    4    0    0  0.43667421359E+02  0.22939756090E+01 -0.56593301261E+02  0.71518583318E+02  0.00000000000E+00 0.  1.
</event>
<event>
12    1  0.8226261E-002  0.2583607E+03  0.7818608E-02  0.1108558E+00
         21   -1    0    0  503  502  0.00000000000E+00  0.00000000000E+00  0.69234678910E+03  0.69234678910E+03  0.00000000000E+00 0. -1.
         21   -1    0    0  501  503 -0.00000000000E+00 -0.00000000000E+00 -0.10108826314E+03  0.10108826314E+03  0.00000000000E+00 0.  1.
          6    2    1    2  501    0 -0.33843318879E+02 -0.18671372717E+03  0.39150009129E+03  0.46906566141E+03  0.17533649673E+03 0.  0.
         24    2    3    3    0    0  0.44207689255E+02 -0.85428315360E+02  0.21572878659E+03  0.25165283733E+03  0.86821220446E+02 0.  0.
         -6    2    1    2    0  502  0.33843318879E+02  0.18671372717E+03  0.19975843467E+03  0.32436939083E+03  0.17118610732E+03 0.  0.
        -24    2    5    5    0    0  0.87114301672E+02  0.14992741678E+03  0.15443632508E+03  0.24520365420E+03  0.78785288398E+02 0.  0.
          5    1    3    3  501    0 -0.78051008134E+02 -0.10128541181E+03  0.17577130470E+03  0.21741282408E+03  0.47000000000E+01 0. -1.
        -13    1    4    4    0    0  0.52910736346E+02 -0.20842392555E+02  0.59147854212E+02  0.82051325437E+02  0.00000000000E+00 0.  1.
         14    1    4    4    0    0 -0.87030470905E+01 -0.64585922804E+02  0.15658093238E+03  0.16960151190E+03  0.00000000000E+00 0. -1.
         -5    1    5    5    0  502 -0.53270982792E+02  0.36786310393E+02  0.45322109587E+02  0.79165736637E+02  0.47000000000E+01 0.  1.
         11    1    6    6    0    0  0.22862242334E+01  0.22505851758E+00  0.36563680463E+02  0.36635777616E+02  0.00000000000E+00 0. -1.
        -12    1    6    6    0    0  0.84828077438E+02  0.14970235826E+03  0.11787264462E+03  0.20856787658E+03  0.00000000000E+00 0.  1.
</event>
<event>
12    1  0.8226261E-002  0.1993163E+03  0.7818608E-02  0.1150673E+00
         21   -1    0    0  501  502  0.00000000000E+00  0.00000000000E+00  0.15691691681E+03  0.15691691681E+03  0.00000000000E+00 0. -1.
         21   -1    0    0  502  503 -0.00000000000E+00 -0.00000000000E+00 -0.32844616133E+03  0.32844616133E+03  0.00000000000E+00 0. -1.
         -6    2    1    2    0  503 -0.66308659253E+01  0.99493173911E+02 -0.20329061410E+03  0.28353207446E+03  0.17064730713E+03 0.  0.
        -24    2    3    3    0    0 -0.45311062419E+02  0.49633166147E+02 -0.47620521716E+02  0.11549206245E+03  0.80957759605E+02 0.  0.
          6    2    1    2  501    0  0.66308659253E+01 -0.99493173911E+02  0.31761369574E+02  0.20183100368E+03  0.17258073303E+03 0.  0.
         24    2    5    5    0    0 -0.76737334905E+01 -0.13494676377E+03  0.40878823831E+02  0.16224822244E+03  0.79899262895E+02 0.  0.
          5    1    5    5  501    0  0.14304599416E+02  0.35453589858E+02 -0.91174542576E+01  0.39582781236E+02  0.47000000000E+01 0. -1.
        -13    1    6    6    0    0  0.28953133418E+02 -0.20611493983E+02  0.37833898601E+00  0.35542379765E+02  0.00000000000E+00 0.  1.
         14    1    6    6    0    0 -0.36626866909E+02 -0.11433526979E+03  0.40500484845E+02  0.12670584268E+03  0.00000000000E+00 0. -1.
         -5    1    3    3    0  503  0.38680196494E+02  0.49860007764E+02 -0.15567009238E+03  0.16804001201E+03  0.47000000000E+01 0.  1.
         13    1    4    4    0    0  0.13335273942E+02  0.19615752184E+02 -0.43419994375E+02  0.49476289032E+02  0.00000000000E+00 0. -1.
        -14    1    4    4    0    0 -0.58646336361E+02  0.30017413964E+02 -0.42005273412E+01  0.66015773415E+02  0.00000000000E+00 0.  1.
</event>
<event>
12    1  0.8226261E-002  0.1816919E+03  0.7818608E-02  0.1166226E+00
         21   -1    0    0  501  502  0.00000000000E+00  0.00000000000E+00  0.65709374569E+03  0.65709374569E+03  0.00000000000E+00 0.  1.
         21   -1    0    0  502  503 -0.00000000000E+00 -0.00000000000E+00 -0.13082057436E+03  0.13082057436E+03  0.00000000000E+00 0.  1.
         -6    2    1    2    0  503  0.23242193933E+02  0.53646213334E+02 -0.46226194955E+02  0.18727511417E+03  0.17180509744E+03 0.  0.
        -24    2    3    3    0    0  0.74142657206E+01  0.33239364541E+02  0.42436570125E+02  0.94808154126E+02  0.77639531900E+02 0.  0.
          6    2    1    2  501    0 -0.23242193933E+02 -0.53646213334E+02  0.57249936628E+03  0.60063920588E+03  0.17202853095E+03 0.  0.
         24    2    5    5    0    0  0.43719320538E+02 -0.57317613336E+02  0.44027807953E+03  0.45230889114E+03  0.74443655934E+02 0.  0.
          5    1    5    5  501    0 -0.66961514471E+02  0.36714000024E+01  0.13222128675E+03  0.14833031473E+03  0.47000000000E+01 0. -1.
        -13    1    6    6    0    0  0.30394927821E+02 -0.72160792935E+02  0.27823564456E+03  0.28904343200E+03  0.00000000000E+00 0.  1.
         14    1    6    6    0    0  0.13324392717E+02  0.14843179599E+02  0.16204243496E+03  0.16326545915E+03  0.00000000000E+00 0. -1.
         -5    1    3    3    0  503  0.15827928212E+02  0.20406848792E+02 -0.88662765079E+02  0.92466960048E+02  0.47000000000E+01 0.  1.
         13    1    4    4    0    0  0.16309549502E+02  0.56497128658E+02  0.36494472932E+02  0.69208189589E+02  0.00000000000E+00 0. -1.
        -14    1    4    4    0    0 -0.88952837813E+01 -0.23257764117E+02  0.59420971928E+01  0.25599964538E+02  0.00000000000E+00 0.  1.
</event>
<event>
12    1  0.8226261E-002  0.1823942E+03  0.7818608E-02  0.1165993E+00
         21   -1    0    0  503  502  0.00000000000E+00  0.00000000000E+00  0.47372310320E+02  0.47372310320E+02  0.00000000000E+00 0.  1.
         21   -1    0    0  501  503 -0.00000000000E+00 -0.00000000000E+00 -0.91504943767E+03  0.91504943767E+03  0.00000000000E+00 0.  1.
          6    2    1    2  501    0  0.79063418034E+01  0.60100738227E+02 -0.66826691560E+03  0.69217729690E+03  0.16986503728E+03 0.  0.
         24    2    3    3    0    0  0.55765483765E+02  0.50125266350E+02 -0.58855139628E+03  0.59854684497E+03  0.79014226941E+02 0.  0.
         -6    2    1    2    0  502 -0.79063418034E+01 -0.60100738227E+02 -0.19941021175E+03  0.27024445109E+03  0.17202622421E+03 0.  0.
        -24    2    5    5    0    0  0.13022018453E+02  0.14312986804E+02 -0.16706873167E+03  0.18631912672E+03  0.80177436500E+02 0.  0.
          5    1    3    3  501    0 -0.47859141962E+02  0.99754718778E+01 -0.79715519316E+02  0.93630451928E+02  0.47000000000E+01 0. -1.
        -13    1    4    4    0    0  0.22617402489E+02 -0.13313552313E+02 -0.30401327994E+03  0.30514401837E+03  0.00000000000E+00 0.  1.
         14    1    4    4    0    0  0.33148081276E+02  0.63438818663E+02 -0.28453811634E+03  0.29340282660E+03  0.00000000000E+00 0. -1.
         -5    1    5    5    0  502 -0.20928360257E+02 -0.74413725031E+02 -0.32341480080E+02  0.83925324365E+02  0.47000000000E+01 0.  1.
         13    1    6    6    0    0  0.30609632463E+02  0.31123920606E+02 -0.48384237207E+02  0.65166574588E+02  0.00000000000E+00 0. -1.
        -14    1    6    6    0    0 -0.17587614010E+02 -0.16810933803E+02 -0.11868449447E+03  0.12115255213E+03  0.00000000000E+00 0.  1.
</event>
<event>
12    1  0.8226261E-002  0.2383226E+03  0.7818608E-02  0.1121001E+00
         21   -1    0    0  501  502  0.00000000000E+00  0.00000000000E+00  0.22366163524E+02  0.22366163524E+02  0.00000000000E+00 0. -1.
         21   -1    0    0  502  503 -0.00000000000E+00 -0.00000000000E+00 -0.26822095710E+04  0.26822095710E+04  0.00000000000E+00 0. -1.
         -6    2    1    2    0  503 -0.71644649714E+02 -0.14795018365E+03 -0.16464502382E+04  0.16635361745E+04  0.17184878394E+03 0.  0.
        -24    2    3    3    0    0 -0.65955171370E+02 -0.15075794681E+03 -0.16454404123E+04  0.16555760586E+04  0.79874227042E+02 0.  0.
          6    2    1    2  501    0  0.71644649714E+02  0.14795018365E+03 -0.10133931693E+04  0.10410395600E+04  0.17255560610E+03 0.  0.
         24    2    5    5    0    0  0.36603890362E+01  0.15916028020E+02 -0.57098963600E+03  0.57435138334E+03  0.59863417199E+02 0.  0.
          5    1    5    5  501    0  0.67984260678E+02  0.13203415563E+03 -0.44240353329E+03  0.46668817664E+03  0.47000000000E+01 0. -1.
        -11    1    6    6    0    0 -0.16122468086E+02  0.32135495677E+02 -0.36926056915E+03  0.37100672769E+03  0.00000000000E+00 0.  1.
         12    1    6    6    0    0  0.19782857122E+02 -0.16219467656E+02 -0.20172906685E+03  0.20334465565E+03  0.00000000000E+00 0. -1.
         -5    1    3    3    0  503 -0.56894783447E+01  0.28077631668E+01 -0.10098258752E+01  0.79601159623E+01  0.47000000000E+01 0.  1.
         11    1    4    4    0    0 -0.69500103672E+02 -0.67733684040E+02 -0.10275542758E+04  0.10321268847E+04  0.00000000000E+00 0. -1.
        -12    1    4    4    0    0  0.35449323024E+01 -0.83024262773E+02 -0.61788613649E+03  0.62344917388E+03  0.00000000000E+00 0.  1.
</event>
<event>
12    1  0.8226261E-002  0.1789497E+03  0.7818608E-02  0.1169010E+00
         21   -1    0    0  503  502  0.00000000000E+00  0.00000000000E+00  0.85877408765E+02  0.85877408765E+02  0.00000000000E+00 0.  1.
         21   -1    0    0  501  503 -0.00000000000E+00 -0.00000000000E+00 -0.17861581124E+04  0.17861581124E+04  0.00000000000E+00 0.  1.
          6    2    1    2  501    0 -0.22587519126E+02 -0.35425889832E+02 -0.16828295402E+04  0.16922369381E+04  0.17316293982E+03 0.  0.
         24    2    3    3    0    0 -0.58164360113E+02 -0.32495744352E+02 -0.15776645999E+04  0.15810791582E+04  0.79665855909E+02 0.  0.
         -6    2    1    2    0  502  0.22587519126E+02  0.35425889832E+02 -0.17451163425E+02  0.17979858302E+03  0.17394768656E+03 0.  0.
        -24    2    5    5    0    0 -0.26496273121E+02  0.52178744506E+02 -0.56038412288E+02  0.11498390431E+03  0.81586277839E+02 0.  0.
          5    1    3    3  501    0  0.35576840987E+02 -0.29301454799E+01 -0.10516494033E+03  0.11115777994E+03  0.47000000000E+01 0. -1.
        -13    1    4    4    0    0 -0.50210061444E+02  0.90640685850E+01 -0.50282087626E+03  0.50540285042E+03  0.00000000000E+00 0.  1.
         14    1    4    4    0    0 -0.79542986690E+01 -0.41559812937E+02 -0.10748437236E+04  0.10756763078E+04  0.00000000000E+00 0. -1.
         -5    1    5    5    0  502  0.49083792247E+02 -0.16752854674E+02  0.38587248864E+02  0.64814678708E+02  0.47000000000E+01 0.  1.
         11    1    6    6    0    0  0.25439078914E+02  0.17539697234E+02 -0.39971515203E+02  0.50522368736E+02  0.00000000000E+00 0. -1.
        -12    1    6    6    0    0 -0.51935352035E+02  0.34639047273E+02 -0.16066897085E+02  0.64461535577E+02  0.00000000000E+00 0.  1.
</event>
<event>
12    1  0.8226261E-002  0.2571806E+03  0.7818608E-02  0.1109031E+00
         21   -1    0    0  503  502  0.00000000000E+00  0.00000000000E+00  0.46199655246E+03  0.46199655246E+03  0.00000000000E+00 0. -1.
         21   -1    0    0  501  503 -0.00000000000E+00 -0.00000000000E+00 -0.14496556050E+03  0.14496556050E+03  0.00000000000E+00 0.  1.
          6    2    1    2  501    0 -0.99256367808E+02  0.16194000739E+03  0.19843084750E+03  0.32483330582E+03  0.17339401025E+03 0.  0.
         24    2    3    3    0    0  0.12303780478E+02  0.19101061774E+02  0.12657875991E+02  0.65252262580E+02  0.59844819093E+02 0.  0.
         -6    2    1    2    0  502  0.99256367808E+02 -0.16194000739E+03  0.11860014446E+03  0.28212880713E+03  0.17162248397E+03 0.  0.
        -24    2    5    5    0    0  0.29121806886E+02 -0.56995451163E+02  0.11722375708E+03  0.15581095028E+03  0.80243890198E+02 0.  0.
          5    1    3    3  501    0 -0.11156014829E+03  0.14283894561E+03  0.18577297151E+03  0.25958104324E+03  0.47000000000E+01 0. -1.
        -13    1    4    4    0    0 -0.43305698749E+01  0.84803463964E+01 -0.22779649503E+02  0.24689725432E+02  0.00000000000E+00 0.  1.
         14    1    4    4    0    0  0.16634350353E+02  0.10620715377E+02  0.35437525493E+02  0.40562537148E+02  0.00000000000E+00 0. -1.
         -5    1    5    5    0  502  0.70134560922E+02 -0.10494455622E+03  0.13763873794E+01  0.12631785685E+03  0.47000000000E+01 0.  1.
         13    1    6    6    0    0 -0.53836278330E+01 -0.32688503669E+02  0.10751244590E+03  0.11250087886E+03  0.00000000000E+00 0. -1.
        -14    1    6    6    0    0  0.34505434719E+02 -0.24306947494E+02  0.97113111784E+01  0.43310071420E+02  0.00000000000E+00 0.  1.
</event>
<event>
12    1  0.8226261E-002  0.1830584E+03  0.7818608E-02  0.1165044E+00
         21   -1    0    0  503  502  0.00000000000E+00  0.00000000000E+00  0.52376411700E+03  0.52376411700E+03  0.00000000000E+00 0.  1.
         21   -1    0    0  501  503 -0.00000000000E+00 -0.00000000000E+00 -0.69613947586E+02  0.69613947586E+02  0.00000000000E+00 0.  1.
          6    2    1    2  501    0  0.50102787467E+02 -0.35847171799E+02  0.14123639263E+03  0.23121007800E+03  0.17238060369E+03 0.  0.
         24    2    3    3    0    0  0.43939413647E+02  0.40095719562E+02  0.46747593898E+02  0.10973772307E+03  0.79490197708E+02 0.  0.
         -6    2    1    2    0  502 -0.50102787467E+02  0.35847171799E+02  0.31291377678E+03  0.36216798659E+03  0.17162549277E+03 0.  0.
        -24    2    5    5    0    0 -0.93149932096E+02  0.29645600919E+02  0.17042653768E+03  0.21311692335E+03  0.82570253556E+02 0.  0.
          5    1    3    3  501    0  0.61633738202E+01 -0.75942891361E+02  0.94488798730E+02  0.12147235492E+03  0.47000000000E+01 0. -1.
        -11    1    4    4    0    0  0.29488616421E+02 -0.14205746345E+02 -0.52843134559E+01  0.33155779230E+02  0.00000000000E+00 0.  1.
         12    1    4    4    0    0  0.14450797225E+02  0.54301465907E+02  0.52031907354E+02  0.76581943844E+02  0.00000000000E+00 0. -1.
         -5    1    5    5    0  502  0.43047144629E+02  0.62015708801E+01  0.14248723911E+03  0.14905106323E+03  0.47000000000E+01 0.  1.
         13    1    6    6    0    0 -0.26887049411E+02  0.48721339953E+02  0.52466049647E+02  0.76481166037E+02  0.00000000000E+00 0. -1.
        -14    1    6    6    0    0 -0.66262882685E+02 -0.19075739034E+02  0.11796048803E+03  0.13663575732E+03  0.00000000000E+00 0.  1.
</event>
<event>
12    1  0.8226261E-002  0.1757084E+03  0.7818608E-02  0.1172118E+00
         21   -1    0    0  503  502  0.00000000000E+00  0.00000000000E+00  0.20348435420E+03  0.20348435420E+03  0.00000000000E+00 0. -1.
         21   -1    0    0  501  503 -0.00000000000E+00 -0.00000000000E+00 -0.25751290481E+03  0.25751290481E+03  0.00000000000E+00 0. -1.
          6    2    1    2  501    0  0.32399713192E+02  0.12058328697E+02 -0.17496436203E+03  0.24769253525E+03  0.17188344693E+03 0.  0.
         24    2    3    3    0    0  0.67340891757E+02 -0.85714721012E+01 -0.17891737473E+03  0.20665363967E+03  0.78013037196E+02 0.  0.
         -6    2    1    2    0  502 -0.32399713192E+02 -0.12058328697E+02  0.12093581142E+03  0.21330472377E+03  0.17227388075E+03 0.  0.
        -24    2    5    5    0    0  0.21984655778E+02 -0.16188555527E+02  0.13285812220E+03  0.15727839196E+03  0.79622971071E+02 0.  0.
          5    1    3    3  501    0 -0.34941178565E+02  0.20629800798E+02  0.39530127000E+01  0.41038895573E+02  0.47000000000E+01 0. -1.
        -13    1    4    4    0    0  0.32902511230E+02 -0.39724526773E+02 -0.60781827609E+02  0.79718528838E+02  0.00000000000E+00 0.  1.
         14    1    4    4    0    0  0.34438380526E+02  0.31153054672E+02 -0.11813554713E+03  0.12693511084E+03  0.00000000000E+00 0. -1.
         -5    1    5    5    0  502 -0.54384368969E+02  0.41302268299E+01 -0.11922310775E+02  0.56026331810E+02  0.47000000000E+01 0.  1.
         11    1    6    6    0    0 -0.21457014231E+02 -0.21075620794E+02  0.19658973199E+02  0.35931330045E+02  0.00000000000E+00 0. -1.
        -12    1    6    6    0    0  0.43441670009E+02  0.48870652674E+01  0.11319914900E+03  0.12134706191E+03  0.00000000000E+00 0.  1.
</event>
<event>
12    1  0.8226261E-002  0.2425087E+03  0.7818608E-02  0.1118236E+00
         21   -1    0    0  503  502  0.00000000000E+00  0.00000000000E+00  0.12332393608E+04  0.12332393608E+04  0.00000000000E+00 0. -1.
         21   -1    0    0  501  503 -0.00000000000E+00 -0.00000000000E+00 -0.91784435724E+02  0.91784435724E+02  0.00000000000E+00 0.  1.
          6    2    1    2  501    0 -0.57555880724E+02  0.16030625524E+03  0.11049149313E+03  0.26592226856E+03  0.17174256312E+03 0.  0.
         24    2    3    3    0    0 -0.53248235568E+02  0.87978998019E+02  0.13571723381E+03  0.18905734850E+03  0.82145205497E+02 0.  0.
         -6    2    1    2    0  502  0.57555880724E+02 -0.16030625524E+03  0.10309634320E+04  0.10591015280E+04  0.17262581976E+03 0.  0.
        -24    2    5    5    0    0  0.75634335336E+02 -0.17801212359E+03  0.83018779009E+03  0.85668295999E+03  0.85352553015E+02 0.  0.
          5    1    3    3  501    0 -0.43076451567E+01  0.72327257223E+02 -0.25225740674E+02  0.76864920065E+02  0.47000000000E+01 0. -1.
        -11    1    4    4    0    0  0.15450415577E+02  0.51519865523E+02  0.58261632412E+02  0.79293314323E+02  0.00000000000E+00 0.  1.
         12    1    4    4    0    0 -0.68698651144E+02  0.36459132496E+02  0.77455601394E+02  0.10976403418E+03  0.00000000000E+00 0. -1.
         -5    1    5    5    0  502 -0.18078454612E+02  0.17705868348E+02  0.20077564190E+03  0.20241856801E+03  0.47000000000E+01 0.  1.
         13    1    6    6    0    0  0.79662364496E+02 -0.10784718044E+03  0.64076393912E+03  0.65464152963E+03  0.00000000000E+00 0. -1.
        -14    1    6    6    0    0 -0.40280291600E+01 -0.70164943150E+02  0.18942385097E+03  0.20204143036E+03  0.00000000000E+00 0.  1.
</event>
<event>
12    1  0.8226261E-002  0.1810446E+03  0.7818608E-02  0.1168310E+00
         21   -1    0    0  501  502  0.00000000000E+00  0.00000000000E+00  0.96939405220E+02  0.96939405220E+02  0.00000000000E+00 0.  1.
         21   -1    0    0  502  503 -0.00000000000E+00 -0.00000000000E+00 -0.76180031194E+03  0.76180031194E+03  0.00000000000E+00 0.  1.
         -6    2    1    2    0  503  0.24748103430E+02  0.15439131844E+02 -0.65939778438E+03  0.68380009447E+03  0.17867930976E+03 0.  0.
        -24    2    3    3    0    0 -0.19151302814E+02  0.72137978395E+02 -0.38589829380E+03  0.40101753063E+03  0.79541853025E+02 0.  0.
          6    2    1    2  501    0 -0.24748103430E+02 -0.15439131844E+02 -0.54631223448E+01  0.17493962269E+03  0.17240414864E+03 0.  0.
         24    2    5    5    0    0 -0.42191501917E+02  0.51024958287E+02  0.12963515377E+01  0.10573320742E+03  0.82426703331E+02 0.  0.
          5    1    5    5  501    0  0.17443398487E+02 -0.66464090131E+02 -0.67594738825E+01  0.69206415273E+02  0.47000000000E+01 0. -1.
        -13    1    6    6    0    0  0.23174600908E+02  0.21563373414E+02 -0.98966656421E+01  0.33166024650E+02  0.00000000000E+00 0.  1.
         14    1    6    6    0    0 -0.65366102825E+02  0.29461584873E+02  0.11193017180E+02  0.72567182771E+02  0.00000000000E+00 0. -1.
         -5    1    3    3    0  503  0.43899406244E+02 -0.56698846551E+02 -0.27349949057E+03  0.28278256384E+03  0.47000000000E+01 0.  1.
         11    1    4    4    0    0 -0.16516868373E+02 -0.13213119343E+02 -0.47234558951E+02  0.51754198119E+02  0.00000000000E+00 0. -1.
        -12    1    4    4    0    0 -0.26344344415E+01  0.85351097738E+02 -0.33866373485E+03  0.34926333251E+03  0.00000000000E+00 0.  1.
</event>
<event>
12    1  0.8226261E-002  0.3445402E+03  0.7818608E-02  0.1064898E+00
         21   -1    0    0  503  502  0.00000000000E+00  0.00000000000E+00  0.22102343024E+03  0.22102343024E+03  0.00000000000E+00 0.  1.
         21   -1    0    0  501  503 -0.00000000000E+00 -0.00000000000E+00 -0.53693994785E+03  0.53693994785E+03  0.00000000000E+00 0. -1.
          6    2    1    2  501    0  0.27137204455E+03  0.12374834959E+03 -0.16430114312E+03  0.38153915654E+03  0.17210700671E+03 0.  0.
         24    2    3    3    0    0  0.22336035679E+03  0.13167732434E+03 -0.79994092926E+02  0.28408270723E+03  0.84113987600E+02 0.  0.
         -6    2    1    2    0  502 -0.27137204455E+03 -0.12374834959E+03 -0.15161537449E+03  0.37642422155E+03  0.17248632468E+03 0.  0.
        -24    2    5    5    0    0 -0.13473240659E+03 -0.17787354930E+02 -0.12077872129E+03  0.20072245084E+03  0.85045819263E+02 0.  0.
          5    1    3    3  501    0  0.48011687752E+02 -0.79289747520E+01 -0.84307050190E+02  0.97456449315E+02  0.47000000000E+01 0. -1.
        -13    1    4    4    0    0  0.74840925071E+02  0.64734551564E+02 -0.69332484101E+02  0.12082516122E+03  0.00000000000E+00 0.  1.
         14    1    4    4    0    0  0.14851943172E+03  0.66942772774E+02 -0.10661608825E+02  0.16325754601E+03  0.00000000000E+00 0. -1.
         -5    1    5    5    0  502 -0.13663963796E+03 -0.10596099466E+03 -0.30836653197E+02  0.17570177071E+03  0.47000000000E+01 0.  1.
         13    1    6    6    0    0 -0.11439061906E+02  0.13658009166E+02  0.81398360657E+01  0.19586992695E+02  0.00000000000E+00 0. -1.
        -14    1    6    6    0    0 -0.12329334468E+03 -0.31445364096E+02 -0.12891855736E+03  0.18113545815E+03  0.00000000000E+00 0.  1.
</event>
<event>
12    1  0.8226261E-002  0.2831428E+03  0.7818608E-02  0.1094055E+00
         21   -1    0    0  501  502  0.00000000000E+00  0.00000000000E+00  0.33844751255E+03  0.33844751255E+03  0.00000000000E+00 0. -1.
         21   -1    0    0  502  503 -0.00000000000E+00 -0.00000000000E+00 -0.54785190599E+03  0.54785190599E+03  0.00000000000E+00 0.  1.
         -6    2    1    2    0  503  0.83380125051E+02  0.20821498513E+03 -0.43876998243E+03  0.52191168122E+03  0.17195051680E+03 0.  0.
        -24    2    3    3    0    0  0.49716857103E+02  0.18491398145E+03 -0.23156179956E+03  0.31064532462E+03  0.78833395700E+02 0.  0.
          6    2    1    2  501    0 -0.83380125051E+02 -0.20821498513E+03  0.22936558900E+03  0.36438773732E+03  0.17281239658E+03 0.  0.
         24    2    5    5    0    0 -0.54638683795E+02 -0.27352140058E+02  0.82938601072E+02  0.12986611366E+03  0.79075094670E+02 0.  0.
          5    1    5    5  501    0 -0.28741441256E+02 -0.18086284507E+03  0.14642698792E+03  0.23452162366E+03  0.47000000000E+01 0. -1.
        -13    1    6    6    0    0 -0.28256609018E+01 -0.33371422747E+02  0.19679857359E+01  0.33548609264E+02  0.00000000000E+00 0.  1.
         14    1    6    6    0    0 -0.51813022894E+02  0.60192826891E+01  0.80970615336E+02  0.96317504398E+02  0.00000000000E+00 0. -1.
         -5    1    3    3    0  503  0.33663267949E+02  0.23301003677E+02 -0.20720818288E+03  0.21126635660E+03  0.47000000000E+01 0.  1.
         11    1    4    4    0    0 -0.15646254804E+02  0.49835090809E+02 -0.33105345148E+02  0.61840968966E+02  0.00000000000E+00 0. -1.
        -12    1    4    4    0    0  0.65363111907E+02  0.13507889064E+03 -0.19845645441E+03  0.24880435565E+03  0.00000000000E+00 0.  1.
</event>
<event>
12    1  0.8226261E-002  0.2041548E+03  0.7818608E-02  0.1146573E+00
         21   -1    0    0  501  502  0.00000000000E+00  0.00000000000E+00  0.18158066367E+03  0.18158066367E+03  0.00000000000E+00 0. -1.
         21   -1    0    0  502  503 -0.00000000000E+00 -0.00000000000E+00 -0.22941766522E+03  0.22941766522E+03  0.00000000000E+00 0. -1.
         -6    2    1    2    0  503  0.98502119776E+02  0.43342477065E+02 -0.40494050772E+02  0.20813204643E+03  0.17348758654E+03 0.  0.
        -24    2    3    3    0    0  0.12486856843E+03  0.66518341557E+02 -0.14188643724E+02  0.16401430907E+03  0.81746723617E+02 0.  0.
          6    2    1    2  501    0 -0.98502119776E+02 -0.43342477065E+02 -0.73429507734E+01  0.20286628246E+03  0.17181260640E+03 0.  0.
         24    2    5    5    0    0 -0.77272659919E+02 -0.68882210655E+02  0.46549908227E+02  0.13938795381E+03  0.80909114414E+02 0.  0.
          5    1    5    5  501    0 -0.21229459858E+02  0.25539733591E+02 -0.53892859001E+02  0.63478328656E+02  0.47000000000E+01 0. -1.
        -13    1    6    6    0    0 -0.91323922168E+01  0.12123557331E+02  0.28101399826E+02  0.31938533187E+02  0.00000000000E+00 0.  1.
         14    1    6    6    0    0 -0.68140267702E+02 -0.81005767987E+02  0.18448508402E+02  0.10744942062E+03  0.00000000000E+00 0. -1.
         -5    1    3    3    0  503 -0.26366448658E+02 -0.23175864492E+02 -0.26305407048E+02  0.44117737360E+02  0.47000000000E+01 0.  1.
         13    1    4    4    0    0  0.13639399801E+03  0.56048300385E+02 -0.16052478504E+02  0.14833211633E+03  0.00000000000E+00 0. -1.
        -14    1    4    4    0    0 -0.11525429574E+02  0.10470041173E+02  0.18638347808E+01  0.15682192739E+02  0.00000000000E+00 0.  1.
</event>
<event>
12    1  0.8226261E-002  0.2198925E+03  0.7818608E-02  0.1134113E+00
         21   -1    0    0  503  502  0.00000000000E+00  0.00000000000E+00  0.95854356469E+02  0.95854356469E+02  0.00000000000E+00 0.  1.
         21   -1    0    0  501  503 -0.00000000000E+00 -0.00000000000E+00 -0.74019920087E+03  0.74019920087E+03  0.00000000000E+00 0. -1.
          6    2    1    2  501    0  0.52996068456E+02 -0.12454617594E+03 -0.55860923755E+03  0.60003805628E+03  0.17228190703E+03 0.  0.
         24    2    3    3    0    0 -0.24140879449E+02 -0.50866972551E+02 -0.15711593141E+03  0.18458926446E+03  0.78851440666E+02 0.  0.
         -6    2    1    2    0  502 -0.52996068456E+02  0.12454617594E+03 -0.85735606851E+02  0.23601550106E+03  0.17329855524E+03 0.  0.
        -24    2    5    5    0    0 -0.19781724302E+02  0.11213432198E+02 -0.79516390465E+02  0.11765895450E+03  0.83688204332E+02 0.  0.
          5    1    3    3  501    0  0.77136947906E+02 -0.73679203385E+02 -0.40149330614E+03  0.41544879182E+03  0.47000000000E+01 0. -1.
        -11    1    4    4    0    0 -0.36529061420E+02 -0.51058593853E+02 -0.60516776493E+02  0.87198810609E+02  0.00000000000E+00 0.  1.
         12    1    4    4    0    0  0.12388181971E+02  0.19162130197E+00 -0.96599154919E+02  0.97390453856E+02  0.00000000000E+00 0. -1.
         -5    1    5    5    0  502 -0.33214344155E+02  0.11333274374E+03 -0.62192163857E+01  0.11835654656E+03  0.47000000000E+01 0.  1.
         11    1    6    6    0    0  0.22650052279E+01 -0.35210143918E+02 -0.34275413010E+02  0.49190328525E+02  0.00000000000E+00 0. -1.
        -12    1    6    6    0    0 -0.22046729529E+02  0.46423576116E+02 -0.45240977455E+02  0.68468625979E+02  0.00000000000E+00 0.  1.
</event>
<event>
12    1  0.8226261E-002  0.2234441E+03  0.7818608E-02  0.1131469E+00
         21   -1    0    0  501  502  0.00000000000E+00  0.00000000000E+00  0.67375498474E+03  0.67375498474E+03  0.00000000000E+00 0.  1.
         21   -1    0    0  502  503 -0.00000000000E+00 -0.00000000000E+00 -0.78861853489E+02  0.78861853489E+02  0.00000000000E+00 0. -1.
         -6    2    1    2    0  503 -0.90173371822E+02 -0.10952848001E+03  0.39168000349E+03  0.45058567747E+03  0.17171634367E+03 0.  0.
        -24    2    3    3    0    0 -0.17824309806E+02 -0.69539363447E+02  0.10187105735E+03  0.14918091393E+03  0.81998802841E+02 0.  0.
          6    2    1    2  501    0  0.90173371822E+02  0.10952848001E+03  0.20321312776E+03  0.30203116077E+03  0.17262538011E+03 0.  0.
         24    2    5    5    0    0  0.69354698367E+02  0.11741274290E+03  0.81311525810E+02  0.17802442980E+03  0.80531403783E+02 0.  0.
          5    1    5    5  501    0  0.20818673455E+02 -0.78842628884E+01  0.12190160195E+03  0.12400673097E+03  0.47000000000E+01 0. -1.
        -13    1    6    6    0    0  0.10856840983E+02  0.49956197168E+02  0.71927699514E+02  0.88244470586E+02  0.00000000000E+00 0.  1.
         14    1    6    6    0    0  0.58497857384E+02  0.67456545732E+02  0.93838262963E+01  0.89779959214E+02  0.00000000000E+00 0. -1.
         -5    1    3    3    0  503 -0.72349062016E+02 -0.39989116565E+02  0.28980894614E+03  0.30140476353E+03  0.47000000000E+01 0.  1.
         11    1    4    4    0    0  0.21751802658E+02 -0.13938924614E+02  0.68503912690E+02  0.73213527384E+02  0.00000000000E+00 0. -1.
        -12    1    4    4    0    0 -0.39576112463E+02 -0.55600438833E+02  0.33367144660E+02  0.75967386548E+02  0.00000000000E+00 0.  1.
</event>
<event>
12    1  0.8226261E-002  0.2079550E+03  0.7818608E-02  0.1143834E+00
         21   -1    0    0  503  502  0.00000000000E+00  0.00000000000E+00  0.36236510585E+02  0.36236510585E+02  0.00000000000E+00 0.  1.
         21   -1    0    0  501  503 -0.00000000000E+00 -0.00000000000E+00 -0.18329114326E+04  0.18329114326E+04  0.00000000000E+00 0.  1.
          6    2    1    2  501    0  0.11077451311E+03  0.33352108661E+02 -0.14536876342E+04  0.14680425320E+04  0.16899047882E+03 0.  0.
         24    2    3    3    0    0  0.12104547219E+03  0.25761013482E+02 -0.85019641836E+03  0.86439788905E+03  0.95048012335E+02 0.  0.
         -6    2    1    2    0  502 -0.11077451311E+03 -0.33352108661E+02 -0.34298728777E+03  0.40110541117E+03  0.17280600508E+03 0.  0.
        -24    2    5    5    0    0 -0.11790240228E+03 -0.58029604977E+02 -0.34171746612E+03  0.37496180631E+03  0.80976033643E+02 0.  0.
          5    1    3    3  501    0 -0.10270959078E+02  0.75910951784E+01 -0.60349121588E+03  0.60364464296E+03  0.47000000000E+01 0. -1.
        -11    1    4    4    0    0  0.42013186768E+02 -0.36142635010E+02 -0.28012502187E+03  0.28555459339E+03  0.00000000000E+00 0.  1.
         12    1    4    4    0    0  0.79032285423E+02  0.61903648492E+02 -0.57007139649E+03  0.57884329567E+03  0.00000000000E+00 0. -1.
         -5    1    5    5    0  502  0.71278891627E+01  0.24677496317E+02 -0.12698216553E+01  0.26143604867E+02  0.47000000000E+01 0.  1.
         11    1    6    6    0    0 -0.15827095345E+02  0.18806729858E+02 -0.35689969861E+02  0.43335481810E+02  0.00000000000E+00 0. -1.
        -12    1    6    6    0    0 -0.10207530693E+03 -0.76836334835E+02 -0.30602749625E+03  0.33162632450E+03  0.00000000000E+00 0.  1.
</event>
<event>
12    1  0.8226261E-002  0.1884747E+03  0.7818608E-02  0.1160176E+00
         21   -1    0    0  503  502  0.00000000000E+00  0.00000000000E+00  0.67204654505E+02  0.67204654505E+02  0.00000000000E+00 0. -1.
         21   -1    0    0  501  503 -0.00000000000E+00 -0.00000000000E+00 -0.81102932179E+03  0.81102932179E+03  0.00000000000E+00 0.  1.
          6    2    1    2  501    0  0.74886695670E+02  0.10024808260E+02 -0.10998969914E+03  0.21697043077E+03  0.17108454034E+03 0.  0.
         24    2    3    3    0    0  0.68941897585E+02 -0.42249859957E+01 -0.14554495603E+03  0.17792349039E+03  0.75515551111E+02 0.  0.
         -6    2    1    2    0  502 -0.74886695670E+02 -0.10024808260E+02 -0.63383496814E+03  0.66126354552E+03  0.17266787723E+03 0.  0.
        -24    2    5    5    0    0 -0.47445145253E+02 -0.12918962240E+02 -0.62389339762E+03  0.63155934311E+03  0.84889875023E+02 0.  0.
          5    1    3    3  501    0  0.59447980855E+01  0.14249794256E+02  0.35555256886E+02  0.39046940377E+02  0.47000000000E+01 0. -1.
        -11    1    4    4    0    0  0.68647234157E+02 -0.18033798943E+02 -0.65128607082E+02  0.96329622247E+02  0.00000000000E+00 0.  1.
         12    1    4    4    0    0  0.29466342835E+00  0.13808812947E+02 -0.80416348945E+02  0.81593868147E+02  0.00000000000E+00 0. -1.
         -5    1    5    5    0  502 -0.27441550418E+02  0.28941539795E+01 -0.99415705238E+01  0.29704202414E+02  0.47000000000E+01 0.  1.
         11    1    6    6    0    0 -0.27428875693E+02 -0.44086205109E+01 -0.49567929478E+02  0.56822168116E+02  0.00000000000E+00 0. -1.
        -12    1    6    6    0    0 -0.20016269559E+02 -0.85103417288E+01 -0.57432546814E+03  0.57473717499E+03  0.00000000000E+00 0.  1.
</event>
<event>
12    1  0.8226261E-002  0.1790152E+03  0.7818608E-02  0.1169084E+00
         21   -1    0    0  501  502  0.00000000000E+00  0.00000000000E+00  0.13485752092E+03  0.13485752092E+03  0.00000000000E+00 0. -1.
         21   -1    0    0  502  503 -0.00000000000E+00 -0.00000000000E+00 -0.32693464069E+03  0.32693464069E+03  0.00000000000E+00 0. -1.
         -6    2    1    2    0  503 -0.39640687083E+02  0.32317514457E+02 -0.21815242632E+03  0.28220014822E+03  0.17155359726E+03 0.  0.
        -24    2    3    3    0    0 -0.59314365325E+02  0.40433263145E+02 -0.23225173589E+03  0.25624249959E+03  0.81032753073E+02 0.  0.
          6    2    1    2  501    0  0.39640687083E+02 -0.32317514457E+02  0.26075306548E+02  0.17959201339E+03  0.17016922122E+03 0.  0.
         24    2    5    5    0    0  0.89733000732E+02 -0.36349190211E+02  0.31399691260E+02  0.12883835965E+03  0.78994349518E+02 0.  0.
          5    1    5    5  501    0 -0.50092313648E+02  0.40316757536E+01 -0.53243847119E+01  0.50753653746E+02  0.47000000000E+01 0. -1.
        -11    1    6    6    0    0  0.41306186521E+02 -0.13890737160E+02 -0.25764162116E+02  0.50625543684E+02  0.00000000000E+00 0.  1.
         12    1    6    6    0    0  0.48426814211E+02 -0.22458453050E+02  0.57163853376E+02  0.78212815962E+02  0.00000000000E+00 0. -1.
         -5    1    3    3    0  503  0.19673678241E+02 -0.81157486875E+01  0.14099309566E+02  0.25957648633E+02  0.47000000000E+01 0.  1.
         13    1    4    4    0    0 -0.14848377647E+02 -0.11534651869E+02 -0.14076896483E+03  0.14201909721E+03  0.00000000000E+00 0. -1.
        -14    1    4    4    0    0 -0.44465987678E+02  0.51967915013E+02 -0.91482771054E+02  0.11422340238E+03  0.00000000000E+00 0.  1.
</event>
<event>
12    1  0.8226261E-002  0.2443117E+03  0.7818608E-02  0.1118315E+00
         21   -1    0    0  503  502  0.00000000000E+00  0.00000000000E+00  0.10562352516E+04  0.10562352516E+04  0.00000000000E+00 0.  1.
         21   -1    0    0  501  503 -0.00000000000E+00 -0.00000000000E+00 -0.25569911201E+03  0.25569911201E+03  0.00000000000E+00 0. -1.
          6    2    1    2  501    0 -0.99159031128E+02 -0.12572167273E+03 -0.17994546320E+03  0.30342802312E+03  0.18452572461E+03 0.  0.
         24    2    3    3    0    0 -0.10592060877E+03 -0.30458033010E+02 -0.56408270956E+02  0.14720892105E+03  0.79634830742E+02 0.  0.
         -6    2    1    2    0  502  0.99159031128E+02  0.12572167273E+03  0.98048160277E+03  0.10085063405E+04  0.17350046966E+03 0.  0.
        -24    2    5    5    0    0  0.91144832937E+02  0.10604769542E+03  0.45990784294E+03  0.48747810499E+03  0.81031997212E+02 0.  0.
          5    1    3    3  501    0  0.67615776442E+01 -0.95263639718E+02 -0.12353719224E+03  0.15621910207E+03  0.47000000000E+01 0. -1.
        -13    1    4    4    0    0 -0.33769849843E+02 -0.77295651512E+01  0.19740897585E+02  0.39872947888E+02  0.00000000000E+00 0.  1.
         14    1    4    4    0    0 -0.72150758929E+02 -0.22728467859E+02 -0.76149168541E+02  0.10733597316E+03  0.00000000000E+00 0. -1.
         -5    1    5    5    0  502  0.80141981909E+01  0.19673977311E+02  0.52057375982E+03  0.52102823548E+03  0.47000000000E+01 0.  1.
         11    1    6    6    0    0  0.50698719921E+02  0.29801865140E+02  0.89101450353E+02  0.10675944840E+03  0.00000000000E+00 0. -1.
        -12    1    6    6    0    0  0.40446113016E+02  0.76245830276E+02  0.37080639259E+03  0.38071865660E+03  0.00000000000E+00 0.  1.
</event>
<event>
12    1  0.8226261E-002  0.2042187E+03  0.7818608E-02  0.1146323E+00
         21   -1    0    0  503  502  0.00000000000E+00  0.00000000000E+00  0.16033579167E+04  0.16033579167E+04  0.00000000000E+00 0. -1.
         21   -1    0    0  501  503 -0.00000000000E+00 -0.00000000000E+00 -0.25954551329E+02  0.25954551329E+02  0.00000000000E+00 0. -1.
          6    2    1    2  501    0  0.11061863099E+03  0.11723393827E+02  0.79782524642E+03  0.82354745280E+03  0.17126401751E+03 0.  0.
         24    2    3    3    0    0 -0.10177087592E+02 -0.13308930067E+02  0.27710417888E+03  0.28839257517E+03  0.78120744545E+02 0.  0.
         -6    2    1    2    0  502 -0.11061863099E+03 -0.11723393827E+02  0.77957811893E+03  0.80576501521E+03  0.17070822108E+03 0.  0.
        -24    2    5    5    0    0 -0.12878101405E+03  0.54775742079E+01  0.43196296378E+03  0.45721927711E+03  0.76438942202E+02 0.  0.
          5    1    3    3  501    0  0.12079571858E+03  0.25032323894E+02  0.52072106755E+03  0.53515487763E+03  0.47000000000E+01 0. -1.
        -11    1    4    4    0    0  0.89384073465E+01  0.16814138210E+02  0.22156608779E+03  0.22238287171E+03  0.00000000000E+00 0.  1.
         12    1    4    4    0    0 -0.19115494939E+02 -0.30123068277E+02  0.55538091084E+02  0.66009703457E+02  0.00000000000E+00 0. -1.
         -5    1    5    5    0  502  0.18162383065E+02 -0.17200968035E+02  0.34761515515E+03  0.34854573810E+03  0.47000000000E+01 0.  1.
         11    1    6    6    0    0 -0.53220092320E+02 -0.31456031795E+02  0.23615890274E+03  0.24411654493E+03  0.00000000000E+00 0. -1.
        -12    1    6    6    0    0 -0.75560921732E+02  0.36933606003E+02  0.19580406104E+03  0.21310273218E+03  0.00000000000E+00 0.  1.
</event>
<event>
12    1  0.8226261E-002  0.2287410E+03  0.7818608E-02  0.1127825E+00
         21   -1    0    0  503  502  0.00000000000E+00  0.00000000000E+00  0.76126271474E+02  0.76126271474E+02  0.00000000000E+00 0.  1.
         21   -1    0    0  501  503 -0.00000000000E+00 -0.00000000000E+00 -0.75646689628E+03  0.75646689628E+03  0.00000000000E+00 0.  1.
          6    2    1    2  501    0 -0.83897959696E+02 -0.12523997497E+03 -0.47161306026E+03  0.52415772752E+03  0.17204222081E+03 0.  0.
         24    2    3    3    0    0 -0.10648248025E+03 -0.38257156237E+02 -0.30552942365E+03  0.33526110057E+03  0.79054716723E+02 0.  0.
         -6    2    1    2    0  502  0.83897959696E+02  0.12523997497E+03 -0.20872756455E+03  0.30843544024E+03  0.16982728173E+03 0.  0.
        -24    2    5    5    0    0  0.14704488944E+02  0.12505322109E+03 -0.17875988099E+03  0.23288464058E+03  0.80160031585E+02 0.  0.
          5    1    3    3  501    0  0.22584520554E+02 -0.86982818735E+02 -0.16608363661E+03  0.18889662695E+03  0.47000000000E+01 0. -1.
        -11    1    4    4    0    0 -0.52180555503E+02 -0.14191761203E+02 -0.24329526468E+03  0.24923242621E+03  0.00000000000E+00 0.  1.
         12    1    4    4    0    0 -0.54301924747E+02 -0.24065395033E+02 -0.62234158965E+02  0.86028674355E+02  0.00000000000E+00 0. -1.
         -5    1    5    5    0  502  0.69193470752E+02  0.18675388417E+00 -0.29967683556E+02  0.75550799661E+02  0.47000000000E+01 0.  1.
         11    1    6    6    0    0 -0.11806956991E+02  0.17015835147E+02  0.18194766060E+01  0.20790704035E+02  0.00000000000E+00 0. -1.
        -12    1    6    6    0    0  0.26511445935E+02  0.10803738594E+03 -0.18057935760E+03  0.21209393654E+03  0.00000000000E+00 0.  1.
</event>
<event>
12    1  0.8226261E-002  0.2505948E+03  0.7818608E-02  0.1112999E+00
         21   -1    0    0  501  502  0.00000000000E+00  0.00000000000E+00  0.17760026333E+04  0.17760026333E+04  0.00000000000E+00 0.  1.
         21   -1    0    0  502  503 -0.00000000000E+00 -0.00000000000E+00 -0.37785720353E+02  0.37785720353E+02  0.00000000000E+00 0.  1.
         -6    2    1    2    0  503 -0.17978325171E+03 -0.27853632883E+02  0.63564157857E+03  0.68309382193E+03  0.17169481847E+03 0.  0.
        -24    2    3    3    0    0 -0.97279770983E+02 -0.82444057214E+02  0.40500424060E+03  0.43209061393E+03  0.80084251443E+02 0.  0.
          6    2    1    2  501    0  0.17978325171E+03  0.27853632883E+02  0.11025753344E+04  0.11306945318E+04  0.17233662884E+03 0.  0.
         24    2    5    5    0    0  0.15572068401E+03  0.92936390324E+01  0.64166924917E+03  0.66876381191E+03  0.10568967605E+03 0.  0.
          5    1    5    5  501    0  0.24062567695E+02  0.18559993851E+02  0.46090608525E+03  0.46193071986E+03  0.47000000000E+01 0. -1.
        -13    1    6    6    0    0  0.32325830973E+02  0.48648047293E+02  0.22266674464E+03  0.23020006738E+03  0.00000000000E+00 0.  1.
         14    1    6    6    0    0  0.12339485304E+03 -0.39354408260E+02  0.41900250453E+03  0.43856374452E+03  0.00000000000E+00 0. -1.
         -5    1    3    3    0  503 -0.82503480722E+02  0.54590424331E+02  0.23063733797E+03  0.25100320800E+03  0.47000000000E+01 0.  1.
         13    1    4    4    0    0 -0.57526721172E+02 -0.66656918740E+02  0.35743098314E+03  0.36811598196E+03  0.00000000000E+00 0. -1.
        -14    1    4    4    0    0 -0.39753049811E+02 -0.15787138475E+02  0.47573257463E+02  0.63974631973E+02  0.00000000000E+00 0.  1.
</event>
<event>
12    1  0.8226261E-002  0.1932635E+03  0.7818608E-02  0.1155910E+00
         21   -1    0    0  501  502  0.00000000000E+00  0.00000000000E+00  0.10921262004E+04  0.10921262004E+04  0.00000000000E+00 0. -1.
         21   -1    0    0  502  503 -0.00000000000E+00 -0.00000000000E+00 -0.50799013146E+02  0.50799013146E+02  0.00000000000E+00 0. -1.
         -6    2    1    2    0  503 -0.23459867347E+01 -0.88400516744E+02  0.18973222385E+03  0.26967566192E+03  0.17001908967E+03 0.  0.
        -24    2    3    3    0    0 -0.30109524683E+02 -0.11855042019E+03  0.16969892400E+03  0.22381441663E+03  0.79588835142E+02 0.  0.
          6    2    1    2  501    0  0.23459867347E+01  0.88400516744E+02  0.85159496338E+03  0.87324955160E+03  0.17184482156E+03 0.  0.
         24    2    5    5    0    0  0.46310886867E+02  0.27229087279E+01  0.34002008652E+03  0.35266861688E+03  0.81298103419E+02 0.  0.
          5    1    5    5  501    0 -0.43964900132E+02  0.85677608016E+02  0.51157487686E+03  0.52058093472E+03  0.47000000000E+01 0. -1.
        -13    1    6    6    0    0 -0.55360521656E+01 -0.10888419930E+02  0.22960417242E+03  0.22992886194E+03  0.00000000000E+00 0.  1.
         14    1    6    6    0    0  0.51846939032E+02  0.13611328658E+02  0.11041591410E+03  0.12273975494E+03  0.00000000000E+00 0. -1.
         -5    1    3    3    0  503  0.27763537948E+02  0.30149903446E+02  0.20033299846E+02  0.45861245294E+02  0.47000000000E+01 0.  1.
         13    1    4    4    0    0 -0.79544416954E+01 -0.11590037783E+03  0.10962468503E+03  0.15973021721E+03  0.00000000000E+00 0. -1.
        -14    1    4    4    0    0 -0.22155082988E+02 -0.26500423647E+01  0.60074238972E+02  0.64084199416E+02  0.00000000000E+00 0.  1.
</event>
<event>
12    1  0.8226261E-002  0.2891372E+03  0.7818608E-02  0.1091212E+00
         21   -1    0    0  503  502  0.00000000000E+00  0.00000000000E+00  0.59459741500E+03  0.59459741500E+03  0.00000000000E+00 0.  1.
         21   -1    0    0  501  503 -0.00000000000E+00 -0.00000000000E+00 -0.14403742772E+03  0.14403742772E+03  0.00000000000E+00 0. -1.
          6    2    1    2  501    0 -0.23088493365E+03  0.20905901910E+01  0.29493408080E+03  0.41302108071E+03  0.17403470325E+03 0.  0.
         24    2    3    3    0    0 -0.91278462179E+02  0.62217665395E+02  0.13315021419E+03  0.19098202661E+03  0.80884852746E+02 0.  0.
         -6    2    1    2    0  502  0.23088493365E+03 -0.20905901910E+01  0.15562590648E+03  0.32561376201E+03  0.16879773721E+03 0.  0.
        -24    2    5    5    0    0  0.52519470083E+02 -0.39220971245E+02  0.58236235012E+02  0.11897460333E+03  0.80417148956E+02 0.  0.
          5    1    3    3  501    0 -0.13960647147E+03 -0.60127075204E+02  0.16178386661E+03  0.22203905410E+03  0.47000000000E+01 0. -1.
        -11    1    4    4    0    0 -0.94079649315E+02  0.66398404158E+02  0.14075914694E+03  0.18185946755E+03  0.00000000000E+00 0.  1.
         12    1    4    4    0    0  0.28011871359E+01 -0.41807387632E+01 -0.76089327579E+01  0.91225590538E+01  0.00000000000E+00 0. -1.
         -5    1    5    5    0  502  0.17836546357E+03  0.37130381054E+02  0.97389671465E+02  0.20663915868E+03  0.47000000000E+01 0.  1.
         13    1    6    6    0    0  0.33339429353E+02  0.15396424814E+02 -0.19604649364E+00  0.36723369683E+02  0.00000000000E+00 0. -1.
        -14    1    6    6    0    0  0.19180040730E+02 -0.54617396059E+02  0.58432281506E+02  0.82251233648E+02  0.00000000000E+00 0.  1.
</event>
<event>
12    1  0.8226261E-002  0.1776624E+03  0.7818608E-02  0.1170130E+00
         21   -1    0    0  503  502  0.00000000000E+00  0.00000000000E+00  0.21385985339E+04  0.21385985339E+04  0.00000000000E+00 0.  1.
         21   -1    0    0  501  503 -0.00000000000E+00 -0.00000000000E+00 -0.19226925947E+02  0.19226925947E+02  0.00000000000E+00 0.  1.
          6    2    1    2  501    0  0.22723179016E+02  0.34912229595E+02  0.53913411720E+03  0.56765263636E+03  0.17270990880E+03 0.  0.
         24    2    3    3    0    0  0.16102742610E+02  0.28896348953E+02  0.11994881385E+03  0.14834555373E+03  0.80773684240E+02 0.  0.
         -6    2    1    2    0  502 -0.22723179016E+02 -0.34912229595E+02  0.15802374908E+04  0.15901728235E+04  0.17252209925E+03 0.  0.
        -24    2    5    5    0    0  0.21883831366E+02 -0.15992996231E+02  0.32614118261E+03  0.33513204213E+03  0.72185432496E+02 0.  0.
          5    1    3    3  501    0  0.66204364057E+01  0.60158806419E+01  0.41918530335E+03  0.41930708263E+03  0.47000000000E+01 0. -1.
        -11    1    4    4    0    0  0.38535330724E+02  0.40936321244E+02  0.55279914403E+02  0.78845564539E+02  0.00000000000E+00 0.  1.
         12    1    4    4    0    0 -0.22432588114E+02 -0.12039972291E+02  0.64668899447E+02  0.69499989193E+02  0.00000000000E+00 0. -1.
         -5    1    5    5    0  502 -0.44607010382E+02 -0.18919233364E+02  0.12540963082E+04  0.12550407814E+04  0.47000000000E+01 0.  1.
         13    1    6    6    0    0 -0.18255370790E+02  0.14594382900E+02  0.15339784837E+03  0.15516814898E+03  0.00000000000E+00 0. -1.
        -14    1    6    6    0    0  0.40139202155E+02 -0.30587379131E+02  0.17274333424E+03  0.17996389315E+03  0.00000000000E+00 0.  1.
</event>
<event>
12    1  0.8226261E-002  0.1971670E+03  0.7818608E-02  0.1152226E+00
         21   -1    0    0  503  502  0.00000000000E+00  0.00000000000E+00  0.61252620856E+03  0.61252620856E+03  0.00000000000E+00 0.  1.
         21   -1    0    0  501  503 -0.00000000000E+00 -0.00000000000E+00 -0.63601845562E+02  0.63601845562E+02  0.00000000000E+00 0.  1.
          6    2    1    2  501    0 -0.50971470772E+02 -0.83305162828E+02  0.29527985597E+03  0.35486434871E+03  0.17088204018E+03 0.  0.
         24    2    3    3    0    0 -0.27168786538E+02  0.19983866865E+02  0.16223512189E+03  0.18469330916E+03  0.81571353919E+02 0.  0.
         -6    2    1    2    0  502  0.50971470772E+02  0.83305162828E+02  0.25364450703E+03  0.32126370542E+03  0.17128044688E+03 0.  0.
        -24    2    5    5    0    0  0.89714800187E+01 -0.97581956636E+01  0.17463997778E+03  0.19207936597E+03  0.78864764974E+02 0.  0.
          5    1    3    3  501    0 -0.23802684234E+02 -0.10328902969E+03  0.13304473408E+03  0.17017103954E+03  0.47000000000E+01 0. -1.
        -13    1    4    4    0    0 -0.10024240621E+02  0.89558394890E+01 -0.63595875740E+01  0.14870669625E+02  0.00000000000E+00 0.  1.
         14    1    4    4    0    0 -0.17144545917E+02  0.11028027376E+02  0.16859470946E+03  0.16982263954E+03  0.00000000000E+00 0. -1.
         -5    1    5    5    0  502  0.41999990754E+02  0.93063358491E+02  0.79004529247E+02  0.12918433945E+03  0.47000000000E+01 0.  1.
         13    1    6    6    0    0 -0.28035323418E+02  0.12437392293E+02  0.11121397437E+03  0.11536557624E+03  0.00000000000E+00 0. -1.
        -14    1    6    6    0    0  0.37006803436E+02 -0.22195587957E+02  0.63426003410E+02  0.76713789725E+02  0.00000000000E+00 0.  1.
</event>
<event>
12    1  0.8226261E-002  0.2257293E+03  0.7818608E-02  0.1129778E+00
         21   -1    0    0  503  502  0.00000000000E+00  0.00000000000E+00  0.47474977532E+03  0.47474977532E+03  0.00000000000E+00 0.  1.
         21   -1    0    0  501  503 -0.00000000000E+00 -0.00000000000E+00 -0.10716174329E+03  0.10716174329E+03  0.00000000000E+00 0.  1.
          6    2    1    2  501    0 -0.14159013927E+03  0.37940850412E+02  0.17574185670E+03  0.28607504919E+03  0.17165796778E+03 0.  0.
         24    2    3    3    0    0 -0.76321670663E+02  0.45327357260E+02  0.25250606799E+02  0.12180624577E+03  0.79495922138E+02 0.  0.
         -6    2    1    2    0  502  0.14159013927E+03 -0.37940850412E+02  0.19184617533E+03  0.29583646943E+03  0.17095901845E+03 0.  0.
        -24    2    5    5    0    0  0.12791724207E+03 -0.86627080012E+02  0.14370229252E+03  0.22585632566E+03  0.80583243631E+02 0.  0.
          5    1    3    3  501    0 -0.65268468604E+02 -0.73865068479E+01  0.15049124990E+03  0.16426880341E+03  0.47000000000E+01 0. -1.
        -11    1    4    4    0    0  0.31263416804E+01  0.35887153609E+02  0.20976118154E+02  0.41685241264E+02  0.00000000000E+00 0.  1.
         12    1    4    4    0    0 -0.79448012344E+02  0.94402036514E+01  0.42744886457E+01  0.80121004509E+02  0.00000000000E+00 0. -1.
         -5    1    5    5    0  502  0.13672897194E+02  0.48686229600E+02  0.48143882803E+02  0.69980143767E+02  0.47000000000E+01 0.  1.
         13    1    6    6    0    0  0.36972369615E+02 -0.39341518606E+02  0.10158030414E+03  0.11503594825E+03  0.00000000000E+00 0. -1.
        -14    1    6    6    0    0  0.90944872458E+02 -0.47285561406E+02  0.42121988385E+02  0.11082037741E+03  0.00000000000E+00 0.  1.
</event>
<event>
12    1  0.8226261E-002  0.1769638E+03  0.7818608E-02  0.1171559E+00
         21   -1    0    0  503  502  0.00000000000E+00  0.00000000000E+00  0.59362358250E+03  0.59362358250E+03  0.00000000000E+00 0. -1.
         21   -1    0    0  501  503 -0.00000000000E+00 -0.00000000000E+00 -0.85644158897E+02  0.85644158897E+02  0.00000000000E+00 0. -1.
          6    2    1    2  501    0 -0.98658222420E+01 -0.38981744921E+02  0.41937916423E+02  0.18186529136E+03  0.17233480346E+03 0.  0.
         24    2    3    3    0    0 -0.24446327720E+01 -0.46760556509E+02  0.91900133863E+02  0.13054378384E+03  0.80021990858E+02 0.  0.
         -6    2    1    2    0  502  0.98658222420E+01  0.38981744921E+02  0.46604150718E+03  0.49740245003E+03  0.16910824935E+03 0.  0.
        -24    2    5    5    0    0  0.54749969071E+02  0.51936100927E+02  0.40331191769E+03  0.41904753076E+03  0.85119988225E+02 0.  0.
          5    1    3    3  501    0 -0.74211894699E+01  0.77788115889E+01 -0.49962217440E+02  0.51321507523E+02  0.47000000000E+01 0. -1.
        -13    1    4    4    0    0 -0.38733676646E+02 -0.90145553227E+01  0.32494536203E+02  0.51356156371E+02  0.00000000000E+00 0.  1.
         14    1    4    4    0    0  0.36289043874E+02 -0.37746001187E+02  0.59405597660E+02  0.79187627469E+02  0.00000000000E+00 0. -1.
         -5    1    5    5    0  502 -0.44884146829E+02 -0.12954356006E+02  0.62729589486E+02  0.78354919266E+02  0.47000000000E+01 0.  1.
         11    1    6    6    0    0  0.44779548803E+02  0.19110159903E+02  0.36239749715E+03  0.36565332234E+03  0.00000000000E+00 0. -1.
        -12    1    6    6    0    0  0.99704202684E+01  0.32825941024E+02  0.40914420543E+02  0.53394208420E+02  0.00000000000E+00 0.  1.
</event>
<event>
12    1  0.8226261E-002  0.2789574E+03  0.7818608E-02  0.1096327E+00
         21   -1    0    0  503  502  0.00000000000E+00  0.00000000000E+00  0.83011460786E+03  0.83011460786E+03  0.00000000000E+00 0. -1.
         21   -1    0    0  501  503 -0.00000000000E+00 -0.00000000000E+00 -0.26137886235E+03  0.26137886235E+03  0.00000000000E+00 0.  1.
          6    2    1    2  501    0 -0.11279077085E+03 -0.18813749787E+03 -0.15281501082E+03  0.31807175597E+03  0.17233612018E+03 0.  0.
         24    2    3    3    0    0 -0.10900558179E+03 -0.21062886353E+03 -0.11970469184E+03  0.27759247227E+03  0.80508585859E+02 0.  0.
         -6    2    1    2    0  502  0.11279077085E+03  0.18813749787E+03  0.72155075633E+03  0.77342171425E+03  0.17154643108E+03 0.  0.
        -24    2    5    5    0    0 -0.66892252533E+01  0.49073112954E+02  0.18337528868E+03  0.20485395522E+03  0.76718513562E+02 0.  0.
          5    1    3    3  501    0 -0.37851890582E+01  0.22491365663E+02 -0.33110318979E+02  0.40479283696E+02  0.47000000000E+01 0. -1.
        -13    1    4    4    0    0 -0.62403710410E+02 -0.10567151626E+03 -0.10558133928E+03  0.16188919552E+03  0.00000000000E+00 0.  1.
         14    1    4    4    0    0 -0.46601871385E+02 -0.10495734727E+03 -0.14123352558E+02  0.11570327675E+03  0.00000000000E+00 0. -1.
         -5    1    5    5    0  502  0.11947999611E+03  0.13906438491E+03  0.53817546766E+03  0.56856775903E+03  0.47000000000E+01 0.  1.
         13    1    6    6    0    0 -0.91831644569E+01  0.22603455253E+02  0.17541131373E+03  0.17709990311E+03  0.00000000000E+00 0. -1.
        -14    1    6    6    0    0  0.24939392036E+01  0.26469657701E+02  0.79639749518E+01  0.27754052112E+02  0.00000000000E+00 0.  1.
</event>
<event>
12    1  0.8226261E-002  0.1798012E+03  0.7818608E-02  0.1168520E+00
         21   -1    0    0  503  502  0.00000000000E+00  0.00000000000E+00  0.15637025346E+03  0.15637025346E+03  0.00000000000E+00 0.  1.
         21   -1    0    0  501  503 -0.00000000000E+00 -0.00000000000E+00 -0.20434189805E+03  0.20434189805E+03  0.00000000000E+00 0. -1.
          6    2    1    2  501    0  0.45950737127E+02 -0.11546903627E+02 -0.27076099168E+02  0.17970085107E+03  0.17121471754E+03 0.  0.
         24    2    3    3    0    0  0.56760640750E+02 -0.43862121027E+02  0.39173438273E+02  0.10505355706E+03  0.66000269579E+02 0.  0.
         -6    2    1    2    0  502 -0.45950737127E+02  0.11546903627E+02 -0.20895545422E+02  0.18101130044E+03  0.17344643508E+03 0.  0.
        -24    2    5    5    0    0  0.18414800655E+02  0.65929930979E+00 -0.62255455073E+02  0.10358911687E+03  0.80718175709E+02 0.  0.
          5    1    3    3  501    0 -0.10809903623E+02  0.32315217400E+02 -0.66249537441E+02  0.74647294010E+02  0.47000000000E+01 0. -1.
        -13    1    4    4    0    0 -0.69110612064E+01 -0.16968204549E+02  0.30243850498E+02  0.35360616872E+02  0.00000000000E+00 0.  1.
         14    1    4    4    0    0  0.63671701957E+02 -0.26893916478E+02  0.89295877745E+01  0.69692940183E+02  0.00000000000E+00 0. -1.
         -5    1    5    5    0  502 -0.64365537782E+02  0.10887604317E+02  0.41359909651E+02  0.77422183566E+02  0.47000000000E+01 0.  1.
         11    1    6    6    0    0  0.25217357556E+02  0.30445286403E+02 -0.65732097571E+01  0.40075399845E+02  0.00000000000E+00 0. -1.
        -12    1    6    6    0    0 -0.68025569005E+01 -0.29785987093E+02 -0.55682245316E+02  0.63513717029E+02  0.00000000000E+00 0.  1.
</event>
<event>
12    1  0.8226261E-002  0.3352288E+03  0.7818608E-02  0.1068956E+00
         21   -1    0    0  501  502  0.00000000000E+00  0.00000000000E+00  0.11952147687E+03  0.11952147687E+03  0.00000000000E+00 0. -1.
         21   -1    0    0  502  503 -0.00000000000E+00 -0.00000000000E+00 -0.98667381250E+03  0.98667381250E+03  0.00000000000E+00 0. -1.
         -6    2    1    2    0  503  0.26496684360E+03 -0.11101393811E+03 -0.31061390439E+03  0.45701133081E+03  0.17276236924E+03 0.  0.
        -24    2    3    3    0    0  0.24692578840E+03 -0.44355331605E+02 -0.27037997490E+03  0.37695067520E+03  0.77760788914E+02 0.  0.
          6    2    1    2  501    0 -0.26496684360E+03  0.11101393811E+03 -0.55653843124E+03  0.64918395856E+03  0.17080182652E+03 0.  0.
         24    2    5    5    0    0 -0.79370105514E+02  0.96847688905E+02 -0.25314159191E+03  0.29320844828E+03  0.78812689913E+02 0.  0.
          5    1    5    5  501    0 -0.18559673809E+03  0.14166249204E+02 -0.30339683932E+03  0.35597551028E+03  0.47000000000E+01 0. -1.
        -13    1    6    6    0    0  0.14467802018E+02  0.18026520173E+02 -0.23794587058E+02  0.33173108055E+02  0.00000000000E+00 0.  1.
         14    1    6    6    0    0 -0.93837907532E+02  0.78821168733E+02 -0.22934700486E+03  0.26003534023E+03  0.00000000000E+00 0. -1.
         -5    1    3    3    0  503  0.18041055203E+02 -0.66658606504E+02 -0.40233929495E+02  0.80060655609E+02  0.47000000000E+01 0.  1.
         11    1    4    4    0    0  0.25023884104E+03 -0.37358083542E+02 -0.25242744282E+03  0.35739994105E+03  0.00000000000E+00 0. -1.
        -12    1    4    4    0    0 -0.33130526373E+01 -0.69972480629E+01 -0.17952532075E+02  0.19550734159E+02  0.00000000000E+00 0.  1.
</event>
<event>
12    1  0.8226261E-002  0.2754339E+03  0.7818608E-02  0.1099102E+00
         21   -1    0    0  501  502  0.00000000000E+00  0.00000000000E+00  0.45698413306E+03  0.45698413306E+03  0.00000000000E+00 0. -1.
         21   -1    0    0  502  503 -0.00000000000E+00 -0.00000000000E+00 -0.97140229626E+03  0.97140229626E+03  0.00000000000E+00 0.  1.
         -6    2    1    2    0  503  0.68371069505E+02 -0.20519030374E+03 -0.90953731255E+03  0.95032728050E+03  0.17054663075E+03 0.  0.
        -24    2    3    3    0    0 -0.77348586442E+01 -0.10284839593E+03 -0.29329204848E+03  0.32100518977E+03  0.79915490224E+02 0.  0.
          6    2    1    2  501    0 -0.68371069505E+02  0.20519030374E+03  0.39511914936E+03  0.47805914882E+03  0.16013664068E+03 0.  0.
         24    2    5    5    0    0 -0.11151787829E+03  0.14060890691E+03  0.28939940916E+03  0.34679164564E+03  0.65614979844E+02 0.  0.
          5    1    5    5  501    0  0.43146808787E+02  0.64581396823E+02  0.10571974020E+03  0.13126750318E+03  0.47000000000E+01 0. -1.
        -13    1    6    6    0    0 -0.31750593202E+02  0.77383381736E+01  0.28631956340E+02  0.43448486398E+02  0.00000000000E+00 0.  1.
         14    1    6    6    0    0 -0.79767285090E+02  0.13287056874E+03  0.26076745282E+03  0.30334315924E+03  0.00000000000E+00 0. -1.
         -5    1    3    3    0  503  0.76105928150E+02 -0.10234190781E+03 -0.61624526407E+03  0.62932209073E+03  0.47000000000E+01 0.  1.
         13    1    4    4    0    0  0.40820441496E+01 -0.55686209843E+01  0.39994700207E+01  0.79792471169E+01  0.00000000000E+00 0. -1.
        -14    1    4    4    0    0 -0.11816902794E+02 -0.97279774945E+02 -0.29729151850E+03  0.31302594266E+03  0.00000000000E+00 0.  1.
</event>
<event>
12    1  0.8226261E-002  0.2670948E+03  0.7818608E-02  0.1102989E+00
         21   -1    0    0  503  502  0.00000000000E+00  0.00000000000E+00  0.32396068105E+03  0.32396068105E+03  0.00000000000E+00 0. -1.
         21   -1    0    0  501  503 -0.00000000000E+00 -0.00000000000E+00 -0.22176248605E+03  0.22176248605E+03  0.00000000000E+00 0.  1.
          6    2    1    2  501    0  0.13400902240E+03 -0.15476359194E+03  0.26859319499E+02  0.26844193395E+03  0.17155017163E+03 0.  0.
         24    2    3    3    0    0  0.14264007521E+03 -0.12310435536E+03 -0.21879478304E+02  0.20949820871E+03  0.88937700209E+02 0.  0.
         -6    2    1    2    0  502 -0.13400902240E+03  0.15476359194E+03  0.75338875505E+02  0.27728123315E+03  0.17116877233E+03 0.  0.
        -24    2    5    5    0    0 -0.29986675531E+02  0.13206932547E+03  0.63129484663E+02  0.17001130445E+03  0.81098732224E+02 0.  0.
          5    1    3    3  501    0 -0.86310528166E+01 -0.31659236579E+02  0.48738797803E+02  0.58943725237E+02  0.47000000000E+01 0. -1.
        -13    1    4    4    0    0  0.82044372417E+01 -0.44172766166E+02 -0.28942662792E+02  0.53443650612E+02  0.00000000000E+00 0.  1.
         14    1    4    4    0    0  0.13443563797E+03 -0.78931589192E+02  0.70631844880E+01  0.15605455810E+03  0.00000000000E+00 0. -1.
         -5    1    5    5    0  502 -0.10402234687E+03  0.22694266471E+02  0.12209390842E+02  0.10726992870E+03  0.47000000000E+01 0.  1.
         13    1    6    6    0    0 -0.29218136364E+02  0.17154661340E+02 -0.80638226147E+01  0.34828251944E+02  0.00000000000E+00 0. -1.
        -14    1    6    6    0    0 -0.76853916615E+00  0.11491466413E+03  0.71193307278E+02  0.13518305251E+03  0.00000000000E+00 0.  1.
</event>
<event>
12    1  0.8226261E-002  0.2526226E+03  0.7818608E-02  0.1111687E+00
         21   -1    0    0  501  502  0.00000000000E+00  0.00000000000E+00  0.96019396206E+02  0.96019396206E+02  0.00000000000E+00 0. -1.
         21   -1    0    0  502  503 -0.00000000000E+00 -0.00000000000E+00 -0.66515921633E+03  0.66515921633E+03  0.00000000000E+00 0.  1.
         -6    2    1    2    0  503 -0.12869836515E+02 -0.18372734889E+03 -0.29922832147E+03  0.39148904809E+03  0.17264042105E+03 0.  0.
        -24    2    3    3    0    0  0.58461006907E+02 -0.12188828429E+03 -0.19104877800E+03  0.24783299092E+03  0.81529826687E+02 0.  0.
          6    2    1    2  501    0  0.12869836515E+02  0.18372734889E+03 -0.26991149865E+03  0.36968956445E+03  0.17290686955E+03 0.  0.
         24    2    5    5    0    0 -0.42954590703E+02  0.17207180767E+03 -0.19358105734E+03  0.27429226582E+03  0.79428064747E+02 0.  0.
          5    1    5    5  501    0  0.55824427218E+02  0.11655541219E+02 -0.76330441310E+02  0.95397298630E+02  0.47000000000E+01 0. -1.
        -13    1    6    6    0    0 -0.21452921075E+01  0.13728210775E+03 -0.11467886528E+03  0.17889164745E+03  0.00000000000E+00 0.  1.
         14    1    6    6    0    0 -0.40809298595E+02  0.34789699918E+02 -0.78902192062E+02  0.95400618365E+02  0.00000000000E+00 0. -1.
         -5    1    3    3    0  503 -0.71330843422E+02 -0.61839064600E+02 -0.10817954347E+03  0.14365605716E+03  0.47000000000E+01 0.  1.
         13    1    4    4    0    0  0.38770533087E+02 -0.53155406808E+02 -0.31391625055E+02  0.72897775223E+02  0.00000000000E+00 0. -1.
        -14    1    4    4    0    0  0.19690473820E+02 -0.68732877480E+02 -0.15965715294E+03  0.17493521570E+03  0.00000000000E+00 0.  1.
</event>
<event>
12    1  0.8226261E-002  0.1741632E+03  0.7818608E-02  0.1173899E+00
         21   -1    0    0  501  502  0.00000000000E+00  0.00000000000E+00  0.71713783216E+03  0.71713783216E+03  0.00000000000E+00 0.  1.
         21   -1    0    0  502  503 -0.00000000000E+00 -0.00000000000E+00 -0.60168197167E+02  0.60168197167E+02  0.00000000000E+00 0.  1.
         -6    2    1    2    0  503 -0.14805316235E+02 -0.19063845819E+02  0.11399458953E+03  0.20708262153E+03  0.17118942167E+03 0.  0.
        -24    2    3    3    0    0  0.22382320875E+02 -0.69994669919E+02  0.82468559593E+02  0.13642252133E+03  0.80061344600E+02 0.  0.
          6    2    1    2  501    0  0.14805316235E+02  0.19063845819E+02  0.54297504546E+03  0.57022340779E+03  0.17248248374E+03 0.  0.
         24    2    5    5    0    0 -0.53973610342E+02 -0.27854893343E+01  0.24379357800E+03  0.26242546326E+03  0.80690182361E+02 0.  0.
          5    1    5    5  501    0  0.68778926577E+02  0.21849335153E+02  0.29918146746E+03  0.30779794454E+03  0.47000000000E+01 0. -1.
        -13    1    6    6    0    0 -0.56469476707E+02  0.17770117085E+02  0.23011731495E+03  0.23761009554E+03  0.00000000000E+00 0.  1.
         14    1    6    6    0    0  0.24958663647E+01 -0.20555606419E+02  0.13676263043E+02  0.24815367719E+02  0.00000000000E+00 0. -1.
         -5    1    3    3    0  503 -0.37187637110E+02  0.50930824100E+02  0.31526029940E+02  0.70660100206E+02  0.47000000000E+01 0.  1.
         11    1    4    4    0    0  0.27015050306E+02 -0.48046271779E+02  0.95656408371E+02  0.11040111248E+03  0.00000000000E+00 0. -1.
        -12    1    4    4    0    0 -0.46327294312E+01 -0.21948398139E+02 -0.13187848778E+02  0.26021408845E+02  0.00000000000E+00 0.  1.
</event>
<event>
12    1  0.8226261E-002  0.2509224E+03  0.7818608E-02  0.1112802E+00
         21   -1    0    0  503  502  0.00000000000E+00  0.00000000000E+00  0.11289278091E+03  0.11289278091E+03  0.00000000000E+00 0. -1.
         21   -1    0    0  501  503 -0.00000000000E+00 -0.00000000000E+00 -0.69096369763E+03  0.69096369763E+03  0.00000000000E+00 0.  1.
          6    2    1    2  501    0  0.12042121926E+03  0.13714831639E+03 -0.46604183074E+03  0.52906094851E+03  0.17146302372E+03 0.  0.
         24    2    3    3    0    0  0.12326953204E+03  0.60931723840E+02 -0.22868521940E+03  0.27970711796E+03  0.83851593686E+02 0.  0.
         -6    2    1    2    0  502 -0.12042121926E+03 -0.13714831639E+03 -0.11202908597E+03  0.27479553003E+03  0.17219505361E+03 0.  0.
        -24    2    5    5    0    0 -0.47662437248E+02 -0.11788128690E+03 -0.13725013768E+02  0.15089702562E+03  0.80086394667E+02 0.  0.
          5    1    3    3  501    0 -0.28483127784E+01  0.76216592550E+02 -0.23735661134E+03  0.24935383056E+03  0.47000000000E+01 0. -1.
        -11    1    4    4    0    0  0.10064524898E+03  0.68796381692E+01 -0.16292557349E+03  0.19162864624E+03  0.00000000000E+00 0.  1.
         12    1    4    4    0    0  0.22624283061E+02  0.54052085671E+02 -0.65759645914E+02  0.88078471718E+02  0.00000000000E+00 0. -1.
         -5    1    5    5    0  502 -0.72758782010E+02 -0.19267029490E+02 -0.98304072206E+02  0.12389850442E+03  0.47000000000E+01 0.  1.
         11    1    6    6    0    0 -0.67038671540E+02 -0.62718927838E+02 -0.80251780449E+01  0.92153409452E+02  0.00000000000E+00 0. -1.
        -12    1    6    6    0    0  0.19376234291E+02 -0.55162359063E+02 -0.56998357227E+01  0.58743616164E+02  0.00000000000E+00 0.  1.
</event>
<event>
12    1  0.8226261E-002  0.1729196E+03  0.7818608E-02  0.1174927E+00
         21   -1    0    0  501  502  0.00000000000E+00  0.00000000000E+00  0.12506800206E+04  0.12506800206E+04  0.00000000000E+00 0. -1.
         21   -1    0    0  502  503 -0.00000000000E+00 -0.00000000000E+00 -0.25709236075E+02  0.25709236075E+02  0.00000000000E+00 0. -1.
         -6    2    1    2    0  503  0.18190177586E+02  0.16709586978E+01  0.78311255559E+03  0.80190017994E+03  0.17159530646E+03 0.  0.
        -24    2    3    3    0    0  0.65904122078E+02 -0.18030514612E+02  0.64178797156E+03  0.65136946347E+03  0.87874482854E+02 0.  0.
          6    2    1    2  501    0 -0.18190177586E+02 -0.16709586978E+01  0.44185822896E+03  0.47448907676E+03  0.17195207123E+03 0.  0.
         24    2    5    5    0    0 -0.37676254099E+02 -0.53401559339E+01  0.10595096491E+03  0.13796426307E+03  0.79752827732E+02 0.  0.
          5    1    5    5  501    0  0.19486076513E+02  0.36691972361E+01  0.33590726405E+03  0.33652481369E+03  0.47000000000E+01 0. -1.
        -13    1    6    6    0    0 -0.32717853006E+02 -0.40672712979E+02  0.69938027070E+02  0.87270012701E+02  0.00000000000E+00 0.  1.
         14    1    6    6    0    0 -0.49584010929E+01  0.35332557045E+02  0.36012937835E+02  0.50694250367E+02  0.00000000000E+00 0. -1.
         -5    1    3    3    0  503 -0.47713944493E+02  0.19701473310E+02  0.14132458403E+03  0.15053071647E+03  0.47000000000E+01 0.  1.
         13    1    4    4    0    0  0.42352293429E+01 -0.43806579088E+02  0.22633908440E+03  0.23057826148E+03  0.00000000000E+00 0. -1.
        -14    1    4    4    0    0  0.61668892736E+02  0.25776064475E+02  0.41544888716E+03  0.42079120199E+03  0.00000000000E+00 0.  1.
</event>
<event>
12    1  0.8226261E-002  0.1761281E+03  0.7818608E-02  0.1171890E+00
         21   -1    0    0  503  502  0.00000000000E+00  0.00000000000E+00  0.44266002700E+03  0.44266002700E+03  0.00000000000E+00 0. -1.
         21   -1    0    0  501  503 -0.00000000000E+00 -0.00000000000E+00 -0.70715832357E+02  0.70715832357E+02  0.00000000000E+00 0. -1.
          6    2    1    2  501    0  0.23243431317E+02 -0.11217716701E+02  0.15467516046E+03  0.23440460394E+03  0.17422691760E+03 0.  0.
         24    2    3    3    0    0  0.74025800460E+02  0.23664632130E+02  0.77219025834E+02  0.13532297059E+03  0.79433585286E+02 0.  0.
         -6    2    1    2    0  502 -0.23243431317E+02  0.11217716701E+02  0.21726903418E+03  0.27897125542E+03  0.17306944810E+03 0.  0.
        -24    2    5    5    0    0 -0.18788097466E+02 -0.58417011015E+02  0.16053992545E+03  0.18892056369E+03  0.78437057167E+02 0.  0.
          5    1    3    3  501    0 -0.50782369143E+02 -0.34882348831E+02  0.77456134623E+02  0.99081633346E+02  0.47000000000E+01 0. -1.
        -11    1    4    4    0    0 -0.17199100177E+02  0.32787219380E+01  0.14769675218E+02  0.22906382746E+02  0.00000000000E+00 0.  1.
         12    1    4    4    0    0  0.91224900637E+02  0.20385910192E+02  0.62449350616E+02  0.11241658785E+03  0.00000000000E+00 0. -1.
         -5    1    5    5    0  502 -0.44553338516E+01  0.69634727716E+02  0.56729108732E+02  0.90050691732E+02  0.47000000000E+01 0.  1.
         13    1    6    6    0    0 -0.40113045851E+02 -0.12530789166E+02  0.10841700883E+03  0.11627693206E+03  0.00000000000E+00 0. -1.
        -14    1    6    6    0    0  0.21324948385E+02 -0.45886221850E+02  0.52122916620E+02  0.72643631629E+02  0.00000000000E+00 0.  1.
</event>
<event>
12    1  0.8226261E-002  0.1980515E+03  0.7818608E-02  0.1151724E+00
         21   -1    0    0  501  502  0.00000000000E+00  0.00000000000E+00  0.15611355024E+04  0.15611355024E+04  0.00000000000E+00 0.  1.
         21   -1    0    0  502  503 -0.00000000000E+00 -0.00000000000E+00 -0.93720492036E+02  0.93720492036E+02  0.00000000000E+00 0. -1.
         -6    2    1    2    0  503  0.93759981401E+02 -0.28508622150E+02  0.24063323783E+02  0.19797971449E+03  0.17033275712E+03 0.  0.
        -24    2    3    3    0    0  0.10370158428E+03  0.20349424113E+02 -0.16249683813E+02  0.13368995843E+03  0.80254813666E+02 0.  0.
          6    2    1    2  501    0 -0.93759981401E+02  0.28508622150E+02  0.14433516866E+04  0.14568762800E+04  0.17210673512E+03 0.  0.
         24    2    5    5    0    0 -0.43334476172E+02 -0.12728656156E+02  0.35320148768E+03  0.36477152725E+03  0.79164895516E+02 0.  0.
          5    1    5    5  501    0 -0.50425505229E+02  0.41237278306E+02  0.10901501989E+04  0.10921047527E+04  0.47000000000E+01 0. -1.
        -13    1    6    6    0    0  0.39393883411E+01 -0.34222556480E+02  0.20160654154E+03  0.20452848150E+03  0.00000000000E+00 0.  1.
         14    1    6    6    0    0 -0.47273864513E+02  0.21493900324E+02  0.15159494613E+03  0.16024304575E+03  0.00000000000E+00 0. -1.
         -5    1    3    3    0  503 -0.99416028805E+01 -0.48858046263E+02  0.40313007596E+02  0.64289756058E+02  0.47000000000E+01 0.  1.
         13    1    4    4    0    0  0.26869985368E+00  0.28910554263E+02 -0.34146419303E+01  0.29112748529E+02  0.00000000000E+00 0. -1.
        -14    1    4    4    0    0  0.10343288443E+03 -0.85611301494E+01 -0.12835041883E+02  0.10457720990E+03  0.00000000000E+00 0.  1.
</event>
<event>
12    1  0.8226261E-002  0.1756061E+03  0.7818608E-02  0.1178263E+00
         21   -1    0    0  503  502  0.00000000000E+00  0.00000000000E+00  0.62301742367E+02  0.62301742367E+02  0.00000000000E+00 0. -1.
         21   -1    0    0  501  503 -0.00000000000E+00 -0.00000000000E+00 -0.98682782557E+03  0.98682782557E+03  0.00000000000E+00 0. -1.
          6    2    1    2  501    0  0.27665572401E+02  0.10095812355E+02 -0.84082589947E+03  0.85459626323E+03  0.14993088598E+03 0.  0.
         24    2    3    3    0    0  0.37307203007E+02 -0.21133227337E+02 -0.30012648972E+03  0.31288955691E+03  0.77366170237E+02 0.  0.
         -6    2    1    2    0  502 -0.27665572401E+02 -0.10095812355E+02 -0.83700183732E+02  0.19453330471E+03  0.17311896650E+03 0.  0.
        -24    2    5    5    0    0  0.28236068424E+02 -0.49030165256E+02 -0.85508568329E+02  0.12622344058E+03  0.73616635551E+02 0.  0.
          5    1    3    3  501    0 -0.96416306064E+01  0.31229039692E+02 -0.54069940976E+03  0.54170670632E+03  0.47000000000E+01 0. -1.
        -11    1    4    4    0    0 -0.10097750719E+00 -0.42807529058E+02 -0.11307646283E+03  0.12090815186E+03  0.00000000000E+00 0.  1.
         12    1    4    4    0    0  0.37408180514E+02  0.21674301720E+02 -0.18705002688E+03  0.19198140504E+03  0.00000000000E+00 0. -1.
         -5    1    5    5    0  502 -0.55901640825E+02  0.38934352901E+02  0.18083845961E+01  0.68309864131E+02  0.47000000000E+01 0.  1.
         11    1    6    6    0    0  0.43723988724E+02 -0.55582915516E+01 -0.26934977152E+02  0.51654378218E+02  0.00000000000E+00 0. -1.
        -12    1    6    6    0    0 -0.15487920300E+02 -0.43471873705E+02 -0.58573591177E+02  0.74569062365E+02  0.00000000000E+00 0.  1.
</event>
<event>
12    1  0.8226261E-002  0.1779483E+03  0.7818608E-02  0.1169834E+00
         21   -1    0    0  503  502  0.00000000000E+00  0.00000000000E+00  0.84855737664E+03  0.84855737664E+03  0.00000000000E+00 0.  1.
         21   -1    0    0  501  503 -0.00000000000E+00 -0.00000000000E+00 -0.11231785147E+03  0.11231785147E+03  0.00000000000E+00 0. -1.
          6    2    1    2  501    0 -0.37972449361E+02 -0.25463620258E+02 -0.24587493614E+02  0.17951528722E+03  0.17184554296E+03 0.  0.
         24    2    3    3    0    0  0.46921138945E+01 -0.75918007465E+02 -0.23582339275E+02  0.11326567981E+03  0.80544569694E+02 0.  0.
         -6    2    1    2    0  502  0.37972449361E+02  0.25463620258E+02  0.76082701878E+03  0.78135994089E+03  0.17197471284E+03 0.  0.
        -24    2    5    5    0    0  0.69440481617E+02 -0.62084219332E+01  0.29345810709E+03  0.31183981893E+03  0.79157356350E+02 0.  0.
          5    1    3    3  501    0 -0.42664563256E+02  0.50454387207E+02 -0.10051543385E+01  0.66249607406E+02  0.47000000000E+01 0. -1.
        -11    1    4    4    0    0  0.36024801044E+01 -0.91473093403E+01  0.27489895199E+02  0.29194956227E+02  0.00000000000E+00 0.  1.
         12    1    4    4    0    0  0.10896337902E+01 -0.66770698124E+02 -0.51072234474E+02  0.84070723584E+02  0.00000000000E+00 0. -1.
         -5    1    5    5    0  502 -0.31468032256E+02  0.31672042191E+02  0.46736891169E+03  0.46952012196E+03  0.47000000000E+01 0.  1.
         13    1    6    6    0    0 -0.11898231586E+01  0.15128078801E+02  0.83110947630E+01  0.17301697706E+02  0.00000000000E+00 0. -1.
        -14    1    6    6    0    0  0.70630304775E+02 -0.21336500734E+02  0.28514701232E+03  0.29453812122E+03  0.00000000000E+00 0.  1.
</event>
<event>
12    1  0.8226261E-002  0.1819457E+03  0.7818608E-02  0.1166006E+00
         21   -1    0    0  503  502  0.00000000000E+00  0.00000000000E+00  0.26010327054E+03  0.26010327054E+03  0.00000000000E+00 0.  1.
         21   -1    0    0  501  503 -0.00000000000E+00 -0.00000000000E+00 -0.12778445881E+03  0.12778445881E+03  0.00000000000E+00 0.  1.
          6    2    1    2  501    0 -0.54910876690E+02  0.17594682201E+02  0.80819626750E+02  0.19908802737E+03  0.17256724299E+03 0.  0.
         24    2    3    3    0    0  0.20182863003E+02 -0.14058519093E+02  0.81455549720E+02  0.11745782897E+03  0.80971260877E+02 0.  0.
         -6    2    1    2    0  502  0.54910876690E+02 -0.17594682201E+02  0.51499184984E+02  0.18879970198E+03  0.17224512821E+03 0.  0.
        -24    2    5    5    0    0  0.27898367077E+02 -0.25967813863E+02 -0.36022403043E+02  0.96702452395E+02  0.81247181710E+02 0.  0.
          5    1    3    3  501    0 -0.75093739693E+02  0.31653201294E+02 -0.63592296968E+00  0.81630198403E+02  0.47000000000E+01 0. -1.
        -11    1    4    4    0    0 -0.26838762683E+02 -0.23996005568E+02  0.28270800049E+02  0.45775163582E+02  0.00000000000E+00 0.  1.
         12    1    4    4    0    0  0.47021625686E+02  0.99374864746E+01  0.53184749671E+02  0.71682665388E+02  0.00000000000E+00 0. -1.
         -5    1    5    5    0  502  0.27012509614E+02  0.83731316614E+01  0.87521588027E+02  0.92097249580E+02  0.47000000000E+01 0.  1.
         13    1    6    6    0    0  0.55456409622E+02 -0.22250125416E+02 -0.34168841869E+02  0.68833067663E+02  0.00000000000E+00 0. -1.
        -14    1    6    6    0    0 -0.27558042545E+02 -0.37176884461E+01 -0.18535611736E+01  0.27869384732E+02  0.00000000000E+00 0.  1.
</event>
<event>
12    1  0.8226261E-002  0.1772763E+03  0.7818608E-02  0.1170900E+00
         21   -1    0    0  501  502  0.00000000000E+00  0.00000000000E+00  0.18718026474E+03  0.18718026474E+03  0.00000000000E+00 0. -1.
         21   -1    0    0  502  503 -0.00000000000E+00 -0.00000000000E+00 -0.16903100311E+03  0.16903100311E+03  0.00000000000E+00 0. -1.
         -6    2    1    2    0  503  0.20930136671E+02  0.27113530661E+02 -0.13843059980E+02  0.17607134180E+03  0.17215188913E+03 0.  0.
        -24    2    3    3    0    0  0.14493762900E+02  0.84836647516E+02 -0.25983868782E+01  0.11672559385E+03  0.78808544723E+02 0.  0.
          6    2    1    2  501    0 -0.20930136671E+02 -0.27113530661E+02  0.31992321617E+02  0.18013992605E+03  0.17393582192E+03 0.  0.
         24    2    5    5    0    0 -0.35292375219E+02  0.43747856331E+02 -0.13989766958E+02  0.94325868153E+02  0.74446149270E+02 0.  0.
          5    1    5    5  501    0  0.14362238548E+02 -0.70861386992E+02  0.45982088575E+02  0.85814057894E+02  0.47000000000E+01 0. -1.
        -11    1    6    6    0    0 -0.21194661452E+02  0.24377708779E+02  0.30096492773E+02  0.44150710488E+02  0.00000000000E+00 0.  1.
         12    1    6    6    0    0 -0.14097713767E+02  0.19370147552E+02 -0.44086259731E+02  0.50175157665E+02  0.00000000000E+00 0. -1.
         -5    1    3    3    0  503  0.64363737709E+01 -0.57723116855E+02 -0.11244673102E+02  0.59345747952E+02  0.47000000000E+01 0.  1.
         11    1    4    4    0    0 -0.21662401057E+02  0.44164684329E+02  0.25578662672E+02  0.55444088463E+02  0.00000000000E+00 0. -1.
        -12    1    4    4    0    0  0.36156163957E+02  0.40671963187E+02 -0.28177049550E+02  0.61281505390E+02  0.00000000000E+00 0.  1.
</event>
<event>
12    1  0.8226261E-002  0.1900914E+03  0.7818608E-02  0.1158590E+00
         21   -1    0    0  501  502  0.00000000000E+00  0.00000000000E+00  0.75900346232E+03  0.75900346232E+03  0.00000000000E+00 0. -1.
         21   -1    0    0  502  503 -0.00000000000E+00 -0.00000000000E+00 -0.18181420407E+03  0.18181420407E+03  0.00000000000E+00 0. -1.
         -6    2    1    2    0  503 -0.78855953196E+02 -0.16013376250E+02 -0.11609576120E+03  0.22194433788E+03  0.17119104468E+03 0.  0.
        -24    2    3    3    0    0 -0.11718321721E+03  0.12686321694E+02 -0.75068497756E+02  0.15871477063E+03  0.75247922940E+02 0.  0.
          6    2    1    2  501    0  0.78855953196E+02  0.16013376250E+02  0.69328501945E+03  0.71887332851E+03  0.17222094726E+03 0.  0.
         24    2    5    5    0    0  0.49403563171E+02 -0.18880000077E+02  0.17834662795E+03  0.20189303098E+03  0.78460880712E+02 0.  0.
          5    1    5    5  501    0  0.29452390025E+02  0.34893376327E+02  0.51493839150E+03  0.51698029752E+03  0.47000000000E+01 0. -1.
        -11    1    6    6    0    0  0.69385046538E+02 -0.49642955084E+01  0.14230341483E+03  0.15839567792E+03  0.00000000000E+00 0.  1.
         12    1    6    6    0    0 -0.19981483367E+02 -0.13915704568E+02  0.36043213124E+02  0.43497353063E+02  0.00000000000E+00 0. -1.
         -5    1    3    3    0  503  0.38327264019E+02 -0.28699697944E+02 -0.41027263441E+02  0.63229567251E+02  0.47000000000E+01 0.  1.
         13    1    4    4    0    0 -0.77129433746E+02  0.23967590807E+02 -0.98695631540E+01  0.81368318379E+02  0.00000000000E+00 0. -1.
        -14    1    4    4    0    0 -0.40053783469E+02 -0.11281269113E+02 -0.65198934602E+02  0.77346452253E+02  0.00000000000E+00 0.  1.
</event>
<event>
12    1  0.8226261E-002  0.2015135E+03  0.7818608E-02  0.1148543E+00
         21   -1    0    0  503  502  0.00000000000E+00  0.00000000000E+00  0.21163523229E+03  0.21163523229E+03  0.00000000000E+00 0.  1.
         21   -1    0    0  501  503 -0.00000000000E+00 -0.00000000000E+00 -0.33303306107E+03  0.33303306107E+03  0.00000000000E+00 0.  1.
          6    2    1    2  501    0 -0.89079832505E+02 -0.56250376077E+02 -0.23824428648E+03  0.31203847756E+03  0.17177994665E+03 0.  0.
         24    2    3    3    0    0  0.17841807581E+02 -0.44432360017E+01 -0.54518802592E+02  0.93192960560E+02  0.73311360770E+02 0.  0.
         -6    2    1    2    0  502  0.89079832505E+02  0.56250376077E+02  0.11684645770E+03  0.23262981580E+03  0.17135989949E+03 0.  0.
        -24    2    5    5    0    0  0.58220683207E+02 -0.27329846821E+02  0.97115532186E+02  0.14125509185E+03  0.79906231937E+02 0.  0.
          5    1    3    3  501    0 -0.10692164009E+03 -0.51807140075E+02 -0.18372548389E+03  0.21884551700E+03  0.47000000000E+01 0. -1.
        -13    1    4    4    0    0 -0.68429189332E+00 -0.36250851683E+02 -0.15146716402E+02  0.39293962907E+02  0.00000000000E+00 0.  1.
         14    1    4    4    0    0  0.18526099475E+02  0.31807615681E+02 -0.39372086190E+02  0.53898997653E+02  0.00000000000E+00 0. -1.
         -5    1    5    5    0  502  0.30859149298E+02  0.83580222897E+02  0.19730925517E+02  0.91374723949E+02  0.47000000000E+01 0.  1.
         11    1    6    6    0    0  0.31529393463E+02 -0.45591862553E+02  0.22301567830E+02  0.59750150718E+02  0.00000000000E+00 0. -1.
        -12    1    6    6    0    0  0.26691289744E+02  0.18262015732E+02  0.74813964355E+02  0.81504941135E+02  0.00000000000E+00 0.  1.
</event>
<event>
12    1  0.8226261E-002  0.2112817E+03  0.7818608E-02  0.1141534E+00
         21   -1    0    0  503  502  0.00000000000E+00  0.00000000000E+00  0.28284207210E+03  0.28284207210E+03  0.00000000000E+00 0. -1.
         21   -1    0    0  501  503 -0.00000000000E+00 -0.00000000000E+00 -0.15666556033E+03  0.15666556033E+03  0.00000000000E+00 0.  1.
          6    2    1    2  501    0  0.97339841962E+02  0.71961736759E+02  0.91555034339E+02  0.23026567144E+03  0.17316587059E+03 0.  0.
         24    2    3    3    0    0  0.59935276836E+02  0.11549109846E+03  0.54431665206E+02  0.16175186729E+03  0.79186041462E+02 0.  0.
         -6    2    1    2    0  502 -0.97339841962E+02 -0.71961736759E+02  0.34621477426E+02  0.20924196099E+03  0.16712275474E+03 0.  0.
        -24    2    5    5    0    0 -0.17021111935E+02  0.16675320618E+02 -0.41259724477E+01  0.83420336439E+02  0.79838238419E+02 0.  0.
          5    1    3    3  501    0  0.37404565126E+02 -0.43529361701E+02  0.37123369133E+02  0.68513804143E+02  0.47000000000E+01 0. -1.
        -11    1    4    4    0    0 -0.19447073358E+02  0.23162285844E+02  0.15031787153E+02  0.33773284896E+02  0.00000000000E+00 0.  1.
         12    1    4    4    0    0  0.79382350194E+02  0.92328812617E+02  0.39399878053E+02  0.12797858240E+03  0.00000000000E+00 0. -1.
         -5    1    5    5    0  502 -0.80318730028E+02 -0.88637057377E+02  0.38747449874E+02  0.12582162455E+03  0.47000000000E+01 0.  1.
         13    1    6    6    0    0 -0.11142207135E+02  0.40293349886E+02  0.22393245469E+02  0.47425312519E+02  0.00000000000E+00 0. -1.
        -14    1    6    6    0    0 -0.58789047991E+01 -0.23618029268E+02 -0.26519217916E+02  0.35995023921E+02  0.00000000000E+00 0.  1.
</event>
<event>
12    1  0.8226261E-002  0.1738348E+03  0.7818608E-02  0.1174354E+00
         21   -1    0    0  501  502  0.00000000000E+00  0.00000000000E+00  0.54472345565E+03  0.54472345565E+03  0.00000000000E+00 0. -1.
         21   -1    0    0  502  503 -0.00000000000E+00 -0.00000000000E+00 -0.55099039962E+02  0.55099039962E+02  0.00000000000E+00 0. -1.
         -6    2    1    2    0  503  0.10489628924E+01  0.19331339347E+02  0.22628384390E+03  0.28428042122E+03  0.17098590256E+03 0.  0.
        -24    2    3    3    0    0  0.66225472288E+02  0.17966955892E+02  0.14158565631E+03  0.17729578727E+03  0.81723151119E+02 0.  0.
          6    2    1    2  501    0 -0.10489628924E+01 -0.19331339347E+02  0.26334057178E+03  0.31554207439E+03  0.17275341663E+03 0.  0.
         24    2    5    5    0    0  0.25442060898E+02 -0.55233349651E+01  0.41284946417E+02  0.91436683816E+02  0.77320208579E+02 0.  0.
          5    1    5    5  501    0 -0.26491023790E+02 -0.13808004382E+02  0.22205562537E+03  0.22410539057E+03  0.47000000000E+01 0. -1.
        -13    1    6    6    0    0 -0.17433725342E+02 -0.27908389878E+02  0.12823661165E+02  0.35316558306E+02  0.00000000000E+00 0.  1.
         14    1    6    6    0    0  0.42875786240E+02  0.22385054913E+02  0.28461285252E+02  0.56120125510E+02  0.00000000000E+00 0. -1.
         -5    1    3    3    0  503 -0.65176509396E+02  0.13643834551E+01  0.84698187593E+02  0.10698463395E+03  0.47000000000E+01 0.  1.
         11    1    4    4    0    0  0.18199055902E+02  0.32195315924E+02  0.12838621722E+02  0.39148106096E+02  0.00000000000E+00 0. -1.
        -12    1    4    4    0    0  0.48026416386E+02 -0.14228360032E+02  0.12874703458E+03  0.13814768118E+03  0.00000000000E+00 0.  1.
</event>
<event>
12    1  0.8226261E-002  0.2123040E+03  0.7818608E-02  0.1139900E+00
         21   -1    0    0  503  502  0.00000000000E+00  0.00000000000E+00  0.17189339749E+04  0.17189339749E+04  0.00000000000E+00 0.  1.
         21   -1    0    0  501  503 -0.00000000000E+00 -0.00000000000E+00 -0.35615958468E+02  0.35615958468E+02  0.00000000000E+00 0. -1.
          6    2    1    2  501    0 -0.12237834836E+03  0.96068948975E+01  0.12955004728E+04  0.13127811891E+04  0.17321727102E+03 0.  0.
         24    2    3    3    0    0 -0.10353898168E+03  0.31150413854E+01  0.12811081148E+04  0.12877552852E+04  0.79659579077E+02 0.  0.
         -6    2    1    2    0  502  0.12237834836E+03 -0.96068948975E+01  0.38781754365E+03  0.44176874424E+03  0.17230328971E+03 0.  0.
        -24    2    5    5    0    0  0.47349081822E+02  0.40080824689E+02  0.10739899562E+03  0.14722687558E+03  0.79327174254E+02 0.  0.
          5    1    3    3  501    0 -0.18839366682E+02  0.64918535121E+01  0.14392357965E+02  0.25025903915E+02  0.47000000000E+01 0. -1.
        -13    1    4    4    0    0 -0.98112134837E+02  0.32998622335E+01  0.72447526947E+03  0.73109595551E+03  0.00000000000E+00 0.  1.
         14    1    4    4    0    0 -0.54268468404E+01 -0.18482084804E+00  0.55663284536E+03  0.55665932971E+03  0.00000000000E+00 0. -1.
         -5    1    5    5    0  502  0.75029266537E+02 -0.49687719586E+02  0.28041854803E+03  0.29454186866E+03  0.47000000000E+01 0.  1.
         13    1    6    6    0    0 -0.34644081550E+01 -0.72264685922E+01 -0.87781493715E+01  0.11886121258E+02  0.00000000000E+00 0. -1.
        -14    1    6    6    0    0  0.50813489977E+02  0.47307293281E+02  0.11617714500E+03  0.13534075432E+03  0.00000000000E+00 0.  1.
</event>
<event>
12    1  0.8226261E-002  0.2438410E+03  0.7818608E-02  0.1119179E+00
         21   -1    0    0  501  502  0.00000000000E+00  0.00000000000E+00  0.41638750278E+03  0.41638750278E+03  0.00000000000E+00 0. -1.
         21   -1    0    0  502  503 -0.00000000000E+00 -0.00000000000E+00 -0.14254647581E+03  0.14254647581E+03  0.00000000000E+00 0. -1.
         -6    2    1    2    0  503  0.16771787311E+03  0.48523555194E+02  0.19919270422E+03  0.31485894468E+03  0.17021927406E+03 0.  0.
        -24    2    3    3    0    0  0.10614015878E+03  0.10180228134E+02  0.20186400580E+03  0.24211795566E+03  0.80639055443E+02 0.  0.
          6    2    1    2  501    0 -0.16771787311E+03 -0.48523555194E+02  0.74648322747E+02  0.24407503391E+03  0.15335067565E+03 0.  0.
         24    2    5    5    0    0 -0.84211163252E+02 -0.45160796396E+02  0.96682584710E+02  0.15751709125E+03  0.79580740784E+02 0.  0.
          5    1    5    5  501    0 -0.83506709854E+02 -0.33627587984E+01 -0.22034261963E+02  0.86557942660E+02  0.47000000000E+01 0. -1.
        -13    1    6    6    0    0  0.15032150654E+02  0.55185580502E+00  0.13145023435E+02  0.19976529709E+02  0.00000000000E+00 0.  1.
         14    1    6    6    0    0 -0.99243313906E+02 -0.45712652201E+02  0.83537561275E+02  0.13754056154E+03  0.00000000000E+00 0. -1.
         -5    1    3    3    0  503  0.61577714321E+02  0.38343327060E+02 -0.26713015857E+01  0.72740989017E+02  0.47000000000E+01 0.  1.
         11    1    4    4    0    0  0.94759086886E+02 -0.22077495735E+02  0.12857902141E+03  0.16124287616E+03  0.00000000000E+00 0. -1.
        -12    1    4    4    0    0  0.11381071898E+02  0.32257723869E+02  0.73284984395E+02  0.80875079503E+02  0.00000000000E+00 0.  1.
</event>
<event>
12    1  0.8226261E-002  0.2607003E+03  0.7818608E-02  0.1106894E+00
         21   -1    0    0  501  502  0.00000000000E+00  0.00000000000E+00  0.21480439655E+03  0.21480439655E+03  0.00000000000E+00 0. -1.
         21   -1    0    0  502  503 -0.00000000000E+00 -0.00000000000E+00 -0.94300341272E+03  0.94300341272E+03  0.00000000000E+00 0.  1.
         -6    2    1    2    0  503  0.46094811738E+02  0.19343274219E+03 -0.83678152502E+03  0.87645190961E+03  0.16859321405E+03 0.  0.
        -24    2    3    3    0    0 -0.26292810358E+02  0.88914171867E+02 -0.28678837093E+03  0.31193560434E+03  0.80369208756E+02 0.  0.
          6    2    1    2  501    0 -0.46094811738E+02 -0.19343274219E+03  0.10858250885E+03  0.28135589966E+03  0.16682333058E+03 0.  0.
         24    2    5    5    0    0  0.16478077463E+02 -0.14736099543E+03  0.30156268758E+02  0.17085369404E+03  0.79339739173E+02 0.  0.
          5    1    5    5  501    0 -0.62572889201E+02 -0.46071746765E+02  0.78426240088E+02  0.11050220562E+03  0.47000000000E+01 0. -1.
        -11    1    6    6    0    0 -0.30959426044E+02 -0.38367145602E+02  0.91550977590E+01  0.50143192335E+02  0.00000000000E+00 0.  1.
         12    1    6    6    0    0  0.47437503507E+02 -0.10899384983E+03  0.21001171000E+02  0.12071050171E+03  0.00000000000E+00 0. -1.
         -5    1    3    3    0  503  0.72387622095E+02  0.10451857033E+03 -0.54999315409E+03  0.56451630527E+03  0.47000000000E+01 0.  1.
         11    1    4    4    0    0 -0.39239199599E+02  0.17261483200E+02 -0.59966877412E+02  0.73713634925E+02  0.00000000000E+00 0. -1.
        -12    1    4    4    0    0  0.12946389241E+02  0.71652688667E+02 -0.22682149352E+03  0.23822196941E+03  0.00000000000E+00 0.  1.
</event>
<event>
12    1  0.8226261E-002  0.2202735E+03  0.7818608E-02  0.1133699E+00
         21   -1    0    0  501  502  0.00000000000E+00  0.00000000000E+00  0.58700141813E+03  0.58700141813E+03  0.00000000000E+00 0. -1.
         21   -1    0    0  502  503 -0.00000000000E+00 -0.00000000000E+00 -0.14828856891E+03  0.14828856891E+03  0.00000000000E+00 0.  1.
         -6    2    1    2    0  503 -0.95497565058E+01  0.13711045690E+03 -0.25271762815E+02  0.22171850165E+03  0.17213354333E+03 0.  0.
        -24    2    3    3    0    0  0.11732984061E+02  0.15793548895E+03  0.76327286887E+01  0.17709303171E+03  0.78882201711E+02 0.  0.
          6    2    1    2  501    0  0.95497565058E+01 -0.13711045690E+03  0.46398461203E+03  0.51357148539E+03  0.17199847432E+03 0.  0.
         24    2    5    5    0    0  0.28685478160E+02 -0.30000465192E+02  0.10455046928E+03  0.13800029489E+03  0.79939953668E+02 0.  0.
          5    1    5    5  501    0 -0.19135721654E+02 -0.10710999171E+03  0.35943414275E+03  0.37557119051E+03  0.47000000000E+01 0. -1.
        -13    1    6    6    0    0 -0.18914036994E+02 -0.17202999985E+02  0.77854798008E+02  0.81945430482E+02  0.00000000000E+00 0.  1.
         14    1    6    6    0    0  0.47599515154E+02 -0.12797465207E+02  0.26695671275E+02  0.56054864405E+02  0.00000000000E+00 0. -1.
         -5    1    3    3    0  503 -0.21282740567E+02 -0.20825032057E+02 -0.32904491504E+02  0.44625469940E+02  0.47000000000E+01 0.  1.
         11    1    4    4    0    0 -0.28552301110E+02  0.83009154728E+02  0.22768852043E+02  0.90687233339E+02  0.00000000000E+00 0. -1.
        -12    1    4    4    0    0  0.40285285171E+02  0.74926334226E+02 -0.15136123354E+02  0.86405798371E+02  0.00000000000E+00 0.  1.
</event>
<event>
12    1  0.8226261E-002  0.1856121E+03  0.7818608E-02  0.1163379E+00
         21   -1    0    0  501  502  0.00000000000E+00  0.00000000000E+00  0.29721519155E+02  0.29721519155E+02  0.00000000000E+00 0.  1.
         21   -1    0    0  502  503 -0.00000000000E+00 -0.00000000000E+00 -0.16591155754E+04  0.16591155754E+04  0.00000000000E+00 0.  1.
         -6    2    1    2    0  503 -0.57271818966E+02 -0.34923164024E+01 -0.12949116203E+04  0.13081467670E+04  0.17652082632E+03 0.  0.
        -24    2    3    3    0    0 -0.34429761478E+02  0.26579283911E+02 -0.34458994826E+03  0.35706347356E+03  0.82826474619E+02 0.  0.
          6    2    1    2  501    0  0.57271818966E+02  0.34923164024E+01 -0.33448243591E+03  0.38069032751E+03  0.17249454486E+03 0.  0.
         24    2    5    5    0    0  0.10011637043E+03 -0.16462023568E+02 -0.28062007543E+03  0.30887754906E+03  0.79771095810E+02 0.  0.
          5    1    5    5  501    0 -0.42844551461E+02  0.19954339970E+02 -0.53862360478E+02  0.71812778458E+02  0.47000000000E+01 0. -1.
        -11    1    6    6    0    0  0.66560554480E+02  0.17426063437E+02 -0.95441755243E+02  0.11765671992E+03  0.00000000000E+00 0.  1.
         12    1    6    6    0    0  0.33555815947E+02 -0.33888087005E+02 -0.18517832019E+03  0.19122082913E+03  0.00000000000E+00 0. -1.
         -5    1    3    3    0  503 -0.22842057488E+02 -0.30071600314E+02 -0.95032167202E+03  0.95108329343E+03  0.47000000000E+01 0.  1.
         13    1    4    4    0    0  0.12080592888E+02  0.42403169023E+02 -0.14800660047E+03  0.15443420363E+03  0.00000000000E+00 0. -1.
        -14    1    4    4    0    0 -0.46510354366E+02 -0.15823885112E+02 -0.19658334779E+03  0.20262926993E+03  0.00000000000E+00 0.  1.
</event>
<event>
12    1  0.8226261E-002  0.2029364E+03  0.7818608E-02  0.1148143E+00
         21   -1    0    0  503  502  0.00000000000E+00  0.00000000000E+00  0.30301838316E+02  0.30301838316E+02  0.00000000000E+00 0.  1.
         21   -1    0    0  501  503 -0.00000000000E+00 -0.00000000000E+00 -0.14162030312E+04  0.14162030312E+04  0.00000000000E+00 0.  1.
          6    2    1    2  501    0 -0.92055345556E+02 -0.51653786098E+02 -0.87620273909E+03  0.89939669366E+03  0.17332302881E+03 0.  0.
         24    2    3    3    0    0  0.20722077517E+02 -0.26881947212E+02 -0.37721635372E+03  0.38720347432E+03  0.80512790462E+02 0.  0.
         -6    2    1    2    0  502  0.92055345556E+02  0.51653786098E+02 -0.50969845379E+03  0.54710817584E+03  0.16850086653E+03 0.  0.
        -24    2    5    5    0    0  0.45296647216E+02  0.88531240019E+02 -0.24022212307E+03  0.27109023206E+03  0.76770298911E+02 0.  0.
          5    1    3    3  501    0 -0.11277742307E+03 -0.24771838886E+02 -0.49898638537E+03  0.51219321934E+03  0.47000000000E+01 0. -1.
        -11    1    4    4    0    0 -0.18694107380E+02  0.18550111997E+02 -0.14180425138E+03  0.14422906093E+03  0.00000000000E+00 0.  1.
         12    1    4    4    0    0  0.39416184897E+02 -0.45432059209E+02 -0.23541210234E+03  0.24297441339E+03  0.00000000000E+00 0. -1.
         -5    1    5    5    0  502  0.46758698340E+02 -0.36877453921E+02 -0.26947633071E+03  0.27601794379E+03  0.47000000000E+01 0.  1.
         13    1    6    6    0    0  0.21582122564E+02  0.22847577975E+02 -0.16690142481E+03  0.16983487697E+03  0.00000000000E+00 0. -1.
        -14    1    6    6    0    0  0.23714524652E+02  0.65683662044E+02 -0.73320698264E+02  0.10125535508E+03  0.00000000000E+00 0.  1.
</event>
<event>
12    1  0.8226261E-002  0.1770711E+03  0.7818608E-02  0.1171310E+00
         21   -1    0    0  503  502  0.00000000000E+00  0.00000000000E+00  0.84496125333E+02  0.84496125333E+02  0.00000000000E+00 0. -1.
         21   -1    0    0  501  503 -0.00000000000E+00 -0.00000000000E+00 -0.79043524072E+03  0.79043524072E+03  0.00000000000E+00 0. -1.
          6    2    1    2  501    0  0.36167209741E+02 -0.86802309860E+01 -0.67484463759E+03  0.69768865491E+03  0.17312065397E+03 0.  0.
         24    2    3    3    0    0 -0.29475203708E+02  0.39014272340E+02 -0.38874060858E+03  0.40026421491E+03  0.81861345575E+02 0.  0.
         -6    2    1    2    0  502 -0.36167209741E+02  0.86802309860E+01 -0.31094477798E+02  0.17724271115E+03  0.17048371956E+03 0.  0.
        -24    2    5    5    0    0 -0.83958527010E+02  0.14152514562E+02 -0.45655921942E+02  0.12676418552E+03  0.82069285344E+02 0.  0.
          5    1    3    3  501    0  0.65642413450E+02 -0.47694503326E+02 -0.28610402901E+03  0.29742444000E+03  0.47000000000E+01 0. -1.
        -11    1    4    4    0    0 -0.30876533328E+01  0.24285683064E+02 -0.24031066700E+02  0.34304812661E+02  0.00000000000E+00 0.  1.
         12    1    4    4    0    0 -0.26387550375E+02  0.14728589276E+02 -0.36470954188E+03  0.36595940225E+03  0.00000000000E+00 0. -1.
         -5    1    5    5    0  502  0.47791317268E+02 -0.54722835756E+01  0.14561444144E+02  0.50478525625E+02  0.47000000000E+01 0.  1.
         11    1    6    6    0    0 -0.59188079628E+02  0.49736704862E+01  0.14432900600E+02  0.61125074952E+02  0.00000000000E+00 0. -1.
        -12    1    6    6    0    0 -0.24770447382E+02  0.91788440753E+01 -0.60088822542E+02  0.65639110571E+02  0.00000000000E+00 0.  1.
</event>
<event>
12    1  0.8226261E-002  0.1992565E+03  0.7818608E-02  0.1150813E+00
         21   -1    0    0  501  502  0.00000000000E+00  0.00000000000E+00  0.13463596327E+03  0.13463596327E+03  0.00000000000E+00 0.  1.
         21   -1    0    0  502  503 -0.00000000000E+00 -0.00000000000E+00 -0.46491507617E+03  0.46491507617E+03  0.00000000000E+00 0.  1.
         -6    2    1    2    0  503  0.81908860599E+02 -0.52044233387E+02 -0.34860648904E+03  0.40153408095E+03  0.17402721137E+03 0.  0.
        -24    2    3    3    0    0  0.35271546657E+02  0.19556367882E+02 -0.80509663679E+02  0.12010969871E+03  0.79485849373E+02 0.  0.
          6    2    1    2  501    0 -0.81908860599E+02  0.52044233387E+02  0.18327376143E+02  0.19801695848E+03  0.17163088142E+03 0.  0.
         24    2    5    5    0    0 -0.35220924720E+02  0.32391796213E+01 -0.48043893978E+02  0.10320697944E+03  0.84216738437E+02 0.  0.
          5    1    5    5  501    0 -0.46687935879E+02  0.48805053766E+02  0.66371270121E+02  0.94809979048E+02  0.47000000000E+01 0. -1.
        -11    1    6    6    0    0 -0.46241375723E+02  0.17953719339E+02  0.22530620935E+01  0.49655585342E+02  0.00000000000E+00 0.  1.
         12    1    6    6    0    0  0.11020451002E+02 -0.14714539718E+02 -0.50296956071E+02  0.53551394094E+02  0.00000000000E+00 0. -1.
         -5    1    3    3    0  503  0.46637313942E+02 -0.71600601269E+02 -0.26809682536E+03  0.28142438224E+03  0.47000000000E+01 0.  1.
         11    1    4    4    0    0 -0.73582551400E+01  0.13724522623E+02 -0.75154427161E+02  0.76750859030E+02  0.00000000000E+00 0. -1.
        -12    1    4    4    0    0  0.42629801797E+02  0.58318452591E+01 -0.53552365179E+01  0.43358839681E+02  0.00000000000E+00 0.  1.
</event>
<event>
12    1  0.8226261E-002  0.1900228E+03  0.7818608E-02  0.1160134E+00
         21   -1    0    0  501  502  0.00000000000E+00  0.00000000000E+00  0.15249617646E+03  0.15249617646E+03  0.00000000000E+00 0. -1.
         21   -1    0    0  502  503 -0.00000000000E+00 -0.00000000000E+00 -0.88734891932E+03  0.88734891932E+03  0.00000000000E+00 0.  1.
         -6    2    1    2    0  503  0.30074879964E+02 -0.73927036552E+02  0.82686610579E+02  0.20051247741E+03  0.16431212034E+03 0.  0.
        -24    2    3    3    0    0  0.68956351575E+02 -0.88662258853E+02  0.76249516314E+02  0.15817547476E+03  0.81175843149E+02 0.  0.
          6    2    1    2  501    0 -0.30074879964E+02  0.73927036552E+02 -0.81753935343E+03  0.83933261836E+03  0.17244983239E+03 0.  0.
         24    2    5    5    0    0  0.46509298822E+01  0.98266318292E+02 -0.72632657713E+03  0.73863434098E+03  0.91391972187E+02 0.  0.
          5    1    5    5  501    0 -0.34725809846E+02 -0.24339281740E+02 -0.91212776309E+02  0.10069827738E+03  0.47000000000E+01 0. -1.
        -13    1    6    6    0    0 -0.35800874803E+01  0.10766713959E+03 -0.47779314314E+03  0.48978701250E+03  0.00000000000E+00 0.  1.
         14    1    6    6    0    0  0.82310173625E+01 -0.94008213018E+01 -0.24853343398E+03  0.24884732849E+03  0.00000000000E+00 0. -1.
         -5    1    3    3    0  503 -0.38881471611E+02  0.14735222301E+02  0.64370942651E+01  0.42337002651E+02  0.47000000000E+01 0.  1.
         13    1    4    4    0    0 -0.12883420038E+02 -0.92461259635E+01  0.32260548028E+02  0.35947410425E+02  0.00000000000E+00 0. -1.
        -14    1    4    4    0    0  0.81839771613E+02 -0.79416132890E+02  0.43988968286E+02  0.12222806434E+03  0.00000000000E+00 0.  1.
</event>
<event>
12    1  0.8226261E-002  0.3819904E+03  0.7818608E-02  0.1050251E+00
         21   -1    0    0  501  502  0.00000000000E+00  0.00000000000E+00  0.12053903026E+04  0.12053903026E+04  0.00000000000E+00 0. -1.
         21   -1    0    0  502  503 -0.00000000000E+00 -0.00000000000E+00 -0.15573116260E+03  0.15573116260E+03  0.00000000000E+00 0. -1.
         -6    2    1    2    0  503 -0.34216879978E+03  0.13737386974E+02  0.20317435818E+03  0.43266211238E+03  0.16925861965E+03 0.  0.
        -24    2    3    3    0    0 -0.26344931152E+03  0.19729594171E+02  0.82090887040E+02  0.28803859644E+03  0.80203009174E+02 0.  0.
          6    2    1    2  501    0  0.34216879978E+03 -0.13737386974E+02  0.84648478185E+03  0.92845935284E+03  0.16802404781E+03 0.  0.
         24    2    5    5    0    0  0.12133962687E+03  0.75935229425E+01  0.21545843499E+03  0.25955213076E+03  0.78511175861E+02 0.  0.
          5    1    5    5  501    0  0.22082917291E+03 -0.21330909916E+02  0.63102634685E+03  0.66890722208E+03  0.47000000000E+01 0. -1.
        -13    1    6    6    0    0  0.98568935830E+02  0.32266514377E+02  0.12134676642E+03  0.15963082654E+03  0.00000000000E+00 0.  1.
         14    1    6    6    0    0  0.22770691043E+02 -0.24672991435E+02  0.94111668573E+02  0.99921304227E+02  0.00000000000E+00 0. -1.
         -5    1    3    3    0  503 -0.78719488266E+02 -0.59922071975E+01  0.12108347114E+03  0.14462351594E+03  0.47000000000E+01 0.  1.
         13    1    4    4    0    0 -0.88009204512E+02 -0.28054569635E+02  0.43749338893E+02  0.10220901922E+03  0.00000000000E+00 0. -1.
        -14    1    4    4    0    0 -0.17544010700E+03  0.47784163806E+02  0.38341548148E+02  0.18582957722E+03  0.00000000000E+00 0.  1.
</event>
<event>
12    1  0.8226261E-002  0.1911528E+03  0.7818608E-02  0.1161772E+00
         21   -1    0    0  501  502  0.00000000000E+00  0.00000000000E+00  0.32366599283E+03  0.32366599283E+03  0.00000000000E+00 0. -1.
         21   -1    0    0  502  503 -0.00000000000E+00 -0.00000000000E+00 -0.10237427031E+03  0.10237427031E+03  0.00000000000E+00 0.  1.
         -6    2    1    2    0  503  0.20694093263E+02  0.82085280684E+02  0.10991205498E+03  0.22049952506E+03  0.17138594435E+03 0.  0.
        -24    2    3    3    0    0 -0.12736050967E+02 -0.17245451983E+02  0.65046066251E+02  0.10639774620E+03  0.81424056964E+02 0.  0.
          6    2    1    2  501    0 -0.20694093263E+02 -0.82085280684E+02  0.11137966754E+03  0.20554073808E+03  0.15058328549E+03 0.  0.
         24    2    5    5    0    0  0.97365401098E+00 -0.22013615864E+02  0.70360661915E+01  0.83116176293E+02  0.79832607678E+02 0.  0.
          5    1    5    5  501    0 -0.21667747274E+02 -0.60071664820E+02  0.10434360135E+03  0.12242456179E+03  0.47000000000E+01 0. -1.
        -13    1    6    6    0    0  0.30745168949E+02 -0.15603354739E+02 -0.22113457782E+02  0.40960164891E+02  0.00000000000E+00 0.  1.
         14    1    6    6    0    0 -0.29771514938E+02 -0.64102611242E+01  0.29149523974E+02  0.42156011402E+02  0.00000000000E+00 0. -1.
         -5    1    3    3    0  503  0.33430144230E+02  0.99330732667E+02  0.44865988729E+02  0.11410177886E+03  0.47000000000E+01 0.  1.
         13    1    4    4    0    0  0.17585691272E+02 -0.28033120370E+02  0.66396028567E+02  0.74185881303E+02  0.00000000000E+00 0. -1.
        -14    1    4    4    0    0 -0.30321742239E+02  0.10787668387E+02 -0.13499623158E+01  0.32211864893E+02  0.00000000000E+00 0.  1.
</event>
<event>
12    1  0.8226261E-002  0.1905861E+03  0.7818608E-02  0.1158078E+00
         21   -1    0    0  503  502  0.00000000000E+00  0.00000000000E+00  0.36132893502E+03  0.36132893502E+03  0.00000000000E+00 0.  1.
         21   -1    0    0  501  503 -0.00000000000E+00 -0.00000000000E+00 -0.16807625673E+03  0.16807625673E+03  0.00000000000E+00 0.  1.
          6    2    1    2  501    0  0.21166767209E+02 -0.77004001806E+02 -0.71700793980E+02  0.20302595762E+03  0.17233945364E+03 0.  0.
         24    2    3    3    0    0 -0.47766149186E+02 -0.54527320210E+02 -0.30187589251E+02  0.11934570699E+03  0.89873653396E+02 0.  0.
         -6    2    1    2    0  502 -0.21166767209E+02  0.77004001806E+02  0.26495347227E+03  0.32637923414E+03  0.17304743188E+03 0.  0.
        -24    2    5    5    0    0 -0.71006703001E+02  0.75970497053E+02  0.13876651239E+03  0.19062089673E+03  0.79162573328E+02 0.  0.
          5    1    3    3  501    0  0.68932916395E+02 -0.22476681596E+02 -0.41513204729E+02  0.83680250628E+02  0.47000000000E+01 0. -1.
        -11    1    4    4    0    0  0.17287608516E+02 -0.31067709305E+02 -0.35172615460E+02  0.50011767095E+02  0.00000000000E+00 0.  1.
         12    1    4    4    0    0 -0.65053757702E+02 -0.23459610905E+02  0.49850262097E+01  0.69333939894E+02  0.00000000000E+00 0. -1.
         -5    1    5    5    0  502  0.49839935793E+02  0.10335047535E+01  0.12618695988E+03  0.13575833740E+03  0.47000000000E+01 0.  1.
         13    1    6    6    0    0 -0.60606036325E+02  0.21482104233E+02  0.35628849076E+02  0.73511817606E+02  0.00000000000E+00 0. -1.
        -14    1    6    6    0    0 -0.10400666677E+02  0.54488392820E+02  0.10313766332E+03  0.11710907913E+03  0.00000000000E+00 0.  1.
</event>
<event>
12    1  0.8226261E-002  0.2610439E+03  0.7818608E-02  0.1106650E+00
         21   -1    0    0  501  502  0.00000000000E+00  0.00000000000E+00  0.61890796789E+03  0.61890796789E+03  0.00000000000E+00 0.  1.
         21   -1    0    0  502  503 -0.00000000000E+00 -0.00000000000E+00 -0.11336865293E+03  0.11336865293E+03  0.00000000000E+00 0.  1.
         -6    2    1    2    0  503 -0.89461147086E+02 -0.17397536436E+03  0.18758819329E+03  0.32145485443E+03  0.17283856322E+03 0.  0.
        -24    2    3    3    0    0 -0.74726767623E+00 -0.11979908058E+03  0.51682955351E+02  0.15028959563E+03  0.74588581989E+02 0.  0.
          6    2    1    2  501    0  0.89461147086E+02  0.17397536436E+03  0.31795112167E+03  0.41082176639E+03  0.17149601664E+03 0.  0.
         24    2    5    5    0    0  0.89616471424E+02  0.84916414911E+02  0.27479683337E+03  0.31174652629E+03  0.80191567824E+02 0.  0.
          5    1    5    5  501    0 -0.15532433865E+00  0.89058949446E+02  0.43154288299E+02  0.99075240099E+02  0.47000000000E+01 0. -1.
        -11    1    6    6    0    0  0.39074402152E+02 -0.83374521934E+01  0.58501618348E+02  0.70843216767E+02  0.00000000000E+00 0.  1.
         12    1    6    6    0    0  0.50542069273E+02  0.93253867104E+02  0.21629521502E+03  0.24090330952E+03  0.00000000000E+00 0. -1.
         -5    1    3    3    0  503 -0.88713879410E+02 -0.54176283777E+02  0.13590523794E+03  0.17116525881E+03  0.47000000000E+01 0.  1.
         13    1    4    4    0    0  0.24330197885E+02 -0.20504638123E+02  0.33633195038E+02  0.46298925713E+02  0.00000000000E+00 0. -1.
        -14    1    4    4    0    0 -0.25077465562E+02 -0.99294442457E+02  0.18049760313E+02  0.10399066991E+03  0.00000000000E+00 0.  1.
</event>
<event>
12    1  0.8226261E-002  0.1920043E+03  0.7818608E-02  0.1156877E+00
         21   -1    0    0  503  502  0.00000000000E+00  0.00000000000E+00  0.21624793482E+03  0.21624793482E+03  0.00000000000E+00 0. -1.
         21   -1    0    0  501  503 -0.00000000000E+00 -0.00000000000E+00 -0.17613212036E+03  0.17613212036E+03  0.00000000000E+00 0.  1.
          6    2    1    2  501    0 -0.72663374046E+02  0.47619624554E+02  0.57778648312E+02  0.20050942236E+03  0.17122517830E+03 0.  0.
         24    2    3    3    0    0  0.19069183860E+02  0.53660589580E+01 -0.70192905600E+00  0.83709191563E+02  0.81328394094E+02 0.  0.
         -6    2    1    2    0  502  0.72663374046E+02 -0.47619624554E+02 -0.17662833857E+02  0.19187063281E+03  0.17016101042E+03 0.  0.
        -24    2    5    5    0    0  0.20020519300E+02 -0.95304748521E+02 -0.19604865520E+02  0.12065965971E+03  0.68487856190E+02 0.  0.
          5    1    3    3  501    0 -0.91732557906E+02  0.42253565596E+02  0.58480577368E+02  0.11680023080E+03  0.47000000000E+01 0. -1.
        -11    1    4    4    0    0  0.10764220444E+02 -0.85849153338E+00 -0.40843886458E+02  0.42247230802E+02  0.00000000000E+00 0.  1.
         12    1    4    4    0    0  0.83049634154E+01  0.62245504914E+01  0.40141957402E+02  0.41461960761E+02  0.00000000000E+00 0. -1.
         -5    1    5    5    0  502  0.52642854747E+02  0.47685123967E+02  0.19420316627E+01  0.71210973106E+02  0.47000000000E+01 0.  1.
         13    1    6    6    0    0  0.12590895623E+02  0.31574909341E+01  0.11283154987E+02  0.17199127537E+02  0.00000000000E+00 0. -1.
        -14    1    6    6    0    0  0.74296236765E+01 -0.98462239455E+02 -0.30888020507E+02  0.10346053217E+03  0.00000000000E+00 0.  1.
</event>
<event>
12    1  0.8226261E-002  0.1762269E+03  0.7818608E-02  0.1171651E+00
         21   -1    0    0  501  502  0.00000000000E+00  0.00000000000E+00  0.21583904811E+04  0.21583904811E+04  0.00000000000E+00 0.  1.
         21   -1    0    0  502  503 -0.00000000000E+00 -0.00000000000E+00 -0.17975806862E+02  0.17975806862E+02  0.00000000000E+00 0.  1.
         -6    2    1    2    0  503 -0.26341204768E+02  0.23278091409E+02  0.15609689657E+04  0.15708851126E+04  0.17268525210E+03 0.  0.
        -24    2    3    3    0    0 -0.19086583565E+02  0.81488545342E+02  0.84226177995E+03  0.84977264189E+03  0.75524540630E+02 0.  0.
          6    2    1    2  501    0  0.26341204768E+02 -0.23278091409E+02  0.57944570846E+03  0.60548117536E+03  0.17208833791E+03 0.  0.
         24    2    5    5    0    0 -0.38697448450E+02 -0.30158317283E+02  0.19690541454E+03  0.21736195347E+03  0.77893901711E+02 0.  0.
          5    1    5    5  501    0  0.65038653218E+02  0.68802258740E+01  0.38254029393E+03  0.38811922189E+03  0.47000000000E+01 0. -1.
        -11    1    6    6    0    0  0.10529787629E+02 -0.82134512483E+01  0.14694141397E+00  0.13355103919E+02  0.00000000000E+00 0.  1.
         12    1    6    6    0    0 -0.49227236079E+02 -0.21944866035E+02  0.19675847312E+03  0.20400684955E+03  0.00000000000E+00 0. -1.
         -5    1    3    3    0  503 -0.72546212026E+01 -0.58210453933E+02  0.71870718577E+03  0.72111247067E+03  0.47000000000E+01 0.  1.
         13    1    4    4    0    0 -0.23396562879E+02  0.12168538417E+02  0.77510745200E+02  0.81874221238E+02  0.00000000000E+00 0. -1.
        -14    1    4    4    0    0  0.43099793140E+01  0.69320006925E+02  0.76475103475E+03  0.76789842065E+03  0.00000000000E+00 0.  1.
</event>
<event>
12    1  0.8226261E-002  0.1837269E+03  0.7818608E-02  0.1164416E+00
         21   -1    0    0  501  502  0.00000000000E+00  0.00000000000E+00  0.25516173086E+03  0.25516173086E+03  0.00000000000E+00 0.  1.
         21   -1    0    0  502  503 -0.00000000000E+00 -0.00000000000E+00 -0.31477443233E+03  0.31477443233E+03  0.00000000000E+00 0.  1.
         -6    2    1    2    0  503 -0.29295594072E+02  0.55899520433E+02 -0.24706740764E+03  0.30745786768E+03  0.17177033580E+03 0.  0.
        -24    2    3    3    0    0  0.19374054299E+02  0.44354515678E+02 -0.23898694148E+03  0.25657166384E+03  0.79822198965E+02 0.  0.
          6    2    1    2  501    0  0.29295594072E+02 -0.55899520433E+02  0.18745470617E+03  0.26247829551E+03  0.17254738633E+03 0.  0.
         24    2    5    5    0    0 -0.70159771921E+01  0.16751520946E+02  0.34463707153E+02  0.89200946142E+02  0.80244777349E+02 0.  0.
          5    1    5    5  501    0  0.36311571264E+02 -0.72651041379E+02  0.15299099902E+03  0.17327734936E+03  0.47000000000E+01 0. -1.
        -11    1    6    6    0    0  0.10439670075E+02 -0.24293245626E+02  0.35886760075E+02  0.44575868393E+02  0.00000000000E+00 0.  1.
         12    1    6    6    0    0 -0.17455647267E+02  0.41044766572E+02 -0.14230529215E+01  0.44625077749E+02  0.00000000000E+00 0. -1.
         -5    1    3    3    0  503 -0.48669648371E+02  0.11545004755E+02 -0.80804661602E+01  0.50886203835E+02  0.47000000000E+01 0.  1.
         13    1    4    4    0    0  0.28246200349E+02 -0.53453281223E+01 -0.16184310644E+03  0.16437643222E+03  0.00000000000E+00 0. -1.
        -14    1    4    4    0    0 -0.88721460496E+01  0.49699843800E+02 -0.77143835041E+02  0.92195231623E+02  0.00000000000E+00 0.  1.
</event>
<event>
12    1  0.8226261E-002  0.2166889E+03  0.7818608E-02  0.1136546E+00
         21   -1    0    0  501  502  0.00000000000E+00  0.00000000000E+00  0.86122701268E+03  0.86122701268E+03  0.00000000000E+00 0.  1.
         21   -1    0    0  502  503 -0.00000000000E+00 -0.00000000000E+00 -0.76702695765E+02  0.76702695765E+02  0.00000000000E+00 0.  1.
         -6    2    1    2    0  503 -0.97320406327E+02 -0.80105280884E+02  0.13936330690E+03  0.25763582138E+03  0.17625540456E+03 0.  0.
        -24    2    3    3    0    0 -0.32678846189E+02 -0.75808410082E+02  0.15295388188E+03  0.19127477766E+03  0.79851916447E+02 0.  0.
          6    2    1    2  501    0  0.97320406327E+02  0.80105280884E+02  0.64516101001E+03  0.68029388706E+03  0.17515400772E+03 0.  0.
         24    2    5    5    0    0  0.10502770173E+03  0.11020303013E+03  0.43317452899E+03  0.46599121548E+03  0.79574583595E+02 0.  0.
          5    1    5    5  501    0 -0.77072954065E+01 -0.30097749247E+02  0.21198648102E+03  0.21430267158E+03  0.47000000000E+01 0. -1.
        -11    1    6    6    0    0  0.10088822438E+02  0.64734194253E+02  0.19114348825E+03  0.20205972717E+03  0.00000000000E+00 0.  1.
         12    1    6    6    0    0  0.94938879296E+02  0.45468835878E+02  0.24203104075E+03  0.26393148831E+03  0.00000000000E+00 0. -1.
         -5    1    3    3    0  503 -0.64641560139E+02 -0.42968708022E+01 -0.13590574976E+02  0.66361043723E+02  0.47000000000E+01 0.  1.
         11    1    4    4    0    0 -0.37867358627E+02 -0.47976900160E+01  0.83495667017E+02  0.91806759498E+02  0.00000000000E+00 0. -1.
        -12    1    4    4    0    0  0.51885124380E+01 -0.71010720066E+02  0.69458214861E+02  0.99468018163E+02  0.00000000000E+00 0.  1.
</event>
<event>
12    1  0.8226261E-002  0.2668219E+03  0.7818608E-02  0.1103176E+00
         21   -1    0    0  503  502  0.00000000000E+00  0.00000000000E+00  0.13421546584E+03  0.13421546584E+03  0.00000000000E+00 0.  1.
         21   -1    0    0  501  503 -0.00000000000E+00 -0.00000000000E+00 -0.10013140223E+04  0.10013140223E+04  0.00000000000E+00 0. -1.
          6    2    1    2  501    0  0.14074221859E+03  0.14800605233E+03 -0.82343705901E+03  0.86558796260E+03  0.17169673041E+03 0.  0.
         24    2    3    3    0    0  0.97148519921E+02  0.83265709522E+02 -0.29313095818E+03  0.32954843689E+03  0.79406550786E+02 0.  0.
         -6    2    1    2    0  502 -0.14074221859E+03 -0.14800605233E+03 -0.43661497488E+02  0.26994152556E+03  0.17102028312E+03 0.  0.
        -24    2    5    5    0    0 -0.73902420335E+02 -0.42398491680E+02 -0.77883879051E+02  0.14027357695E+03  0.79696787551E+02 0.  0.
          5    1    3    3  501    0  0.43593698673E+02  0.64740342810E+02 -0.53030610083E+03  0.53603952572E+03  0.47000000000E+01 0. -1.
        -11    1    4    4    0    0  0.56478567646E+02  0.73665255174E+02 -0.12148408470E+03  0.15288813315E+03  0.00000000000E+00 0.  1.
         12    1    4    4    0    0  0.40669952275E+02  0.96004543484E+01 -0.17164687347E+03  0.17666030373E+03  0.00000000000E+00 0. -1.
         -5    1    5    5    0  502 -0.66839798259E+02 -0.10560756065E+03  0.34222381564E+02  0.12966794862E+03  0.47000000000E+01 0.  1.
         13    1    6    6    0    0 -0.27181029267E+00 -0.12997745350E+02 -0.56752250105E+02  0.58222273719E+02  0.00000000000E+00 0. -1.
        -14    1    6    6    0    0 -0.73630610042E+02 -0.29400746330E+02 -0.21131628947E+02  0.82051303231E+02  0.00000000000E+00 0.  1.
</event>
<event>
12    1  0.8226261E-002  0.2215963E+03  0.7818608E-02  0.1133211E+00
         21   -1    0    0  503  502  0.00000000000E+00  0.00000000000E+00  0.75897744465E+02  0.75897744465E+02  0.00000000000E+00 0.  1.
         21   -1    0    0  501  503 -0.00000000000E+00 -0.00000000000E+00 -0.80161939580E+03  0.80161939580E+03  0.00000000000E+00 0.  1.
          6    2    1    2  501    0 -0.13842613568E+03 -0.10231068397E+02 -0.55869071352E+03  0.60002073130E+03  0.16918361275E+03 0.  0.
         24    2    3    3    0    0 -0.15540501420E+03 -0.42680105166E+02 -0.41637257328E+03  0.45299092023E+03  0.76565946836E+02 0.  0.
         -6    2    1    2    0  502  0.13842613568E+03  0.10231068397E+02 -0.16703093781E+03  0.27749640896E+03  0.17273810524E+03 0.  0.
        -24    2    5    5    0    0  0.88439867656E+02 -0.50574641733E+02 -0.56758825812E+02  0.14193096329E+03  0.80891467133E+02 0.  0.
          5    1    3    3  501    0  0.16978878524E+02  0.32449036769E+02 -0.14231814024E+03  0.14702981108E+03  0.47000000000E+01 0. -1.
        -13    1    4    4    0    0 -0.40795728961E+02  0.20228712260E+02 -0.79182714841E+02  0.91342184290E+02  0.00000000000E+00 0.  1.
         14    1    4    4    0    0 -0.11460928524E+03 -0.62908817426E+02 -0.33718985844E+03  0.36164873594E+03  0.00000000000E+00 0. -1.
         -5    1    5    5    0  502  0.49986268020E+02  0.60805710130E+02 -0.11027211200E+03  0.13556544567E+03  0.47000000000E+01 0.  1.
         11    1    6    6    0    0  0.93936821272E+01  0.14472802316E+02  0.97839626462E+01  0.19835049681E+02  0.00000000000E+00 0. -1.
        -12    1    6    6    0    0  0.79046185528E+02 -0.65047444049E+02 -0.66542788458E+02  0.12209591361E+03  0.00000000000E+00 0.  1.
</event>
<event>
12    1  0.8226261E-002  0.3261468E+03  0.7818608E-02  0.1072883E+00
         21   -1    0    0  503  502  0.00000000000E+00  0.00000000000E+00  0.55517621297E+03  0.55517621297E+03  0.00000000000E+00 0. -1.
         21   -1    0    0  501  503 -0.00000000000E+00 -0.00000000000E+00 -0.26668601088E+03  0.26668601088E+03  0.00000000000E+00 0.  1.
          6    2    1    2  501    0 -0.20616769828E+02  0.27564544096E+03  0.36254922028E+03  0.48766140092E+03  0.17310760960E+03 0.  0.
         24    2    3    3    0    0  0.39776136769E+02  0.23898473037E+03  0.26942606291E+03  0.37067711433E+03  0.78200238575E+02 0.  0.
         -6    2    1    2    0  502  0.20616769828E+02 -0.27564544096E+03 -0.74059018192E+02  0.33420082294E+03  0.17262674057E+03 0.  0.
        -24    2    5    5    0    0  0.76663209503E+02 -0.13896180198E+03 -0.55920120537E+02  0.18528900282E+03  0.77571416020E+02 0.  0.
          5    1    3    3  501    0 -0.60392906596E+02  0.36660710590E+02  0.93123157377E+02  0.11698428659E+03  0.47000000000E+01 0. -1.
        -13    1    4    4    0    0  0.73669959571E+00 -0.41332577309E+01 -0.16065801389E+01  0.44952914819E+01  0.00000000000E+00 0.  1.
         14    1    4    4    0    0  0.39039437173E+02  0.24311798810E+03  0.27103264304E+03  0.36618182285E+03  0.00000000000E+00 0. -1.
         -5    1    5    5    0  502 -0.56046439676E+02 -0.13668363897E+03 -0.18138897656E+02  0.14891182012E+03  0.47000000000E+01 0.  1.
         11    1    6    6    0    0  0.99145698223E+01 -0.34916460042E+02  0.18768197379E+02  0.40862000802E+02  0.00000000000E+00 0. -1.
        -12    1    6    6    0    0  0.66748639681E+02 -0.10404534194E+03 -0.74688317916E+02  0.14442700202E+03  0.00000000000E+00 0.  1.
</event>
<event>
12    1  0.8226261E-002  0.1852922E+03  0.7818608E-02  0.1162799E+00
         21   -1    0    0  501  502  0.00000000000E+00  0.00000000000E+00  0.46343811802E+03  0.46343811802E+03  0.00000000000E+00 0. -1.
         21   -1    0    0  502  503 -0.00000000000E+00 -0.00000000000E+00 -0.93674277066E+02  0.93674277066E+02  0.00000000000E+00 0. -1.
         -6    2    1    2    0  503 -0.34563950544E+02  0.57691772706E+02  0.57411264662E+02  0.19398263937E+03  0.17265631686E+03 0.  0.
        -24    2    3    3    0    0  0.19669286809E+02  0.90798552509E+02  0.36416490004E+02  0.12689930712E+03  0.78396526849E+02 0.  0.
          6    2    1    2  501    0  0.34563950544E+02 -0.57691772706E+02  0.31235257629E+03  0.36312975572E+03  0.17255746943E+03 0.  0.
         24    2    5    5    0    0  0.88970389481E+02 -0.38183067099E+02  0.24360638605E+03  0.27319211696E+03  0.76916738281E+02 0.  0.
          5    1    5    5  501    0 -0.54406438937E+02 -0.19508705607E+02  0.68746190248E+02  0.89937638761E+02  0.47000000000E+01 0. -1.
        -11    1    6    6    0    0  0.74779743992E+02  0.80465905373E+01  0.14337754836E+03  0.16190700759E+03  0.00000000000E+00 0.  1.
         12    1    6    6    0    0  0.14190645489E+02 -0.46229657637E+02  0.10022883768E+03  0.11128510937E+03  0.00000000000E+00 0. -1.
         -5    1    3    3    0  503 -0.54233237353E+02 -0.33106779803E+02  0.20994774658E+02  0.67083332249E+02  0.47000000000E+01 0.  1.
         13    1    4    4    0    0  0.14332951636E+01  0.86457785446E+02  0.53378975863E+02  0.10161849272E+03  0.00000000000E+00 0. -1.
        -14    1    4    4    0    0  0.18235991645E+02  0.43407670621E+01 -0.16962485859E+02  0.25280814396E+02  0.00000000000E+00 0.  1.
</event>
<event>
12    1  0.8226261E-002  0.1974558E+03  0.7818608E-02  0.1152344E+00
         21   -1    0    0  501  502  0.00000000000E+00  0.00000000000E+00  0.10624716156E+04  0.10624716156E+04  0.00000000000E+00 0.  1.
         21   -1    0    0  502  503 -0.00000000000E+00 -0.00000000000E+00 -0.97014475363E+02  0.97014475363E+02  0.00000000000E+00 0.  1.
         -6    2    1    2    0  503  0.92581112869E+02  0.78701795053E+01  0.23228115183E+02  0.19678969968E+03  0.17191113512E+03 0.  0.
        -24    2    3    3    0    0  0.63825532585E+02  0.69040569604E+02  0.37487596942E+02  0.12755009510E+03  0.77610617660E+02 0.  0.
          6    2    1    2  501    0 -0.92581112869E+02 -0.78701795053E+01  0.94222902502E+03  0.96269639125E+03  0.17422859684E+03 0.  0.
         24    2    5    5    0    0 -0.65797407365E+02 -0.67676807814E+02  0.48150572863E+03  0.49731241483E+03  0.81008778008E+02 0.  0.
          5    1    5    5  501    0 -0.26783705503E+02  0.59806628309E+02  0.46072329639E+03  0.46538397642E+03  0.47000000000E+01 0. -1.
        -11    1    6    6    0    0 -0.48685447926E+02 -0.14775140980E+02  0.36137159662E+03  0.36493562237E+03  0.00000000000E+00 0.  1.
         12    1    6    6    0    0 -0.17111959440E+02 -0.52901666834E+02  0.12013413200E+03  0.13237679246E+03  0.00000000000E+00 0. -1.
         -5    1    3    3    0  503  0.28755580284E+02 -0.61170390099E+02 -0.14259481758E+02  0.69239604579E+02  0.47000000000E+01 0.  1.
         11    1    4    4    0    0  0.20344898216E+02  0.65154587121E+01  0.46196052505E+02  0.50896378581E+02  0.00000000000E+00 0. -1.
        -12    1    4    4    0    0  0.43480634369E+02  0.62525110892E+02 -0.87084555633E+01  0.76653716515E+02  0.00000000000E+00 0.  1.
</event>
<event>
12    1  0.8226261E-002  0.1794725E+03  0.7818608E-02  0.1168457E+00
         21   -1    0    0  501  502  0.00000000000E+00  0.00000000000E+00  0.14851476983E+04  0.14851476983E+04  0.00000000000E+00 0.  1.
         21   -1    0    0  502  503 -0.00000000000E+00 -0.00000000000E+00 -0.38467907254E+02  0.38467907254E+02  0.00000000000E+00 0. -1.
         -6    2    1    2    0  503 -0.45653956646E+02  0.12461182467E+01  0.21847534687E+03  0.28236762455E+03  0.17295710922E+03 0.  0.
        -24    2    3    3    0    0  0.36337193091E+02 -0.62703240843E+01  0.15430213141E+03  0.17787199247E+03  0.80433757716E+02 0.  0.
          6    2    1    2  501    0  0.45653956646E+02 -0.12461182467E+01  0.12282044442E+04  0.12412479810E+04  0.17356427372E+03 0.  0.
         24    2    5    5    0    0 -0.25428516372E+02 -0.46249452520E+02  0.62431118587E+03  0.63150444846E+03  0.79042965010E+02 0.  0.
          5    1    5    5  501    0  0.71082473017E+02  0.45003334273E+02  0.60389325833E+03  0.60974353258E+03  0.47000000000E+01 0. -1.
        -13    1    6    6    0    0 -0.37448372569E+02 -0.53034899782E+02  0.30209083931E+03  0.30898860238E+03  0.00000000000E+00 0.  1.
         14    1    6    6    0    0  0.12019856198E+02  0.67854472621E+01  0.32222034656E+03  0.32251584608E+03  0.00000000000E+00 0. -1.
         -5    1    3    3    0  503 -0.81991149737E+02  0.75164423310E+01  0.64173215464E+02  0.10449563208E+03  0.47000000000E+01 0.  1.
         11    1    4    4    0    0 -0.13306604658E+02 -0.17471396617E+02  0.86827453253E+01  0.23615789075E+02  0.00000000000E+00 0. -1.
        -12    1    4    4    0    0  0.49643797749E+02  0.11201072532E+02  0.14561938609E+03  0.15425620339E+03  0.00000000000E+00 0.  1.
</event>
<event>
12    1  0.8226261E-002  0.1799133E+03  0.7818608E-02  0.1168122E+00
         21   -1    0    0  501  502  0.00000000000E+00  0.00000000000E+00  0.27821511126E+03  0.27821511126E+03  0.00000000000E+00 0. -1.
         21   -1    0    0  502  503 -0.00000000000E+00 -0.00000000000E+00 -0.11652423481E+03  0.11652423481E+03  0.00000000000E+00 0.  1.
         -6    2    1    2    0  503 -0.39514643412E+02  0.30656536830E+02  0.64222997148E+02  0.19012072950E+03  0.17181405102E+03 0.  0.
        -24    2    3    3    0    0 -0.61963932954E+02 -0.32224212922E+02  0.63011199358E+02  0.12317659051E+03  0.79524413362E+02 0.  0.
          6    2    1    2  501    0  0.39514643412E+02 -0.30656536830E+02  0.97467879295E+02  0.20461861657E+03  0.17282233785E+03 0.  0.
         24    2    5    5    0    0  0.12557147293E+02 -0.24312726106E+02 -0.17673918329E+02  0.86099950989E+02  0.79699708735E+02 0.  0.
          5    1    5    5  501    0  0.26957496119E+02 -0.63438107236E+01  0.11514179762E+03  0.11851866558E+03  0.47000000000E+01 0. -1.
        -13    1    6    6    0    0  0.45047310900E+02 -0.49910864186E+01 -0.25791708508E+01  0.45396291536E+02  0.00000000000E+00 0.  1.
         14    1    6    6    0    0 -0.32490163607E+02 -0.19321639687E+02 -0.15094747478E+02  0.40703659453E+02  0.00000000000E+00 0. -1.
         -5    1    3    3    0  503  0.22449289543E+02  0.62880749752E+02  0.12117977897E+01  0.66944138983E+02  0.47000000000E+01 0.  1.
         11    1    4    4    0    0  0.17076391362E+02  0.46410122272E+01  0.17133526829E+02  0.24631278449E+02  0.00000000000E+00 0. -1.
        -12    1    4    4    0    0 -0.79040324316E+02 -0.36865225149E+02  0.45877672529E+02  0.98545312065E+02  0.00000000000E+00 0.  1.
</event>
<event>
12    1  0.8226261E-002  0.1851538E+03  0.7818608E-02  0.1165928E+00
         21   -1    0    0  501  502  0.00000000000E+00  0.00000000000E+00  0.23507361180E+03  0.23507361180E+03  0.00000000000E+00 0. -1.
         21   -1    0    0  502  503 -0.00000000000E+00 -0.00000000000E+00 -0.14198909935E+03  0.14198909935E+03  0.00000000000E+00 0. -1.
         -6    2    1    2    0  503  0.78830422161E+01  0.17752770741E+02  0.86244623938E+02  0.20425490902E+03  0.18413209791E+03 0.  0.
        -24    2    3    3    0    0 -0.32794056494E+02 -0.53881821213E+02  0.38144326190E+02  0.10874642894E+03  0.79950580917E+02 0.  0.
          6    2    1    2  501    0 -0.78830422161E+01 -0.17752770741E+02  0.68398885157E+01  0.17280780213E+03  0.17157636544E+03 0.  0.
         24    2    5    5    0    0  0.38324750624E+01 -0.61361942100E+02  0.47568963424E+02  0.11181632146E+03  0.80374794925E+02 0.  0.
          5    1    5    5  501    0 -0.11715517279E+02  0.43609171359E+02 -0.40729074908E+02  0.60991480672E+02  0.47000000000E+01 0. -1.
        -13    1    6    6    0    0  0.33292654397E+02 -0.63344288354E+02  0.35981289818E+02  0.80097146771E+02  0.00000000000E+00 0.  1.
         14    1    6    6    0    0 -0.29460179335E+02  0.19823462538E+01  0.11587673606E+02  0.31719174685E+02  0.00000000000E+00 0. -1.
         -5    1    3    3    0  503  0.40677098710E+02  0.71634591955E+02  0.48100297748E+02  0.95508480081E+02  0.47000000000E+01 0.  1.
         13    1    4    4    0    0 -0.33523539191E+00 -0.28277420514E+01  0.47450742909E+02  0.47536107440E+02  0.00000000000E+00 0. -1.
        -14    1    4    4    0    0 -0.32458821102E+02 -0.51054079162E+02 -0.93064167198E+01  0.61210321504E+02  0.00000000000E+00 0.  1.
</event>
<event>
12    1  0.8226261E-002  0.1750484E+03  0.7818608E-02  0.1173304E+00
         21   -1    0    0  503  502  0.00000000000E+00  0.00000000000E+00  0.29528394418E+03  0.29528394418E+03  0.00000000000E+00 0.  1.
         21   -1    0    0  501  503 -0.00000000000E+00 -0.00000000000E+00 -0.14250012143E+03  0.14250012143E+03  0.00000000000E+00 0.  1.
          6    2    1    2  501    0  0.29244893844E+02 -0.12492307269E+01 -0.39449406981E+02  0.17943855887E+03  0.17258365017E+03 0.  0.
         24    2    3    3    0    0  0.31332199640E+02  0.21597719123E+01  0.43249419838E+02  0.96509890115E+02  0.80357172827E+02 0.  0.
         -6    2    1    2    0  502 -0.29244893844E+02  0.12492307269E+01  0.19223322973E+03  0.25834550673E+03  0.17009397944E+03 0.  0.
        -24    2    5    5    0    0 -0.78657081631E+02 -0.21390384599E+02  0.11413338511E+03  0.16307855437E+03  0.83208775093E+02 0.  0.
          5    1    3    3  501    0 -0.20873057963E+01 -0.34090026392E+01 -0.82698826819E+02  0.82928668756E+02  0.47000000000E+01 0. -1.
        -11    1    4    4    0    0  0.39885356472E+02 -0.16294491309E+01 -0.11042586431E+02  0.41417815979E+02  0.00000000000E+00 0.  1.
         12    1    4    4    0    0 -0.85531568317E+01  0.37892210433E+01  0.54292006269E+02  0.55092074136E+02  0.00000000000E+00 0. -1.
         -5    1    5    5    0  502  0.49412187787E+02  0.22639615326E+02  0.78099844615E+02  0.95266952365E+02  0.47000000000E+01 0.  1.
         11    1    6    6    0    0 -0.11895080286E+02 -0.39072403670E+02  0.17817106535E+02  0.44560015135E+02  0.00000000000E+00 0. -1.
        -12    1    6    6    0    0 -0.66762001345E+02  0.17682019071E+02  0.96316278580E+02  0.11851853923E+03  0.00000000000E+00 0.  1.
</event>
<event>
12    1  0.8226261E-002  0.1921037E+03  0.7818608E-02  0.1156950E+00
         21   -1    0    0  503  502  0.00000000000E+00  0.00000000000E+00  0.38949944168E+02  0.38949944168E+02  0.00000000000E+00 0. -1.
         21   -1    0    0  501  503 -0.00000000000E+00 -0.00000000000E+00 -0.12566420648E+04  0.12566420648E+04  0.00000000000E+00 0. -1.
          6    2    1    2  501    0  0.36577744994E+02 -0.76458460882E+02 -0.93638583060E+03  0.95588820772E+03  0.17239493684E+03 0.  0.
         24    2    3    3    0    0  0.10181046009E+02  0.10799791384E+02 -0.65598567918E+03  0.66100327555E+03  0.79923900115E+02 0.  0.
         -6    2    1    2    0  502 -0.36577744994E+02  0.76458460882E+02 -0.28130629002E+03  0.33970380123E+03  0.17053332841E+03 0.  0.
        -24    2    5    5    0    0 -0.24275848528E+02  0.11581287865E+03 -0.18888362157E+03  0.23839167709E+03  0.84567307674E+02 0.  0.
          5    1    3    3  501    0  0.26396698986E+02 -0.87258252266E+02 -0.28040015142E+03  0.29488493218E+03  0.47000000000E+01 0. -1.
        -11    1    4    4    0    0 -0.32294990169E+02 -0.73506741495E+01 -0.20501929019E+03  0.20767741368E+03  0.00000000000E+00 0.  1.
         12    1    4    4    0    0  0.42476036178E+02  0.18150465533E+02 -0.45096638898E+03  0.45332586187E+03  0.00000000000E+00 0. -1.
         -5    1    5    5    0  502 -0.12301896467E+02 -0.39354417764E+02 -0.92422668451E+02  0.10131212414E+03  0.47000000000E+01 0.  1.
         13    1    6    6    0    0 -0.28422902611E+02  0.38016647163E+02 -0.13648374862E+03  0.14450238923E+03  0.00000000000E+00 0. -1.
        -14    1    6    6    0    0  0.41470540838E+01  0.77796231484E+02 -0.52399872944E+02  0.93889287862E+02  0.00000000000E+00 0.  1.
</event>
<event>
12    1  0.8226261E-002  0.1798410E+03  0.7818608E-02  0.1168135E+00
         21   -1    0    0  503  502  0.00000000000E+00  0.00000000000E+00  0.17938758106E+02  0.17938758106E+02  0.00000000000E+00 0.  1.
         21   -1    0    0  501  503 -0.00000000000E+00 -0.00000000000E+00 -0.17958149439E+04  0.17958149439E+04  0.00000000000E+00 0.  1.
          6    2    1    2  501    0  0.25479291215E+02  0.35433474228E+02 -0.87778752418E+03  0.89587441625E+03  0.17371041049E+03 0.  0.
         24    2    3    3    0    0  0.49634017762E+02 -0.16870376374E+02 -0.30903510098E+03  0.32419220339E+03  0.82763191007E+02 0.  0.
         -6    2    1    2    0  502 -0.25479291215E+02 -0.35433474228E+02 -0.90008866164E+03  0.91787928578E+03  0.17446506549E+03 0.  0.
        -24    2    5    5    0    0 -0.53788559197E+02  0.23088975089E+02 -0.69841575242E+03  0.70593508548E+03  0.84459882859E+02 0.  0.
          5    1    3    3  501    0 -0.24154726548E+02  0.52303850602E+02 -0.56875242320E+03  0.57168221286E+03  0.47000000000E+01 0. -1.
        -13    1    4    4    0    0  0.12492584856E+02  0.31881451225E+02 -0.78373649624E+02  0.85527308878E+02  0.00000000000E+00 0.  1.
         14    1    4    4    0    0  0.37141432906E+02 -0.48751827599E+02 -0.23066145136E+03  0.23866489452E+03  0.00000000000E+00 0. -1.
         -5    1    5    5    0  502  0.28309267982E+02 -0.58522449317E+02 -0.20167290922E+03  0.21194420030E+03  0.47000000000E+01 0.  1.
         11    1    6    6    0    0  0.18074252802E+02  0.13514338480E+02 -0.75107111744E+02  0.78424448952E+02  0.00000000000E+00 0. -1.
        -12    1    6    6    0    0 -0.71862811999E+02  0.95746366089E+01 -0.62330864068E+03  0.62751063653E+03  0.00000000000E+00 0.  1.
</event>
<event>
12    1  0.8226261E-002  0.2655985E+03  0.7818608E-02  0.1104438E+00
         21   -1    0    0  501  502  0.00000000000E+00  0.00000000000E+00  0.25091977530E+03  0.25091977530E+03  0.00000000000E+00 0. -1.
         21   -1    0    0  502  503 -0.00000000000E+00 -0.00000000000E+00 -0.34340621063E+03  0.34340621063E+03  0.00000000000E+00 0.  1.
         -6    2    1    2    0  503 -0.31584293587E+02  0.19904747614E+03 -0.17745121167E+03  0.31942373108E+03  0.17298879181E+03 0.  0.
        -24    2    3    3    0    0 -0.32982247690E+02  0.21662354078E+03 -0.18739272660E+03  0.29864402842E+03  0.77837231740E+02 0.  0.
          6    2    1    2  501    0  0.31584293587E+02 -0.19904747614E+03  0.84964776346E+02  0.27490225485E+03  0.16653759678E+03 0.  0.
         24    2    5    5    0    0 -0.69635146419E+01 -0.33765348742E+02  0.56449998974E+02  0.10274158081E+03  0.78617051148E+02 0.  0.
          5    1    5    5  501    0  0.38547808229E+02 -0.16528212740E+03  0.28514777372E+02  0.17216067404E+03  0.47000000000E+01 0. -1.
        -13    1    6    6    0    0  0.19244812195E+02  0.18575459248E+02  0.23289389473E+02  0.35465562800E+02  0.00000000000E+00 0.  1.
         14    1    6    6    0    0 -0.26208326837E+02 -0.52340807990E+02  0.33160609502E+02  0.67276018010E+02  0.00000000000E+00 0. -1.
         -5    1    3    3    0  503  0.13979541029E+01 -0.17576064635E+02  0.99415149271E+01  0.20779702664E+02  0.47000000000E+01 0.  1.
         13    1    4    4    0    0 -0.37752302501E+02  0.49245824379E+02 -0.30341509536E+02  0.69072387854E+02  0.00000000000E+00 0. -1.
        -14    1    4    4    0    0  0.47700548115E+01  0.16737771640E+03 -0.15705121706E+03  0.22957164056E+03  0.00000000000E+00 0.  1.
</event>
<event>
12    1  0.8226261E-002  0.1775859E+03  0.7818608E-02  0.1170934E+00
         21   -1    0    0  501  502  0.00000000000E+00  0.00000000000E+00  0.53670946415E+03  0.53670946415E+03  0.00000000000E+00 0. -1.
         21   -1    0    0  502  503 -0.00000000000E+00 -0.00000000000E+00 -0.10122783575E+03  0.10122783575E+03  0.00000000000E+00 0. -1.
         -6    2    1    2    0  503  0.92176558918E+01 -0.43577050827E+02  0.75668166192E+01  0.17463627378E+03  0.16869098040E+03 0.  0.
        -24    2    3    3    0    0  0.85537948992E+01 -0.64767767044E+02  0.58888022342E+02  0.11890976912E+03  0.80023140159E+02 0.  0.
          6    2    1    2  501    0 -0.92176558918E+01  0.43577050827E+02  0.42791481178E+03  0.46330102612E+03  0.17190936602E+03 0.  0.
         24    2    5    5    0    0 -0.60006775188E+02 -0.46834784672E+01  0.17137826735E+03  0.19732790350E+03  0.77104104577E+02 0.  0.
          5    1    5    5  501    0  0.50789119296E+02  0.48260529294E+02  0.25653654443E+03  0.26597312262E+03  0.47000000000E+01 0. -1.
        -11    1    6    6    0    0 -0.78376894182E+02  0.11575272187E+01  0.14178845182E+03  0.16201309355E+03  0.00000000000E+00 0.  1.
         12    1    6    6    0    0  0.18370118994E+02 -0.58410056859E+01  0.29589815528E+02  0.35314809957E+02  0.00000000000E+00 0. -1.
         -5    1    3    3    0  503  0.66386099261E+00  0.21190716218E+02 -0.51321205723E+02  0.55726504664E+02  0.47000000000E+01 0.  1.
         13    1    4    4    0    0  0.31042526123E+02 -0.69862914951E+02  0.30430796128E+02  0.82283039969E+02  0.00000000000E+00 0. -1.
        -14    1    4    4    0    0 -0.22488731223E+02  0.50951479071E+01  0.28457226214E+02  0.36626729147E+02  0.00000000000E+00 0.  1.
</event>
<event>
12    1  0.8226261E-002  0.1742149E+03  0.7818608E-02  0.1173684E+00
         21   -1    0    0  503  502  0.00000000000E+00  0.00000000000E+00  0.62781253545E+02  0.62781253545E+02  0.00000000000E+00 0.  1.
         21   -1    0    0  501  503 -0.00000000000E+00 -0.00000000000E+00 -0.76742125719E+03  0.76742125719E+03  0.00000000000E+00 0.  1.
          6    2    1    2  501    0 -0.17276006266E+02 -0.18576729762E+02 -0.60521294349E+03  0.62961192094E+03  0.17171170239E+03 0.  0.
         24    2    3    3    0    0 -0.73170991129E+02  0.14871921710E+02 -0.35527417481E+03  0.37128162905E+03  0.77814785125E+02 0.  0.
         -6    2    1    2    0  502  0.17276006266E+02  0.18576729762E+02 -0.99427060152E+02  0.20059058979E+03  0.17235802604E+03 0.  0.
        -24    2    5    5    0    0 -0.21405335471E+02  0.49996423319E+02 -0.88918241525E+01  0.97139334126E+02  0.79994718365E+02 0.  0.
          5    1    3    3  501    0  0.55894984863E+02 -0.33448651472E+02 -0.24993876867E+03  0.25833029188E+03  0.47000000000E+01 0. -1.
        -11    1    4    4    0    0 -0.53346844305E+02 -0.27126848974E+02 -0.16824416508E+03  0.17857169657E+03  0.00000000000E+00 0.  1.
         12    1    4    4    0    0 -0.19824146824E+02  0.41998770684E+02 -0.18703000973E+03  0.19270993248E+03  0.00000000000E+00 0. -1.
         -5    1    5    5    0  502  0.38681341737E+02 -0.31419693557E+02 -0.90535235999E+02  0.10345125567E+03  0.47000000000E+01 0.  1.
         13    1    6    6    0    0 -0.16216599191E+02 -0.75143733760E+01  0.24583121980E+02  0.30393647080E+02  0.00000000000E+00 0. -1.
        -14    1    6    6    0    0 -0.51887362801E+01  0.57510796695E+02 -0.33474946132E+02  0.66745687046E+02  0.00000000000E+00 0.  1.
</event>
<event>
12    1  0.8226261E-002  0.2460370E+03  0.7818608E-02  0.1115836E+00
         21   -1    0    0  501  502  0.00000000000E+00  0.00000000000E+00  0.44327853242E+03  0.44327853242E+03  0.00000000000E+00 0. -1.
         21   -1    0    0  502  503 -0.00000000000E+00 -0.00000000000E+00 -0.22142414338E+03  0.22142414338E+03  0.00000000000E+00 0. -1.
         -6    2    1    2    0  503  0.17276629506E+03  0.33376439314E+02 -0.94831370626E+02  0.26367387457E+03  0.17195564505E+03 0.  0.
        -24    2    3    3    0    0  0.13713802096E+03  0.31584893960E+02 -0.45375250224E+01  0.16647484112E+03  0.88819149248E+02 0.  0.
          6    2    1    2  501    0 -0.17276629506E+03 -0.33376439314E+02  0.31668575967E+03  0.40102880123E+03  0.17196525704E+03 0.  0.
         24    2    5    5    0    0 -0.60403695133E+01 -0.16938766690E+02  0.11346053475E+03  0.13760838939E+03  0.75758616697E+02 0.  0.
          5    1    5    5  501    0 -0.16672592554E+03 -0.16437672623E+02  0.20322522491E+03  0.26342041183E+03  0.47000000000E+01 0. -1.
        -11    1    6    6    0    0 -0.65356409723E+01 -0.45429900444E+02  0.88643545475E+02  0.99821183181E+02  0.00000000000E+00 0.  1.
         12    1    6    6    0    0  0.49527145902E+00  0.28491133754E+02  0.24816989278E+02  0.37787206211E+02  0.00000000000E+00 0. -1.
         -5    1    3    3    0  503  0.35628274101E+02  0.17915453539E+01 -0.90293845604E+02  0.97199033452E+02  0.47000000000E+01 0.  1.
         11    1    4    4    0    0  0.11390007439E+03  0.55696256819E+02 -0.22040284038E+02  0.12868983678E+03  0.00000000000E+00 0. -1.
        -12    1    4    4    0    0  0.23237946563E+02 -0.24111362860E+02  0.17502759016E+02  0.37785004335E+02  0.00000000000E+00 0.  1.
</event>
<event>
12    1  0.8226261E-002  0.1914199E+03  0.7818608E-02  0.1157791E+00
         21   -1    0    0  501  502  0.00000000000E+00  0.00000000000E+00  0.60631231815E+02  0.60631231815E+02  0.00000000000E+00 0. -1.
         21   -1    0    0  502  503 -0.00000000000E+00 -0.00000000000E+00 -0.19610926163E+04  0.19610926163E+04  0.00000000000E+00 0.  1.
         -6    2    1    2    0  503 -0.29327181465E+02 -0.76571583482E+02 -0.17916006778E+04  0.18015143715E+04  0.16999338465E+03 0.  0.
        -24    2    3    3    0    0 -0.30856175312E+02 -0.65264265173E+02 -0.58732886276E+03  0.59717933177E+03  0.80351934617E+02 0.  0.
          6    2    1    2  501    0  0.29327181465E+02  0.76571583482E+02 -0.10886070664E+03  0.22020947664E+03  0.17296898329E+03 0.  0.
         24    2    5    5    0    0  0.40006261710E+02 -0.16135655238E+02 -0.81085178627E+02  0.12273001817E+03  0.81406331581E+02 0.  0.
          5    1    5    5  501    0 -0.10679080245E+02  0.92707238720E+02 -0.27775528015E+02  0.97479458464E+02  0.47000000000E+01 0. -1.
        -13    1    6    6    0    0  0.43410579570E+02  0.80501253037E+01 -0.87033818488E+02  0.97591846466E+02  0.00000000000E+00 0.  1.
         14    1    6    6    0    0 -0.34043178592E+01 -0.24185780542E+02  0.59486398614E+01  0.25138171705E+02  0.00000000000E+00 0. -1.
         -5    1    3    3    0  503  0.15289938467E+01 -0.11307318310E+02 -0.12042718151E+04  0.12043350397E+04  0.47000000000E+01 0.  1.
         11    1    4    4    0    0 -0.11379146439E+02  0.10966770701E+02 -0.26471899979E+02  0.30830447966E+02  0.00000000000E+00 0. -1.
        -12    1    4    4    0    0 -0.19477028873E+02 -0.76231035874E+02 -0.56085696278E+03  0.56634888380E+03  0.00000000000E+00 0.  1.
</event>
<event>
12    1  0.8226261E-002  0.2180110E+03  0.7818608E-02  0.1135394E+00
         21   -1    0    0  501  502  0.00000000000E+00  0.00000000000E+00  0.13217712422E+04  0.13217712422E+04  0.00000000000E+00 0. -1.
         21   -1    0    0  502  503 -0.00000000000E+00 -0.00000000000E+00 -0.36904467324E+03  0.36904467324E+03  0.00000000000E+00 0.  1.
         -6    2    1    2    0  503 -0.56964070303E+02  0.11871432638E+03 -0.32681190192E+03  0.39285472118E+03  0.17375504634E+03 0.  0.
        -24    2    3    3    0    0  0.69404885395E+01 -0.26559731787E+01 -0.12093843368E+03  0.14542691923E+03  0.80421760246E+02 0.  0.
          6    2    1    2  501    0  0.56964070303E+02 -0.11871432638E+03  0.12795384709E+04  0.12979611943E+04  0.17362766705E+03 0.  0.
         24    2    5    5    0    0 -0.31409217808E+02 -0.95690747588E+02  0.70285783748E+03  0.71407544674E+03  0.75837627766E+02 0.  0.
          5    1    5    5  501    0  0.88373288111E+02 -0.23023578789E+02  0.57668063343E+03  0.58388574757E+03  0.47000000000E+01 0. -1.
        -13    1    6    6    0    0 -0.20988090205E+02 -0.24095718742E+02  0.44825457347E+03  0.44939210744E+03  0.00000000000E+00 0.  1.
         14    1    6    6    0    0 -0.10421127603E+02 -0.71595028846E+02  0.25460326401E+03  0.26468333929E+03  0.00000000000E+00 0. -1.
         -5    1    3    3    0  503 -0.63904558843E+02  0.12137029956E+03 -0.20587346823E+03  0.24742780195E+03  0.47000000000E+01 0.  1.
         11    1    4    4    0    0  0.39842525991E+02 -0.12581779316E+02 -0.41576399655E+02  0.58943405537E+02  0.00000000000E+00 0. -1.
        -12    1    4    4    0    0 -0.32902037451E+02  0.99258061377E+01 -0.79362034030E+02  0.86483513696E+02  0.00000000000E+00 0.  1.
</event>
<event>
12    1  0.8226261E-002  0.3557259E+03  0.7818608E-02  0.1060381E+00
         21   -1    0    0  501  502  0.00000000000E+00  0.00000000000E+00  0.18547374688E+03  0.18547374688E+03  0.00000000000E+00 0. -1.
         21   -1    0    0  502  503 -0.00000000000E+00 -0.00000000000E+00 -0.72683141328E+03  0.72683141328E+03  0.00000000000E+00 0. -1.
         -6    2    1    2    0  503  0.28600015788E+03  0.11927558216E+03 -0.38616915178E+03  0.52504047304E+03  0.17469438952E+03 0.  0.
        -24    2    3    3    0    0  0.17103817928E+03  0.13665916896E+03 -0.30150580760E+03  0.38113627761E+03  0.80183058441E+02 0.  0.
          6    2    1    2  501    0 -0.28600015788E+03 -0.11927558216E+03 -0.15518851462E+03  0.38726468712E+03  0.17282276475E+03 0.  0.
         24    2    5    5    0    0 -0.61021742017E+02 -0.76156228876E+02 -0.38908642779E+02  0.13032565772E+03  0.77119844289E+02 0.  0.
          5    1    5    5  501    0 -0.22497841586E+03 -0.43119353284E+02 -0.11627987184E+03  0.25693902940E+03  0.47000000000E+01 0. -1.
        -13    1    6    6    0    0 -0.52697792796E+02 -0.52217136077E+01 -0.17140934098E+02  0.55660895432E+02  0.00000000000E+00 0.  1.
         14    1    6    6    0    0 -0.83239492205E+01 -0.70934515268E+02 -0.21767708681E+02  0.74664762292E+02  0.00000000000E+00 0. -1.
         -5    1    3    3    0  503  0.11496197860E+03 -0.17383586797E+02 -0.84663344183E+02  0.14390419543E+03  0.47000000000E+01 0.  1.
         13    1    4    4    0    0  0.16916933885E+03  0.11084780981E+03 -0.28806311802E+03  0.35197423501E+03  0.00000000000E+00 0. -1.
        -14    1    4    4    0    0  0.18688404317E+01  0.25811359142E+02 -0.13442689578E+02  0.29162042597E+02  0.00000000000E+00 0.  1.
</event>
<event>
12    1  0.8226261E-002  0.2342682E+03  0.7818608E-02  0.1123730E+00
         21   -1    0    0  501  502  0.00000000000E+00  0.00000000000E+00  0.25545770232E+03  0.25545770232E+03  0.00000000000E+00 0.  1.
         21   -1    0    0  502  503 -0.00000000000E+00 -0.00000000000E+00 -0.23556874650E+03  0.23556874650E+03  0.00000000000E+00 0.  1.
         -6    2    1    2    0  503  0.10792736810E+03  0.11675046678E+03 -0.63447163187E+02  0.24237708668E+03  0.17158706640E+03 0.  0.
        -24    2    3    3    0    0  0.23615323368E+02  0.65336346833E+02  0.27709250272E+02  0.10790212867E+03  0.77772392960E+02 0.  0.
          6    2    1    2  501    0 -0.10792736810E+03 -0.11675046678E+03  0.83336119009E+02  0.24864936213E+03  0.17205408533E+03 0.  0.
         24    2    5    5    0    0 -0.14618877178E+03 -0.96009981989E+02  0.51319796446E+02  0.19441618381E+03  0.67637692032E+02 0.  0.
          5    1    5    5  501    0  0.38261403679E+02 -0.20740484787E+02  0.32016322563E+02  0.54233178324E+02  0.47000000000E+01 0. -1.
        -11    1    6    6    0    0 -0.35051813405E+01 -0.96481287066E+01  0.23077659724E+02  0.25257693127E+02  0.00000000000E+00 0.  1.
         12    1    6    6    0    0 -0.14268359044E+03 -0.86361853282E+02  0.28242136722E+02  0.16915849068E+03  0.00000000000E+00 0. -1.
         -5    1    3    3    0  503  0.84312044732E+02  0.51414119942E+02 -0.91156413458E+02  0.13447495801E+03  0.47000000000E+01 0.  1.
         13    1    4    4    0    0 -0.21972059389E+02  0.94409945722E+01 -0.10683355967E+02  0.26192324583E+02  0.00000000000E+00 0. -1.
        -14    1    4    4    0    0  0.45587382758E+02  0.55895352260E+02  0.38392606239E+02  0.81709804092E+02  0.00000000000E+00 0.  1.
</event>
<event>
12    1  0.8226261E-002  0.1983195E+03  0.7818608E-02  0.1151172E+00
         21   -1    0    0  503  502  0.00000000000E+00  0.00000000000E+00  0.36945059968E+03  0.36945059968E+03  0.00000000000E+00 0.  1.
         21   -1    0    0  501  503 -0.00000000000E+00 -0.00000000000E+00 -0.16674977874E+03  0.16674977874E+03  0.00000000000E+00 0. -1.
          6    2    1    2  501    0 -0.88546168915E+02  0.40732035863E+02 -0.59880235738E+02  0.20716241410E+03  0.17271682144E+03 0.  0.
         24    2    3    3    0    0 -0.15721961176E+02  0.50718344180E+01  0.31594937218E+02  0.84831663810E+02  0.76975759557E+02 0.  0.
         -6    2    1    2    0  502  0.88546168915E+02 -0.40732035863E+02  0.26258105668E+03  0.32903796432E+03  0.17267787311E+03 0.  0.
        -24    2    5    5    0    0  0.11084896094E+03 -0.10137655417E+02  0.12631028204E+03  0.18752738285E+03  0.82595204280E+02 0.  0.
          5    1    3    3  501    0 -0.72824207739E+02  0.35660201445E+02 -0.91475172956E+02  0.12233075029E+03  0.47000000000E+01 0. -1.
        -11    1    4    4    0    0 -0.45244575681E+02 -0.52424237909E+01  0.27721683702E+02  0.53320224897E+02  0.00000000000E+00 0.  1.
         12    1    4    4    0    0  0.29522614505E+02  0.10314258209E+02  0.38732535156E+01  0.31511438913E+02  0.00000000000E+00 0. -1.
         -5    1    5    5    0  502 -0.22302792025E+02 -0.30594380446E+02  0.13627077464E+03  0.14151058147E+03  0.47000000000E+01 0.  1.
         11    1    6    6    0    0  0.66248312132E+02 -0.45018696352E+02  0.58495496801E+02  0.99182886768E+02  0.00000000000E+00 0. -1.
        -12    1    6    6    0    0  0.44600648808E+02  0.34881040934E+02  0.67814785237E+02  0.88344496080E+02  0.00000000000E+00 0.  1.
</event>
<event>
12    1  0.8226261E-002  0.1787927E+03  0.7818608E-02  0.1172168E+00
         21   -1    0    0  503  502  0.00000000000E+00  0.00000000000E+00  0.10742486406E+04  0.10742486406E+04  0.00000000000E+00 0.  1.
         21   -1    0    0  501  503 -0.00000000000E+00 -0.00000000000E+00 -0.33200834925E+02  0.33200834925E+02  0.00000000000E+00 0.  1.
          6    2    1    2  501    0  0.34888137742E+02  0.30855390962E+02  0.27946238974E+03  0.32515849794E+03  0.15956059725E+03 0.  0.
         24    2    3    3    0    0 -0.28654686013E+02  0.23802556715E+02  0.22335331077E+03  0.23996605893E+03  0.79431450123E+02 0.  0.
         -6    2    1    2    0  502 -0.34888137742E+02 -0.30855390962E+02  0.76158541592E+03  0.78229097757E+03  0.17261978606E+03 0.  0.
        -24    2    5    5    0    0 -0.17905103305E+02 -0.24800844964E+01  0.15811627839E+03  0.17789816538E+03  0.79500039059E+02 0.  0.
          5    1    3    3  501    0  0.63542823755E+02  0.70528342479E+01  0.56109078969E+02  0.85192439010E+02  0.47000000000E+01 0. -1.
        -11    1    4    4    0    0 -0.99687241598E+01  0.48444497125E+02  0.86312173692E+02  0.99478822322E+02  0.00000000000E+00 0.  1.
         12    1    4    4    0    0 -0.18685961853E+02 -0.24641940410E+02  0.13704113708E+03  0.14048723661E+03  0.00000000000E+00 0. -1.
         -5    1    5    5    0  502 -0.16983034438E+02 -0.28375306466E+02  0.60346913753E+03  0.60439281219E+03  0.47000000000E+01 0.  1.
         11    1    6    6    0    0  0.20643693057E+02  0.16790212080E+02  0.20209175414E+02  0.33413830305E+02  0.00000000000E+00 0. -1.
        -12    1    6    6    0    0 -0.38548796362E+02 -0.19270296577E+02  0.13790710297E+03  0.14448433507E+03  0.00000000000E+00 0.  1.
</event>
<event>
12    1  0.8226261E-002  0.2084100E+03  0.7818608E-02  0.1142990E+00
         21   -1    0    0  501  502  0.00000000000E+00  0.00000000000E+00  0.26745162119E+02  0.26745162119E+02  0.00000000000E+00 0.  1.
         21   -1    0    0  502  503 -0.00000000000E+00 -0.00000000000E+00 -0.18989376550E+04  0.18989376550E+04  0.00000000000E+00 0. -1.
         -6    2    1    2    0  503  0.51924685333E+02 -0.10650265417E+03 -0.13080574083E+04  0.13245561205E+04  0.17145187258E+03 0.  0.
        -24    2    3    3    0    0 -0.24205759268E+02 -0.10070633870E+03 -0.75515887905E+03  0.76639098764E+03  0.79765455566E+02 0.  0.
          6    2    1    2  501    0 -0.51924685333E+02  0.10650265417E+03 -0.56413508461E+03  0.60112669666E+03  0.17048731173E+03 0.  0.
         24    2    5    5    0    0  0.65131148313E+01  0.83051141168E+02 -0.49225576939E+03  0.50545185197E+03  0.78904495757E+02 0.  0.
          5    1    5    5  501    0 -0.58437800164E+02  0.23451513006E+02 -0.71879315218E+02  0.95674844690E+02  0.47000000000E+01 0. -1.
        -11    1    6    6    0    0 -0.33676167801E+01 -0.15339056187E+02 -0.76926159220E+02  0.78512810801E+02  0.00000000000E+00 0.  1.
         12    1    6    6    0    0  0.98807316114E+01  0.98390197355E+02 -0.41532961017E+03  0.42693904117E+03  0.00000000000E+00 0. -1.
         -5    1    3    3    0  503  0.76130444601E+02 -0.57963154717E+01 -0.55289852927E+03  0.55816513286E+03  0.47000000000E+01 0.  1.
         11    1    4    4    0    0 -0.14015021183E+02 -0.78517973685E+02 -0.29521862747E+03  0.30580309190E+03  0.00000000000E+00 0. -1.
        -12    1    4    4    0    0 -0.10190738085E+02 -0.22188365017E+02 -0.45994025158E+03  0.46058789575E+03  0.00000000000E+00 0.  1.
</event>
<event>
12    1  0.8226261E-002  0.1741345E+03  0.7818608E-02  0.1173934E+00
         21   -1    0    0  503  502  0.00000000000E+00  0.00000000000E+00  0.15729607686E+04  0.15729607686E+04  0.00000000000E+00 0. -1.
         21   -1    0    0  501  503 -0.00000000000E+00 -0.00000000000E+00 -0.20612822883E+02  0.20612822883E+02  0.00000000000E+00 0. -1.
          6    2    1    2  501    0  0.87333473462E+01 -0.17176223916E+02  0.56003614470E+03  0.58609875630E+03  0.17175556685E+03 0.  0.
         24    2    3    3    0    0  0.35341416231E+02 -0.46459895426E+02  0.19184747650E+03  0.21576038651E+03  0.79621307225E+02 0.  0.
         -6    2    1    2    0  502 -0.87333473462E+01  0.17176223916E+02  0.99231180103E+03  0.10074748352E+04  0.17306512954E+03 0.  0.
        -24    2    5    5    0    0 -0.66375841180E+02  0.40680807960E+02  0.57922799857E+03  0.58970044582E+03  0.78618452279E+02 0.  0.
          5    1    3    3  501    0 -0.26608068885E+02  0.29283671510E+02  0.36818866820E+03  0.37033836979E+03  0.47000000000E+01 0. -1.
        -11    1    4    4    0    0 -0.20929359003E+02 -0.18651688139E+02  0.10453078516E+03  0.10822480577E+03  0.00000000000E+00 0.  1.
         12    1    4    4    0    0  0.56270775234E+02 -0.27808207287E+02  0.87316691336E+02  0.10753558073E+03  0.00000000000E+00 0. -1.
         -5    1    5    5    0  502  0.57642493834E+02 -0.23504584044E+02  0.41308380245E+03  0.41777438937E+03  0.47000000000E+01 0.  1.
         11    1    6    6    0    0 -0.63971723514E+02  0.43815760964E+02  0.58041812221E+03  0.58557441790E+03  0.00000000000E+00 0. -1.
        -12    1    6    6    0    0 -0.24041176659E+01 -0.31349530034E+01 -0.11901236335E+01  0.41260279141E+01  0.00000000000E+00 0.  1.
</event>
<event>
12    1  0.8226261E-002  0.1837342E+03  0.7818608E-02  0.1164346E+00
         21   -1    0    0  503  502  0.00000000000E+00  0.00000000000E+00  0.21636612522E+02  0.21636612522E+02  0.00000000000E+00 0. -1.
         21   -1    0    0  501  503 -0.00000000000E+00 -0.00000000000E+00 -0.20355550333E+04  0.20355550333E+04  0.00000000000E+00 0.  1.
          6    2    1    2  501    0 -0.63762271794E+02  0.53916044381E+01 -0.15050815130E+04  0.15161987898E+04  0.17173733620E+03 0.  0.
         24    2    3    3    0    0 -0.10836845853E+03 -0.10600483449E+02 -0.11560410985E+04  0.11639250898E+04  0.80215335811E+02 0.  0.
         -6    2    1    2    0  502  0.63762271794E+02 -0.53916044381E+01 -0.50883690781E+03  0.54099285607E+03  0.17223116696E+03 0.  0.
        -24    2    5    5    0    0  0.80619140953E+02 -0.12435248773E+02 -0.18875522001E+03  0.22035576554E+03  0.79208894865E+02 0.  0.
          5    1    3    3  501    0  0.44606186731E+02  0.15992087887E+02 -0.34904041445E+03  0.35227369997E+03  0.47000000000E+01 0. -1.
        -11    1    4    4    0    0 -0.10645445975E+03  0.13092870683E+02 -0.10371346673E+04  0.10426659549E+04  0.00000000000E+00 0.  1.
         12    1    4    4    0    0 -0.19139987772E+01 -0.23693354133E+02 -0.11890643123E+03  0.12125913495E+03  0.00000000000E+00 0. -1.
         -5    1    5    5    0  502 -0.16856869159E+02  0.70436443352E+01 -0.32008168779E+03  0.32063709053E+03  0.47000000000E+01 0.  1.
         13    1    6    6    0    0  0.65974680878E+02 -0.41245183362E+02 -0.15607645318E+03  0.17439519175E+03  0.00000000000E+00 0. -1.
        -14    1    6    6    0    0  0.14644460075E+02  0.28809934589E+02 -0.32678766837E+02  0.45960573798E+02  0.00000000000E+00 0.  1.
</event>
<event>
12    1  0.8226261E-002  0.2393593E+03  0.7818608E-02  0.1120244E+00
         21   -1    0    0  501  502  0.00000000000E+00  0.00000000000E+00  0.95573058409E+03  0.95573058409E+03  0.00000000000E+00 0. -1.
         21   -1    0    0  502  503 -0.00000000000E+00 -0.00000000000E+00 -0.64283093432E+02  0.64283093432E+02  0.00000000000E+00 0. -1.
         -6    2    1    2    0  503 -0.12167093756E+03 -0.11156966889E+03  0.31259430293E+03  0.39362412634E+03  0.17312754417E+03 0.  0.
        -24    2    3    3    0    0 -0.69521723000E+02 -0.14213715463E+03  0.24258932829E+03  0.30101366128E+03  0.81996349817E+02 0.  0.
          6    2    1    2  501    0  0.12167093756E+03  0.11156966889E+03  0.57885318774E+03  0.62638955119E+03  0.17332411496E+03 0.  0.
         24    2    5    5    0    0  0.54033119763E+02  0.11492351081E+03  0.49823822776E+03  0.52099987227E+03  0.84098418111E+02 0.  0.
          5    1    5    5  501    0  0.67637817799E+02 -0.33538419216E+01  0.80614959972E+02  0.10538967892E+03  0.47000000000E+01 0. -1.
        -11    1    6    6    0    0  0.78677083477E+00  0.46562450824E+02  0.69949114327E+02  0.84033085331E+02  0.00000000000E+00 0.  1.
         12    1    6    6    0    0  0.53246348928E+02  0.68361059983E+02  0.42828911344E+03  0.43696678693E+03  0.00000000000E+00 0. -1.
         -5    1    3    3    0  503 -0.52149214562E+02  0.30567485741E+02  0.70004974635E+02  0.92610465055E+02  0.47000000000E+01 0.  1.
         11    1    4    4    0    0  0.10054459458E+02 -0.67501818414E+02  0.10804786256E+03  0.12779643285E+03  0.00000000000E+00 0. -1.
        -12    1    4    4    0    0 -0.79576182458E+02 -0.74635336214E+02  0.13454146573E+03  0.17321722843E+03  0.00000000000E+00 0.  1.
</event>
<event>
12    1  0.8226261E-002  0.2098863E+03  0.7818608E-02  0.1141686E+00
         21   -1    0    0  503  502  0.00000000000E+00  0.00000000000E+00  0.28037326052E+03  0.28037326052E+03  0.00000000000E+00 0.  1.
         21   -1    0    0  501  503 -0.00000000000E+00 -0.00000000000E+00 -0.16642844901E+03  0.16642844901E+03  0.00000000000E+00 0.  1.
          6    2    1    2  501    0  0.45795390767E+02 -0.11166302788E+03  0.38042520776E+01  0.20977174674E+03  0.17153385609E+03 0.  0.
         24    2    3    3    0    0 -0.20131993565E+02 -0.62556793034E+02  0.50512318270E+02  0.11510614711E+03  0.79870403067E+02 0.  0.
         -6    2    1    2    0  502 -0.45795390767E+02  0.11166302788E+03  0.11014055943E+03  0.23702996279E+03  0.17171607618E+03 0.  0.
        -24    2    5    5    0    0  0.27751069023E+02  0.11929301297E+02  0.51498407508E+02  0.99855293311E+02  0.80041011769E+02 0.  0.
          5    1    3    3  501    0  0.65927384332E+02 -0.49106234845E+02 -0.46708066193E+02  0.94665599628E+02  0.47000000000E+01 0. -1.
        -13    1    4    4    0    0  0.18042623648E+02 -0.58592517206E+02  0.15690435090E+02  0.63283561009E+02  0.00000000000E+00 0.  1.
         14    1    4    4    0    0 -0.38174617212E+02 -0.39642758287E+01  0.34821883180E+02  0.51822586103E+02  0.00000000000E+00 0. -1.
         -5    1    5    5    0  502 -0.73546459790E+02  0.99733726582E+02  0.58642151924E+02  0.13717466948E+03  0.47000000000E+01 0.  1.
         11    1    6    6    0    0  0.33997984455E+02  0.28097548397E+02 -0.14624336851E+01  0.44130192445E+02  0.00000000000E+00 0. -1.
        -12    1    6    6    0    0 -0.62469154320E+01 -0.16168247100E+02  0.52960841193E+02  0.55725100866E+02  0.00000000000E+00 0.  1.
</event>
<event>
12    1  0.8226261E-002  0.1830889E+03  0.7818608E-02  0.1165357E+00
         21   -1    0    0  503  502  0.00000000000E+00  0.00000000000E+00  0.13952990521E+04  0.13952990521E+04  0.00000000000E+00 0.  1.
         21   -1    0    0  501  503 -0.00000000000E+00 -0.00000000000E+00 -0.23767409595E+02  0.23767409595E+02  0.00000000000E+00 0.  1.
          6    2    1    2  501    0  0.48034773399E+02  0.34239979643E+02  0.71194880785E+03  0.73511404588E+03  0.17332581975E+03 0.  0.
         24    2    3    3    0    0  0.73269981097E+02  0.70684102422E+02  0.60285921028E+03  0.61726829886E+03  0.84948177707E+02 0.  0.
         -6    2    1    2    0  502 -0.48034773399E+02 -0.34239979643E+02  0.65958283466E+03  0.68395241582E+03  0.17106044447E+03 0.  0.
        -24    2    5    5    0    0  0.25575186843E+01 -0.50618702006E+02  0.58264761752E+03  0.59030968945E+03  0.80115475197E+02 0.  0.
          5    1    3    3  501    0 -0.25235207698E+02 -0.36444122779E+02  0.10908959757E+03  0.11784574702E+03  0.47000000000E+01 0. -1.
        -13    1    4    4    0    0  0.27238736628E+02  0.67272172552E+01  0.37728310959E+03  0.37832492518E+03  0.00000000000E+00 0.  1.
         14    1    4    4    0    0  0.46031244469E+02  0.63956885167E+02  0.22557610069E+03  0.23894337369E+03  0.00000000000E+00 0. -1.
         -5    1    5    5    0  502 -0.50592292084E+02  0.16378722363E+02  0.76935217140E+02  0.93642726365E+02  0.47000000000E+01 0.  1.
         13    1    6    6    0    0 -0.56826882413E+01  0.18651689526E+02  0.23023540107E+03  0.23105955591E+03  0.00000000000E+00 0. -1.
        -14    1    6    6    0    0  0.82402069255E+01 -0.69270391532E+02  0.35241221645E+03  0.35925013355E+03  0.00000000000E+00 0.  1.
</event>
<event>
12    1  0.8226261E-002  0.2346223E+03  0.7818608E-02  0.1123496E+00
         21   -1    0    0  503  502  0.00000000000E+00  0.00000000000E+00  0.30987966267E+03  0.30987966267E+03  0.00000000000E+00 0.  1.
         21   -1    0    0  501  503 -0.00000000000E+00 -0.00000000000E+00 -0.27328502488E+03  0.27328502488E+03  0.00000000000E+00 0. -1.
          6    2    1    2  501    0 -0.66770700470E+02 -0.14428403519E+03  0.19107244940E+03  0.30258270420E+03  0.17254391531E+03 0.  0.
         24    2    3    3    0    0  0.33454491006E+01 -0.25661039546E+02  0.12368901527E+03  0.14912161232E+03  0.79174502099E+02 0.  0.
         -6    2    1    2    0  502  0.66770700470E+02  0.14428403519E+03 -0.15447781161E+03  0.28058198334E+03  0.17200769124E+03 0.  0.
        -24    2    5    5    0    0  0.18294091725E+02  0.15835979436E+03 -0.14038587932E+03  0.22796277442E+03  0.82742571570E+02 0.  0.
          5    1    3    3  501    0 -0.70116149571E+02 -0.11862299564E+03  0.67383434138E+02  0.15346109188E+03  0.47000000000E+01 0. -1.
        -11    1    4    4    0    0 -0.20877066881E+02 -0.37645567333E+02  0.32291965635E+02  0.53812746687E+02  0.00000000000E+00 0.  1.
         12    1    4    4    0    0  0.24222515981E+02  0.11984527787E+02  0.91397049632E+02  0.95308865633E+02  0.00000000000E+00 0. -1.
         -5    1    5    5    0  502  0.48476608745E+02 -0.14075759170E+02 -0.14091932296E+02  0.52619208921E+02  0.47000000000E+01 0.  1.
         11    1    6    6    0    0  0.40811460730E+02  0.11541045430E+03 -0.65744283095E+02  0.13895128300E+03  0.00000000000E+00 0. -1.
        -12    1    6    6    0    0 -0.22517369005E+02  0.42949340060E+02 -0.74641596221E+02  0.89011491421E+02  0.00000000000E+00 0.  1.
</event>
<event>
12    1  0.8226261E-002  0.1851974E+03  0.7818608E-02  0.1163024E+00
         21   -1    0    0  503  502  0.00000000000E+00  0.00000000000E+00  0.22637735483E+02  0.22637735483E+02  0.00000000000E+00 0. -1.
         21   -1    0    0  501  503 -0.00000000000E+00 -0.00000000000E+00 -0.24780313966E+04  0.24780313966E+04  0.00000000000E+00 0. -1.
          6    2    1    2  501    0  0.44583883508E+02 -0.49955617331E+02 -0.20107300653E+04  0.20192408126E+04  0.17266956138E+03 0.  0.
         24    2    3    3    0    0 -0.33840514605E+02  0.81580382790E+01 -0.98554120125E+03  0.98940496153E+03  0.80118565430E+02 0.  0.
         -6    2    1    2    0  502 -0.44583883508E+02  0.49955617331E+02 -0.44466359588E+03  0.48142831954E+03  0.17194251068E+03 0.  0.
        -24    2    5    5    0    0 -0.47341249816E+02  0.83452512556E+02 -0.42391766633E+03  0.44165233870E+03  0.78390590412E+02 0.  0.
          5    1    3    3  501    0  0.78424398113E+02 -0.58113655610E+02 -0.10251888640E+04  0.10298358510E+04  0.47000000000E+01 0. -1.
        -11    1    4    4    0    0  0.20438721074E+02  0.15375109893E+02 -0.15823557534E+03  0.16028921556E+03  0.00000000000E+00 0.  1.
         12    1    4    4    0    0 -0.54279235678E+02 -0.72170716136E+01 -0.82730562591E+03  0.82911574597E+03  0.00000000000E+00 0. -1.
         -5    1    5    5    0  502  0.27573663081E+01 -0.33496895225E+02 -0.20745929546E+02  0.39775980835E+02  0.47000000000E+01 0.  1.
         11    1    6    6    0    0 -0.36929697578E+02  0.18638366806E+02 -0.66948792565E+02  0.78697726183E+02  0.00000000000E+00 0. -1.
        -12    1    6    6    0    0 -0.10411552238E+02  0.64814145749E+02 -0.35696887377E+03  0.36295461252E+03  0.00000000000E+00 0.  1.
</event>
<event>
12    1  0.8226261E-002  0.1744059E+03  0.7818608E-02  0.1173473E+00
         21   -1    0    0  503  502  0.00000000000E+00  0.00000000000E+00  0.14607451826E+03  0.14607451826E+03  0.00000000000E+00 0.  1.
         21   -1    0    0  501  503 -0.00000000000E+00 -0.00000000000E+00 -0.23951481906E+03  0.23951481906E+03  0.00000000000E+00 0.  1.
          6    2    1    2  501    0 -0.16731496642E+02 -0.20924199290E+02 -0.11707915981E+03  0.20958869058E+03  0.17176182480E+03 0.  0.
         24    2    3    3    0    0 -0.75474277820E+02 -0.27794473055E+02 -0.63915180072E+02  0.12992430867E+03  0.79537892827E+02 0.  0.
         -6    2    1    2    0  502  0.16731496642E+02  0.20924199290E+02  0.23638859010E+02  0.17600064675E+03  0.17233591299E+03 0.  0.
        -24    2    5    5    0    0 -0.44891648034E+02  0.26458304149E+02  0.50685311881E+02  0.10831284217E+03  0.80295510561E+02 0.  0.
          5    1    3    3  501    0  0.58742781178E+02  0.68702737644E+01 -0.53163979741E+02  0.79664381904E+02  0.47000000000E+01 0. -1.
        -13    1    4    4    0    0 -0.68589099998E+01  0.14433992550E+01 -0.54267098946E+02  0.54717877113E+02  0.00000000000E+00 0.  1.
         14    1    4    4    0    0 -0.68615367820E+02 -0.29237872310E+02 -0.96480811266E+01  0.75206431558E+02  0.00000000000E+00 0. -1.
         -5    1    5    5    0  502  0.61623144676E+02 -0.55341048591E+01 -0.27046452871E+02  0.67687804583E+02  0.47000000000E+01 0.  1.
         13    1    6    6    0    0 -0.18096654406E+02  0.48979203018E+02  0.75432779688E+01  0.52757485455E+02  0.00000000000E+00 0. -1.
        -14    1    6    6    0    0 -0.26794993628E+02 -0.22520898869E+02  0.43142033913E+02  0.55555356713E+02  0.00000000000E+00 0.  1.
</event>
<event>
12    1  0.8226261E-002  0.2479113E+03  0.7818608E-02  0.1114638E+00
         21   -1    0    0  503  502  0.00000000000E+00  0.00000000000E+00  0.10106681619E+03  0.10106681619E+03  0.00000000000E+00 0.  1.
         21   -1    0    0  501  503 -0.00000000000E+00 -0.00000000000E+00 -0.74484753644E+03  0.74484753644E+03  0.00000000000E+00 0. -1.
          6    2    1    2  501    0  0.13688668394E+03 -0.11513560138E+03 -0.50315150248E+03  0.56089401446E+03  0.17159979622E+03 0.  0.
         24    2    3    3    0    0  0.99121099670E+02 -0.87591219569E+02 -0.19392362685E+03  0.24811789422E+03  0.80367295815E+02 0.  0.
         -6    2    1    2    0  502 -0.13688668394E+03  0.11513560138E+03 -0.14062921777E+03  0.28502033818E+03  0.17165618351E+03 0.  0.
        -24    2    5    5    0    0 -0.31158183707E+02  0.11750379201E+02 -0.98573213563E+02  0.13120935867E+03  0.79939436747E+02 0.  0.
          5    1    3    3  501    0  0.37765584271E+02 -0.27544381811E+02 -0.30922787563E+03  0.31277612024E+03  0.47000000000E+01 0. -1.
        -11    1    4    4    0    0  0.48472608125E+02 -0.46789785036E+02 -0.33977903006E+02  0.75454460537E+02  0.00000000000E+00 0.  1.
         12    1    4    4    0    0  0.50648491545E+02 -0.40801434532E+02 -0.15994572384E+03  0.17266343368E+03  0.00000000000E+00 0. -1.
         -5    1    5    5    0  502 -0.10572850023E+03  0.10338522218E+03 -0.42056004210E+02  0.15381097951E+03  0.47000000000E+01 0.  1.
         11    1    6    6    0    0 -0.49301712355E+02  0.21537620959E+02 -0.96507878949E+02  0.11049117004E+03  0.00000000000E+00 0. -1.
        -12    1    6    6    0    0  0.18143528648E+02 -0.97872417573E+01 -0.20653346135E+01  0.20718188630E+02  0.00000000000E+00 0.  1.
</event>
<event>
12    1  0.8226261E-002  0.2256714E+03  0.7818608E-02  0.1129899E+00
         21   -1    0    0  501  502  0.00000000000E+00  0.00000000000E+00  0.27443234252E+03  0.27443234252E+03  0.00000000000E+00 0. -1.
         21   -1    0    0  502  503 -0.00000000000E+00 -0.00000000000E+00 -0.18770605043E+03  0.18770605043E+03  0.00000000000E+00 0.  1.
         -6    2    1    2    0  503 -0.13821224257E+03 -0.46604368760E+02  0.72131191294E+02  0.23599556281E+03  0.17092807179E+03 0.  0.
        -24    2    3    3    0    0 -0.15077128916E+03 -0.54315721696E+02  0.99392401725E+02  0.20465137341E+03  0.79505697019E+02 0.  0.
          6    2    1    2  501    0  0.13821224257E+03  0.46604368760E+02  0.14595100799E+02  0.22614283014E+03  0.17220038174E+03 0.  0.
         24    2    5    5    0    0  0.13125515591E+03  0.92918395600E+02  0.13328637892E+02  0.17905690799E+03  0.77601414390E+02 0.  0.
          5    1    5    5  501    0  0.69570866639E+01 -0.46314026840E+02  0.12664629072E+01  0.47085922156E+02  0.47000000000E+01 0. -1.
        -13    1    6    6    0    0  0.12642375699E+03  0.54220817621E+02  0.21448632879E+02  0.13922250984E+03  0.00000000000E+00 0.  1.
         14    1    6    6    0    0  0.48313989247E+01  0.38697577979E+02 -0.81199949871E+01  0.39834398145E+02  0.00000000000E+00 0. -1.
         -5    1    3    3    0  503  0.12559046587E+02  0.77113529365E+01 -0.27261210431E+02  0.31344189405E+02  0.47000000000E+01 0.  1.
         13    1    4    4    0    0 -0.11395833429E+03 -0.16429491405E+01  0.55002039849E+02  0.12654811584E+03  0.00000000000E+00 0. -1.
        -14    1    4    4    0    0 -0.36812954877E+02 -0.52672772556E+02  0.44390361876E+02  0.78103257569E+02  0.00000000000E+00 0.  1.
</event>
<event>
12    1  0.8226261E-002  0.1773792E+03  0.7818608E-02  0.1170793E+00
         21   -1    0    0  503  502  0.00000000000E+00  0.00000000000E+00  0.30585643710E+02  0.30585643710E+02  0.00000000000E+00 0. -1.
         21   -1    0    0  501  503 -0.00000000000E+00 -0.00000000000E+00 -0.11859121425E+04  0.11859121425E+04  0.00000000000E+00 0. -1.
          6    2    1    2  501    0  0.40367600731E+02  0.18719212998E+02 -0.80363345441E+03  0.82260518450E+03  0.16991941737E+03 0.  0.
         24    2    3    3    0    0 -0.16980011965E+02  0.26840091021E+02 -0.20564528078E+03  0.22180018857E+03  0.76789523039E+02 0.  0.
         -6    2    1    2    0  502 -0.40367600731E+02 -0.18719212998E+02 -0.35169304440E+03  0.39389260173E+03  0.17170740255E+03 0.  0.
        -24    2    5    5    0    0 -0.18377740034E+02  0.21939267191E+02 -0.72652019504E+02  0.11100985294E+03  0.78903730828E+02 0.  0.
          5    1    3    3  501    0  0.57347612695E+02 -0.81208780225E+01 -0.59798817363E+03  0.60080499594E+03  0.47000000000E+01 0. -1.
        -11    1    4    4    0    0  0.46988407966E+01  0.13768685065E+02  0.54571567931E-01  0.14548497218E+02  0.00000000000E+00 0.  1.
         12    1    4    4    0    0 -0.21678852761E+02  0.13071405956E+02 -0.20569985235E+03  0.20725169135E+03  0.00000000000E+00 0. -1.
         -5    1    5    5    0  502 -0.21989860697E+02 -0.40658480190E+02 -0.27904102490E+03  0.28288274879E+03  0.47000000000E+01 0.  1.
         13    1    6    6    0    0 -0.44742474282E+02  0.28227184776E+02 -0.62936058513E+02  0.82216850015E+02  0.00000000000E+00 0. -1.
        -14    1    6    6    0    0  0.26364734249E+02 -0.62879175845E+01 -0.97159609906E+01  0.28793002926E+02  0.00000000000E+00 0.  1.
</event>
<event>
12    1  0.8226261E-002  0.1775833E+03  0.7818608E-02  0.1170396E+00
         21   -1    0    0  503  502  0.00000000000E+00  0.00000000000E+00  0.31700192490E+03  0.31700192490E+03  0.00000000000E+00 0. -1.
         21   -1    0    0  501  503 -0.00000000000E+00 -0.00000000000E+00 -0.21207033282E+03  0.21207033282E+03  0.00000000000E+00 0. -1.
          6    2    1    2  501    0 -0.34719682319E+02  0.26904318288E+02 -0.14080000243E+03  0.22588941615E+03  0.17109087925E+03 0.  0.
         24    2    3    3    0    0  0.39933166213E+02  0.76498815217E+01 -0.11088684598E+03  0.14306026634E+03  0.80728983290E+02 0.  0.
         -6    2    1    2    0  502  0.34719682319E+02 -0.26904318288E+02  0.24573159450E+03  0.30318284157E+03  0.17206545325E+03 0.  0.
        -24    2    5    5    0    0  0.34144940747E+02 -0.32043416224E+02  0.26867148583E+03  0.27920223963E+03  0.59806904400E+02 0.  0.
          5    1    3    3  501    0 -0.74652848533E+02  0.19254436767E+02 -0.29913156451E+02  0.82829149809E+02  0.47000000000E+01 0. -1.
        -13    1    4    4    0    0  0.61169924770E+01 -0.17512474929E+02  0.54408329904E+01  0.19331503788E+02  0.00000000000E+00 0.  1.
         14    1    4    4    0    0  0.33816173736E+02  0.25162356450E+02 -0.11632767897E+03  0.12372876255E+03  0.00000000000E+00 0. -1.
         -5    1    5    5    0  502  0.57474157256E+00  0.51390979352E+01 -0.22939891325E+02  0.23980601941E+02  0.47000000000E+01 0.  1.
         11    1    6    6    0    0  0.31459380761E+02 -0.26896140176E+02  0.76800234966E+02  0.87243172140E+02  0.00000000000E+00 0. -1.
        -12    1    6    6    0    0  0.26855599859E+01 -0.51472760476E+01  0.19187125086E+03  0.19195906749E+03  0.00000000000E+00 0.  1.
</event>
<event>
12    1  0.8226261E-002  0.1723751E+03  0.7818608E-02  0.1175986E+00
         21   -1    0    0  501  502  0.00000000000E+00  0.00000000000E+00  0.26469786425E+02  0.26469786425E+02  0.00000000000E+00 0. -1.
         21   -1    0    0  502  503 -0.00000000000E+00 -0.00000000000E+00 -0.12073847102E+04  0.12073847102E+04  0.00000000000E+00 0. -1.
         -6    2    1    2    0  503  0.19259127687E+02  0.67378637548E+01 -0.77142836214E+03  0.79045233209E+03  0.17116325129E+03 0.  0.
        -24    2    3    3    0    0  0.70213049490E+02  0.13565703736E+02 -0.65069018577E+03  0.65914079879E+03  0.77168478887E+02 0.  0.
          6    2    1    2  501    0 -0.19259127687E+02 -0.67378637548E+01 -0.40948656166E+03  0.44340216455E+03  0.16884881564E+03 0.  0.
         24    2    5    5    0    0 -0.15095911701E+02 -0.28580352071E+02 -0.41160923556E+03  0.42057624929E+03  0.80109272785E+02 0.  0.
          5    1    5    5  501    0 -0.41632159858E+01  0.21842488316E+02  0.21226739093E+01  0.22825915265E+02  0.47000000000E+01 0. -1.
        -11    1    6    6    0    0 -0.39273203736E+02 -0.38088468975E+02 -0.34055427518E+03  0.34492075951E+03  0.00000000000E+00 0.  1.
         12    1    6    6    0    0  0.24177292036E+02  0.95081169038E+01 -0.71054960386E+02  0.75655489772E+02  0.00000000000E+00 0. -1.
         -5    1    3    3    0  503 -0.50953921804E+02 -0.68278399809E+01 -0.12073817637E+03  0.13131153331E+03  0.47000000000E+01 0.  1.
         11    1    4    4    0    0  0.75462103813E+01  0.11811272754E+02 -0.41556798230E+03  0.41580428012E+03  0.00000000000E+00 0. -1.
        -12    1    4    4    0    0  0.62666839109E+02  0.17544309817E+01 -0.23512220347E+03  0.24333651866E+03  0.00000000000E+00 0.  1.
</event>
<event>
12    1  0.8226261E-002  0.2374523E+03  0.7818608E-02  0.1121792E+00
         21   -1    0    0  501  502  0.00000000000E+00  0.00000000000E+00  0.52160759925E+03  0.52160759925E+03  0.00000000000E+00 0.  1.
         21   -1    0    0  502  503 -0.00000000000E+00 -0.00000000000E+00 -0.19967495328E+03  0.19967495328E+03  0.00000000000E+00 0.  1.
         -6    2    1    2    0  503 -0.67974930195E+02  0.14829545614E+03 -0.83991611857E+02  0.25186941317E+03  0.17254413054E+03 0.  0.
        -24    2    3    3    0    0 -0.55399776901E+02  0.17499186129E+03 -0.49048872685E+02  0.20589205408E+03  0.79337628042E+02 0.  0.
          6    2    1    2  501    0  0.67974930195E+02 -0.14829545614E+03  0.40592425783E+03  0.46941313936E+03  0.17018242819E+03 0.  0.
         24    2    5    5    0    0  0.15992009684E+02 -0.11353269379E+03  0.14599171948E+03  0.20202262314E+03  0.79712867039E+02 0.  0.
          5    1    5    5  501    0  0.51982920511E+02 -0.34762762347E+02  0.25993253835E+03  0.26739051622E+03  0.47000000000E+01 0. -1.
        -11    1    6    6    0    0 -0.20811966324E+02 -0.59277125162E+02  0.11140443958E+03  0.12789786811E+03  0.00000000000E+00 0.  1.
         12    1    6    6    0    0  0.36803976008E+02 -0.54255568631E+02  0.34587279899E+02  0.74124755030E+02  0.00000000000E+00 0. -1.
         -5    1    3    3    0  503 -0.12575153294E+02 -0.26696405151E+02 -0.34942739172E+02  0.45977359093E+02  0.47000000000E+01 0.  1.
         13    1    4    4    0    0 -0.37945466604E+02  0.45731822557E+02  0.13952596316E+02  0.61040420822E+02  0.00000000000E+00 0. -1.
        -14    1    4    4    0    0 -0.17454310297E+02  0.12926003873E+03 -0.63001469001E+02  0.14485163326E+03  0.00000000000E+00 0.  1.
</event>
<event>
12    1  0.8226261E-002  0.2623304E+03  0.7818608E-02  0.1105773E+00
         21   -1    0    0  503  502  0.00000000000E+00  0.00000000000E+00  0.52026937821E+03  0.52026937821E+03  0.00000000000E+00 0.  1.
         21   -1    0    0  501  503 -0.00000000000E+00 -0.00000000000E+00 -0.16480047327E+03  0.16480047327E+03  0.00000000000E+00 0. -1.
          6    2    1    2  501    0  0.17771816544E+03 -0.86843110669E+02  0.25419871412E+02  0.26355909673E+03  0.17231295775E+03 0.  0.
         24    2    3    3    0    0  0.62380136012E+02 -0.58248253994E+02 -0.46219815744E+02  0.12472516127E+03  0.78332330637E+02 0.  0.
         -6    2    1    2    0  502 -0.17771816544E+03  0.86843110669E+02  0.33004903353E+03  0.42151075475E+03  0.17208567530E+03 0.  0.
        -24    2    5    5    0    0 -0.11112164858E+03  0.10877440946E+03  0.15770627903E+03  0.23539199441E+03  0.79738495409E+02 0.  0.
          5    1    3    3  501    0  0.11533802942E+03 -0.28594856675E+02  0.71639687156E+02  0.13883393546E+03  0.47000000000E+01 0. -1.
        -13    1    4    4    0    0  0.55243483857E+02 -0.12527937236E+02  0.35621469618E+01  0.56758088507E+02  0.00000000000E+00 0.  1.
         14    1    4    4    0    0  0.71366521550E+01 -0.45720316758E+02 -0.49781962706E+02  0.67967072758E+02  0.00000000000E+00 0. -1.
         -5    1    5    5    0  502 -0.66596516854E+02 -0.21931298787E+02  0.17234275450E+03  0.18611876035E+03  0.47000000000E+01 0.  1.
         13    1    6    6    0    0 -0.90501245474E+02  0.10562367810E+03  0.92780829812E+02  0.16719784445E+03  0.00000000000E+00 0. -1.
        -14    1    6    6    0    0 -0.20620403109E+02  0.31507313520E+01  0.64925449215E+02  0.68194149955E+02  0.00000000000E+00 0.  1.
</event>
<event>
12    1  0.8226261E-002  0.1763217E+03  0.7818608E-02  0.1171444E+00
         21   -1    0    0  501  502  0.00000000000E+00  0.00000000000E+00  0.13478236949E+03  0.13478236949E+03  0.00000000000E+00 0. -1.
         21   -1    0    0  502  503 -0.00000000000E+00 -0.00000000000E+00 -0.52631306569E+03  0.52631306569E+03  0.00000000000E+00 0. -1.
         -6    2    1    2    0  503 -0.10896296955E+02 -0.32921069982E+02 -0.44361283780E+03  0.47736956777E+03  0.17287807332E+03 0.  0.
        -24    2    3    3    0    0  0.11380120796E+02  0.30313589964E+02 -0.36372534846E+03  0.37297147412E+03  0.75915548501E+02 0.  0.
          6    2    1    2  501    0  0.10896296955E+02  0.32921069982E+02  0.52082141604E+02  0.18372586741E+03  0.17274292675E+03 0.  0.
         24    2    5    5    0    0 -0.85693991677E+01  0.28900187678E+02 -0.34144398200E+02  0.95113300652E+02  0.83498769946E+02 0.  0.
          5    1    5    5  501    0  0.19465696122E+02  0.40208823032E+01  0.86226539805E+02  0.88612566754E+02  0.47000000000E+01 0. -1.
        -13    1    6    6    0    0  0.22633230796E+02  0.38099011928E+02  0.45659300272E+01  0.44549360974E+02  0.00000000000E+00 0.  1.
         14    1    6    6    0    0 -0.31202629964E+02 -0.91988242500E+01 -0.38710328228E+02  0.50563939678E+02  0.00000000000E+00 0. -1.
         -5    1    3    3    0  503 -0.22276417751E+02 -0.63234659945E+02 -0.79887489340E+02  0.10439809366E+03  0.47000000000E+01 0.  1.
         11    1    4    4    0    0  0.42622005280E+02  0.26119326088E+02 -0.25056033417E+03  0.25549821054E+03  0.00000000000E+00 0. -1.
        -12    1    4    4    0    0 -0.31241884483E+02  0.41942638758E+01 -0.11316501429E+03  0.11747326357E+03  0.00000000000E+00 0.  1.
</event>
<event>
12    1  0.8226261E-002  0.2461242E+03  0.7818608E-02  0.1115840E+00
         21   -1    0    0  501  502  0.00000000000E+00  0.00000000000E+00  0.17045175181E+03  0.17045175181E+03  0.00000000000E+00 0.  1.
         21   -1    0    0  502  503 -0.00000000000E+00 -0.00000000000E+00 -0.51207531268E+03  0.51207531268E+03  0.00000000000E+00 0.  1.
         -6    2    1    2    0  503  0.39943609691E+02  0.17119398921E+03  0.18197424415E+02  0.24679604447E+03  0.17226220542E+03 0.  0.
        -24    2    3    3    0    0  0.38433046367E+02  0.39650321971E+02  0.51557682674E+02  0.11099834558E+03  0.81321528479E+02 0.  0.
          6    2    1    2  501    0 -0.39943609691E+02 -0.17119398921E+03 -0.35982098529E+03  0.43573102003E+03  0.17171926643E+03 0.  0.
         24    2    5    5    0    0  0.39914962879E+02 -0.12083068822E+03 -0.23470397383E+03  0.27891836028E+03  0.80723211624E+02 0.  0.
          5    1    5    5  501    0 -0.79858572571E+02 -0.50363300989E+02 -0.12511701146E+03  0.15681265974E+03  0.47000000000E+01 0. -1.
        -11    1    6    6    0    0 -0.73880427650E+01 -0.97094893545E+02 -0.14221013645E+03  0.17235348687E+03  0.00000000000E+00 0.  1.
         12    1    6    6    0    0  0.47303005644E+02 -0.23735794675E+02 -0.92493837379E+02  0.10656487341E+03  0.00000000000E+00 0. -1.
         -5    1    3    3    0  503  0.15105633241E+01  0.13154366724E+03 -0.33360258259E+02  0.13579769889E+03  0.47000000000E+01 0.  1.
         13    1    4    4    0    0  0.31421201365E+02  0.72668780724E+01 -0.15814475626E+02  0.35919313071E+02  0.00000000000E+00 0. -1.
        -14    1    4    4    0    0  0.70118450020E+01  0.32383443899E+02  0.67372158300E+02  0.75079032513E+02  0.00000000000E+00 0.  1.
</event>
<event>
12    1  0.8226261E-002  0.1891704E+03  0.7818608E-02  0.1159231E+00
         21   -1    0    0  501  502  0.00000000000E+00  0.00000000000E+00  0.17889991427E+03  0.17889991427E+03  0.00000000000E+00 0.  1.
         21   -1    0    0  502  503 -0.00000000000E+00 -0.00000000000E+00 -0.20214337809E+03  0.20214337809E+03  0.00000000000E+00 0.  1.
         -6    2    1    2    0  503  0.75131227487E+02  0.21361932921E+02  0.82640228685E+01  0.18935080317E+03  0.17229161055E+03 0.  0.
        -24    2    3    3    0    0  0.48760552686E+02  0.75328316721E+02 -0.21793198505E+02  0.12202094630E+03  0.79763531992E+02 0.  0.
          6    2    1    2  501    0 -0.75131227487E+02 -0.21361932921E+02 -0.31507486683E+02  0.19169248919E+03  0.17219830189E+03 0.  0.
         24    2    5    5    0    0  0.86517057189E+01 -0.38245982751E+02 -0.53441036155E+02  0.10333061037E+03  0.79269562169E+02 0.  0.
          5    1    5    5  501    0 -0.83782933206E+02  0.16884049830E+02  0.21933549471E+02  0.88361878815E+02  0.47000000000E+01 0. -1.
        -11    1    6    6    0    0  0.39311613702E+02 -0.58899708559E+01 -0.40879047876E+02  0.57019218548E+02  0.00000000000E+00 0.  1.
         12    1    6    6    0    0 -0.30659907983E+02 -0.32356011896E+02 -0.12561988279E+02  0.46311391826E+02  0.00000000000E+00 0. -1.
         -5    1    3    3    0  503  0.26370674801E+02 -0.53966383800E+02  0.30057221374E+02  0.67329856873E+02  0.47000000000E+01 0.  1.
         13    1    4    4    0    0  0.28752210850E+02 -0.10789560898E+02 -0.12372992858E+02  0.33108838780E+02  0.00000000000E+00 0. -1.
        -14    1    4    4    0    0  0.20008341837E+02  0.86117877619E+02 -0.94202056470E+01  0.88912107517E+02  0.00000000000E+00 0.  1.
</event>
<event>
12    1  0.8226261E-002  0.1986389E+03  0.7818608E-02  0.1151124E+00
         21   -1    0    0  501  502  0.00000000000E+00  0.00000000000E+00  0.36120947403E+02  0.36120947403E+02  0.00000000000E+00 0.  1.
         21   -1    0    0  502  503 -0.00000000000E+00 -0.00000000000E+00 -0.11634058054E+04  0.11634058054E+04  0.00000000000E+00 0. -1.
         -6    2    1    2    0  503 -0.77912778942E+02  0.59148662376E+02 -0.41079191048E+03  0.45629748507E+03  0.17288272265E+03 0.  0.
        -24    2    3    3    0    0 -0.23378209547E+02  0.57119966485E+02 -0.38233186768E+03  0.39457067646E+03  0.75492585213E+02 0.  0.
          6    2    1    2  501    0  0.77912778942E+02 -0.59148662376E+02 -0.71649294750E+03  0.74322926771E+03  0.17163518048E+03 0.  0.
         24    2    5    5    0    0  0.91526209183E+02 -0.49638180176E+01 -0.61855044732E+03  0.63037473221E+03  0.79786970568E+02 0.  0.
          5    1    5    5  501    0 -0.13613430241E+02 -0.54184844358E+02 -0.97942500185E+02  0.11285453550E+03  0.47000000000E+01 0. -1.
        -13    1    6    6    0    0  0.43231226628E+02  0.17416013409E+01 -0.50433170872E+03  0.50618420022E+03  0.00000000000E+00 0.  1.
         14    1    6    6    0    0  0.48294982555E+02 -0.67054193585E+01 -0.11421873859E+03  0.12419053199E+03  0.00000000000E+00 0. -1.
         -5    1    3    3    0  503 -0.54534569394E+02  0.20286958908E+01 -0.28460042793E+02  0.61726808615E+02  0.47000000000E+01 0.  1.
         11    1    4    4    0    0 -0.22569831935E+02  0.32607910552E+02 -0.63966985358E+02  0.75262529587E+02  0.00000000000E+00 0. -1.
        -12    1    4    4    0    0 -0.80837761250E+00  0.24512055933E+02 -0.31836488233E+03  0.31930814687E+03  0.00000000000E+00 0.  1.
</event>
<event>
12    1  0.8226261E-002  0.2157278E+03  0.7818608E-02  0.1137112E+00
         21   -1    0    0  503  502  0.00000000000E+00  0.00000000000E+00  0.29459176212E+03  0.29459176212E+03  0.00000000000E+00 0.  1.
         21   -1    0    0  501  503 -0.00000000000E+00 -0.00000000000E+00 -0.17786938133E+03  0.17786938133E+03  0.00000000000E+00 0. -1.
          6    2    1    2  501    0 -0.13039375928E+03  0.15116624886E+02 -0.20664221474E+02  0.21671526386E+03  0.17119419013E+03 0.  0.
         24    2    3    3    0    0 -0.90498245048E+02  0.12047790688E+02  0.51976081537E+02  0.13365038909E+03  0.82618592552E+02 0.  0.
         -6    2    1    2    0  502  0.13039375928E+03 -0.15116624886E+02  0.13738660227E+03  0.25574587958E+03  0.17117193589E+03 0.  0.
        -24    2    5    5    0    0 -0.23592408236E+01  0.17512768442E+02  0.47456499203E+02  0.92046307861E+02  0.76864428695E+02 0.  0.
          5    1    3    3  501    0 -0.39895514230E+02  0.30688341985E+01 -0.72640303012E+02  0.83064874771E+02  0.47000000000E+01 0. -1.
        -13    1    4    4    0    0  0.21718401655E+00  0.29824556514E+02  0.60624454022E+01  0.30435252330E+02  0.00000000000E+00 0.  1.
         14    1    4    4    0    0 -0.90715429065E+02 -0.17776765826E+02  0.45913636135E+02  0.10321513676E+03  0.00000000000E+00 0. -1.
         -5    1    5    5    0  502  0.13275300010E+03 -0.32629393328E+02  0.89930103065E+02  0.16369957172E+03  0.47000000000E+01 0.  1.
         13    1    6    6    0    0  0.31706771690E+02  0.22670936203E+02  0.82309647143E+01  0.39837664332E+02  0.00000000000E+00 0. -1.
        -14    1    6    6    0    0 -0.34066012513E+02 -0.51581677616E+01  0.39225534488E+02  0.52208643529E+02  0.00000000000E+00 0.  1.
</event>
<event>
12    1  0.8226261E-002  0.1780299E+03  0.7818608E-02  0.1169972E+00
         21   -1    0    0  501  502  0.00000000000E+00  0.00000000000E+00  0.76167793986E+02  0.76167793986E+02  0.00000000000E+00 0.  1.
         21   -1    0    0  502  503 -0.00000000000E+00 -0.00000000000E+00 -0.77740884971E+03  0.77740884971E+03  0.00000000000E+00 0.  1.
         -6    2    1    2    0  503  0.10725734973E+02  0.45218452648E+02 -0.64304699020E+03  0.66723614818E+03  0.17185719649E+03 0.  0.
        -24    2    3    3    0    0  0.24405344703E+02 -0.24138619966E+02 -0.19076955529E+03  0.20944306897E+03  0.79341553366E+02 0.  0.
          6    2    1    2  501    0 -0.10725734973E+02 -0.45218452648E+02 -0.58194065523E+02  0.18634049551E+03  0.17081124423E+03 0.  0.
         24    2    5    5    0    0 -0.24263930061E+02  0.38369063659E+02 -0.39089879252E+02  0.99408248668E+02  0.79328796128E+02 0.  0.
          5    1    5    5  501    0  0.13538195088E+02 -0.83587516307E+02 -0.19104186271E+02  0.86932246846E+02  0.47000000000E+01 0. -1.
        -13    1    6    6    0    0  0.92743560248E+00 -0.23772308220E+02 -0.55264098717E+01  0.24423840422E+02  0.00000000000E+00 0.  1.
         14    1    6    6    0    0 -0.25191365664E+02  0.62141371879E+02 -0.33563469381E+02  0.74984408245E+02  0.00000000000E+00 0. -1.
         -5    1    3    3    0  503 -0.13679609730E+02  0.69357072615E+02 -0.45227743491E+03  0.45779307921E+03  0.47000000000E+01 0.  1.
         11    1    4    4    0    0  0.41069367686E+02  0.19280205090E+00 -0.45854994760E+02  0.61558189376E+02  0.00000000000E+00 0. -1.
        -12    1    4    4    0    0 -0.16664022983E+02 -0.24331422017E+02 -0.14491456053E+03  0.14788487959E+03  0.00000000000E+00 0.  1.
</event>
<event>
12    1  0.8226261E-002  0.2084945E+03  0.7818608E-02  0.1142774E+00
         21   -1    0    0  503  502  0.00000000000E+00  0.00000000000E+00  0.11584197087E+03  0.11584197087E+03  0.00000000000E+00 0. -1.
         21   -1    0    0  501  503 -0.00000000000E+00 -0.00000000000E+00 -0.51375447221E+03  0.51375447221E+03  0.00000000000E+00 0. -1.
          6    2    1    2  501    0  0.93509143561E+02 -0.70538304636E+02 -0.36247461334E+03  0.41816000661E+03  0.17248284974E+03 0.  0.
         24    2    3    3    0    0  0.23720324535E+02  0.21215417844E+02 -0.84865016376E+02  0.11752999616E+03  0.74822999426E+02 0.  0.
         -6    2    1    2    0  502 -0.93509143561E+02  0.70538304636E+02 -0.35437888000E+02  0.21143643648E+03  0.17242363647E+03 0.  0.
        -24    2    5    5    0    0 -0.11491443007E+03  0.75844994689E+02  0.11515049012E+02  0.15934982070E+03  0.79385008308E+02 0.  0.
          5    1    3    3  501    0  0.69788819026E+02 -0.91753722480E+02 -0.27760959697E+03  0.30063001044E+03  0.47000000000E+01 0. -1.
        -11    1    4    4    0    0  0.34801296804E+02  0.41538540367E+02 -0.74608482789E+02  0.92211747077E+02  0.00000000000E+00 0.  1.
         12    1    4    4    0    0 -0.11080972269E+02 -0.20323122523E+02 -0.10256533588E+02  0.25318249085E+02  0.00000000000E+00 0. -1.
         -5    1    5    5    0  502  0.21405286510E+02 -0.53066900530E+01 -0.46952937012E+02  0.52086615785E+02  0.47000000000E+01 0.  1.
         13    1    6    6    0    0 -0.65769742385E+02 -0.26569550109E+01 -0.13951098732E+01  0.65838170957E+02  0.00000000000E+00 0. -1.
        -14    1    6    6    0    0 -0.49144687686E+02  0.78501949700E+02  0.12910158885E+02  0.93511649739E+02  0.00000000000E+00 0.  1.
</event>
<event>
12    1  0.8226261E-002  0.1932760E+03  0.7818608E-02  0.1155592E+00
         21   -1    0    0  501  502  0.00000000000E+00  0.00000000000E+00  0.41926885131E+03  0.41926885131E+03  0.00000000000E+00 0.  1.
         21   -1    0    0  502  503 -0.00000000000E+00 -0.00000000000E+00 -0.11836620553E+03  0.11836620553E+03  0.00000000000E+00 0. -1.
         -6    2    1    2    0  503  0.83191027082E+02 -0.15562839533E+02  0.28430714679E+03  0.34364790236E+03  0.17349460544E+03 0.  0.
        -24    2    3    3    0    0  0.10988762898E+03  0.21567764058E+02  0.25323293048E+03  0.28815837907E+03  0.79798965509E+02 0.  0.
          6    2    1    2  501    0 -0.83191027082E+02  0.15562839533E+02  0.16595498980E+02  0.19398715448E+03  0.17376034230E+03 0.  0.
         24    2    5    5    0    0 -0.10116649545E+03  0.32820254964E+02  0.55626903354E+02  0.14744173174E+03  0.85632254106E+02 0.  0.
          5    1    5    5  501    0  0.17975468371E+02 -0.17257415431E+02 -0.39031404374E+02  0.46545422739E+02  0.47000000000E+01 0. -1.
        -11    1    6    6    0    0 -0.19151457057E+02  0.23208611377E+02  0.57441420982E+02  0.64845468568E+02  0.00000000000E+00 0.  1.
         12    1    6    6    0    0 -0.82015038396E+02  0.96116435874E+01 -0.18145176272E+01  0.82596263171E+02  0.00000000000E+00 0. -1.
         -5    1    3    3    0  503 -0.26696601897E+02 -0.37130603591E+02  0.31074216311E+02  0.55489523292E+02  0.47000000000E+01 0.  1.
         11    1    4    4    0    0  0.83337019753E+02 -0.19710320255E+02  0.18743975066E+03  0.20607575237E+03  0.00000000000E+00 0. -1.
        -12    1    4    4    0    0  0.26550609227E+02  0.41278084313E+02  0.65793179822E+02  0.82082626700E+02  0.00000000000E+00 0.  1.
</event>
<event>
12    1  0.8226261E-002  0.2085528E+03  0.7818608E-02  0.1144891E+00
         21   -1    0    0  503  502  0.00000000000E+00  0.00000000000E+00  0.73669661601E+02  0.73669661601E+02  0.00000000000E+00 0. -1.
         21   -1    0    0  501  503 -0.00000000000E+00 -0.00000000000E+00 -0.80612955269E+03  0.80612955269E+03  0.00000000000E+00 0. -1.
          6    2    1    2  501    0 -0.97870042579E+02  0.13289094881E+02 -0.61547590225E+03  0.64984988250E+03  0.18368216639E+03 0.  0.
         24    2    3    3    0    0 -0.11071429365E+03 -0.14420780259E+02 -0.27975130588E+03  0.31270613485E+03  0.84016188389E+02 0.  0.
         -6    2    1    2    0  502  0.97870042579E+02 -0.13289094881E+02 -0.11698398883E+03  0.22994933179E+03  0.17157009142E+03 0.  0.
        -24    2    5    5    0    0  0.26637656450E+02 -0.43022115145E+02 -0.64539893880E+02  0.13651176749E+03  0.10913110293E+03 0.  0.
          5    1    3    3  501    0  0.12844251070E+02  0.27709875140E+02 -0.33572459637E+03  0.33714374764E+03  0.47000000000E+01 0. -1.
        -13    1    4    4    0    0 -0.33537028773E+02  0.33660404363E+02 -0.76712251500E+02  0.90235938799E+02  0.00000000000E+00 0.  1.
         14    1    4    4    0    0 -0.77177264877E+02 -0.48081184622E+02 -0.20303905438E+03  0.22247019605E+03  0.00000000000E+00 0. -1.
         -5    1    5    5    0  502  0.71232386129E+02  0.29733020264E+02 -0.52444094954E+02  0.93437564305E+02  0.47000000000E+01 0.  1.
         11    1    6    6    0    0  0.43138106158E+02  0.24409112877E+02 -0.17109140545E+02  0.52434947168E+02  0.00000000000E+00 0. -1.
        -12    1    6    6    0    0 -0.16500449708E+02 -0.67431228022E+02 -0.47430753335E+02  0.84076820319E+02  0.00000000000E+00 0.  1.
</event>
<event>
12    1  0.8226261E-002  0.2815786E+03  0.7818608E-02  0.1094847E+00
         21   -1    0    0  503  502  0.00000000000E+00  0.00000000000E+00  0.57817170289E+03  0.57817170289E+03  0.00000000000E+00 0.  1.
         21   -1    0    0  501  503 -0.00000000000E+00 -0.00000000000E+00 -0.13727425925E+03  0.13727425925E+03  0.00000000000E+00 0. -1.
          6    2    1    2  501    0 -0.58062965884E+02  0.21476052642E+03  0.20659753667E+03  0.34913607231E+03  0.17239507857E+03 0.  0.
         24    2    3    3    0    0 -0.68462962798E+02  0.85930736970E+02  0.16362480611E+03  0.21284953535E+03  0.80377725097E+02 0.  0.
         -6    2    1    2    0  502  0.58062965884E+02 -0.21476052642E+03  0.23429990696E+03  0.36630988982E+03  0.17260677061E+03 0.  0.
        -24    2    5    5    0    0 -0.21311284209E+02 -0.47960839613E+02  0.96770054063E+02  0.13596458916E+03  0.79796699000E+02 0.  0.
          5    1    3    3  501    0  0.10399996914E+02  0.12882978945E+03  0.42972730562E+02  0.13628653697E+03  0.47000000000E+01 0. -1.
        -11    1    4    4    0    0  0.83026969021E+01  0.48571427755E+02  0.45254247295E+02  0.66903402517E+02  0.00000000000E+00 0.  1.
         12    1    4    4    0    0 -0.76765659700E+02  0.37359309215E+02  0.11837055882E+03  0.14594613283E+03  0.00000000000E+00 0. -1.
         -5    1    5    5    0  502  0.79374250092E+02 -0.16679968681E+03  0.13752985290E+03  0.23034530066E+03  0.47000000000E+01 0.  1.
         11    1    6    6    0    0  0.23321667785E+02 -0.23519312449E+02  0.72245364946E+02  0.79476103342E+02  0.00000000000E+00 0. -1.
        -12    1    6    6    0    0 -0.44632951993E+02 -0.24441527164E+02  0.24524689117E+02  0.56488485818E+02  0.00000000000E+00 0.  1.
</event>
<event>
12    1  0.8226261E-002  0.2489542E+03  0.7818608E-02  0.1114110E+00
         21   -1    0    0  501  502  0.00000000000E+00  0.00000000000E+00  0.33975422006E+02  0.33975422006E+02  0.00000000000E+00 0. -1.
         21   -1    0    0  502  503 -0.00000000000E+00 -0.00000000000E+00 -0.29621280059E+04  0.29621280059E+04  0.00000000000E+00 0.  1.
         -6    2    1    2    0  503 -0.16335136185E+03  0.73464492137E+02 -0.53128032461E+03  0.58633687810E+03  0.17161425429E+03 0.  0.
        -24    2    3    3    0    0 -0.17376334857E+03  0.49596039266E+02 -0.33985712668E+03  0.39309339641E+03  0.79787739201E+02 0.  0.
          6    2    1    2  501    0  0.16335136185E+03 -0.73464492137E+02 -0.23968722593E+04  0.24097665498E+04  0.17290893044E+03 0.  0.
         24    2    5    5    0    0  0.15148537175E+03 -0.11335311603E+03 -0.18941790971E+04  0.19053318074E+04  0.81105472380E+02 0.  0.
          5    1    5    5  501    0  0.11865990096E+02  0.39888623889E+02 -0.50269316225E+03  0.50443474247E+03  0.47000000000E+01 0. -1.
        -13    1    6    6    0    0  0.59563321910E+02 -0.12537363576E+01 -0.65420524824E+03  0.65691237467E+03  0.00000000000E+00 0.  1.
         14    1    6    6    0    0  0.91922049844E+02 -0.11209937967E+03 -0.12399738488E+04  0.12484194327E+04  0.00000000000E+00 0. -1.
         -5    1    3    3    0  503  0.10411986721E+02  0.23868452871E+02 -0.19142319793E+03  0.19324348169E+03  0.47000000000E+01 0.  1.
         11    1    4    4    0    0 -0.39728928609E+02  0.49484920403E+02 -0.11289577309E+03  0.12950907574E+03  0.00000000000E+00 0. -1.
        -12    1    4    4    0    0 -0.13403441996E+03  0.11111886257E+00 -0.22696135358E+03  0.26358432067E+03  0.00000000000E+00 0.  1.
</event>
<event>
12    1  0.8226261E-002  0.1920890E+03  0.7818608E-02  0.1156652E+00
         21   -1    0    0  503  502  0.00000000000E+00  0.00000000000E+00  0.29209156240E+03  0.29209156240E+03  0.00000000000E+00 0.  1.
         21   -1    0    0  501  503 -0.00000000000E+00 -0.00000000000E+00 -0.33017729208E+03  0.33017729208E+03  0.00000000000E+00 0.  1.
          6    2    1    2  501    0  0.23232154700E+02 -0.81775105370E+02 -0.26363083424E+03  0.32618919939E+03  0.17225352295E+03 0.  0.
         24    2    3    3    0    0 -0.24468158857E+02  0.22413937695E+01 -0.71799150321E+02  0.11135070890E+03  0.81487101693E+02 0.  0.
         -6    2    1    2    0  502 -0.23232154700E+02  0.81775105370E+02  0.22554510456E+03  0.29607965509E+03  0.17194669841E+03 0.  0.
        -24    2    5    5    0    0 -0.81902781536E+01  0.11296545338E+03  0.22109053653E+03  0.26085141308E+03  0.79587436504E+02 0.  0.
          5    1    3    3  501    0  0.47700313557E+02 -0.84016499140E+02 -0.19183168392E+03  0.21483849049E+03  0.47000000000E+01 0. -1.
        -11    1    4    4    0    0  0.24871642111E+02  0.11083426538E+02 -0.47576518322E+01  0.27641927865E+02  0.00000000000E+00 0.  1.
         12    1    4    4    0    0 -0.49339800968E+02 -0.88420327689E+01 -0.67041498489E+02  0.83708781037E+02  0.00000000000E+00 0. -1.
         -5    1    5    5    0  502 -0.15041876547E+02 -0.31190348006E+02  0.44545680352E+01  0.35228242011E+02  0.47000000000E+01 0.  1.
         13    1    6    6    0    0 -0.27157514740E+02  0.12965863409E+02  0.22086741150E+02  0.37329189054E+02  0.00000000000E+00 0. -1.
        -14    1    6    6    0    0  0.18967236587E+02  0.99999589967E+02  0.19900379538E+03  0.22352222402E+03  0.00000000000E+00 0.  1.
</event>
<event>
12    1  0.8226261E-002  0.2600964E+03  0.7818608E-02  0.1107280E+00
         21   -1    0    0  503  502  0.00000000000E+00  0.00000000000E+00  0.38912239051E+03  0.38912239051E+03  0.00000000000E+00 0. -1.
         21   -1    0    0  501  503 -0.00000000000E+00 -0.00000000000E+00 -0.39726637580E+03  0.39726637580E+03  0.00000000000E+00 0.  1.
          6    2    1    2  501    0 -0.16820269013E+03 -0.95417031833E+02 -0.29949937958E+03  0.39582750796E+03  0.17199704289E+03 0.  0.
         24    2    3    3    0    0 -0.36683651525E+02  0.92561184327E+01 -0.82344518126E+02  0.12117855065E+03  0.80450329110E+02 0.  0.
         -6    2    1    2    0  502  0.16820269013E+03  0.95417031833E+02  0.29135539429E+03  0.39056125834E+03  0.17393555072E+03 0.  0.
        -24    2    5    5    0    0  0.13116377727E+03  0.11379853095E+03  0.29160719338E+03  0.34894498775E+03  0.81079017809E+02 0.  0.
          5    1    3    3  501    0 -0.13151903860E+03 -0.10467315027E+03 -0.21715486145E+03  0.27464895732E+03  0.47000000000E+01 0. -1.
        -13    1    4    4    0    0 -0.24533172680E+02 -0.16279608103E+02 -0.87599597726E+02  0.92415321909E+02  0.00000000000E+00 0.  1.
         14    1    4    4    0    0 -0.12150478845E+02  0.25535726535E+02  0.52550796005E+01  0.28763228738E+02  0.00000000000E+00 0. -1.
         -5    1    5    5    0  502  0.37038912856E+02 -0.18381499114E+02 -0.25179909261E+00  0.41616270592E+02  0.47000000000E+01 0.  1.
         11    1    6    6    0    0  0.98849273938E+02  0.35079953152E+02  0.18354328805E+03  0.21139990695E+03  0.00000000000E+00 0. -1.
        -12    1    6    6    0    0  0.32314503336E+02  0.78718577794E+02  0.10806390533E+03  0.13754508080E+03  0.00000000000E+00 0.  1.
</event>
<event>
12    1  0.8226261E-002  0.1991041E+03  0.7818608E-02  0.1151063E+00
         21   -1    0    0  503  502  0.00000000000E+00  0.00000000000E+00  0.48133061038E+03  0.48133061038E+03  0.00000000000E+00 0.  1.
         21   -1    0    0  501  503 -0.00000000000E+00 -0.00000000000E+00 -0.15900948010E+03  0.15900948010E+03  0.00000000000E+00 0. -1.
          6    2    1    2  501    0 -0.95070088969E+02 -0.33122111004E+02 -0.63256257307E+02  0.20639035314E+03  0.16870159373E+03 0.  0.
         24    2    3    3    0    0 -0.90475949118E+02 -0.41623297845E+02  0.82562104893E+01  0.13407507571E+03  0.89384364537E+02 0.  0.
         -6    2    1    2    0  502  0.95070088969E+02  0.33122111004E+02  0.38557738759E+03  0.43394973735E+03  0.17177618192E+03 0.  0.
        -24    2    5    5    0    0  0.62431903198E+02  0.72559567132E+02  0.35000218997E+03  0.37143374898E+03  0.79365380228E+02 0.  0.
          5    1    3    3  501    0 -0.45941398510E+01  0.85011868408E+01 -0.71512467796E+02  0.72315277425E+02  0.47000000000E+01 0. -1.
        -11    1    4    4    0    0  0.90178411960E+01 -0.67060965099E+01 -0.21718987244E+02  0.24454193856E+02  0.00000000000E+00 0.  1.
         12    1    4    4    0    0 -0.99493790314E+02 -0.34917201335E+02  0.29975197733E+02  0.10962088186E+03  0.00000000000E+00 0. -1.
         -5    1    5    5    0  502  0.32638185772E+02 -0.39437456128E+02  0.35575197615E+02  0.62515988369E+02  0.47000000000E+01 0.  1.
         13    1    6    6    0    0 -0.11772977706E+02 -0.76849320361E+01  0.26999488121E+02  0.30440656091E+02  0.00000000000E+00 0. -1.
        -14    1    6    6    0    0  0.74204880903E+02  0.80244499168E+02  0.32300270185E+03  0.34099309289E+03  0.00000000000E+00 0.  1.
</event>
<event>
12    1  0.8226261E-002  0.2726387E+03  0.7818608E-02  0.1099878E+00
         21   -1    0    0  503  502  0.00000000000E+00  0.00000000000E+00  0.43252893951E+03  0.43252893951E+03  0.00000000000E+00 0. -1.
         21   -1    0    0  501  503 -0.00000000000E+00 -0.00000000000E+00 -0.19158597758E+03  0.19158597758E+03  0.00000000000E+00 0.  1.
          6    2    1    2  501    0  0.20763125993E+03  0.44121324337E+02  0.19347608351E+02  0.27332436886E+03  0.17109777703E+03 0.  0.
         24    2    3    3    0    0  0.21806843668E+03  0.49955772447E+02 -0.11989577066E+02  0.23945573096E+03  0.84533276610E+02 0.  0.
         -6    2    1    2    0  502 -0.20763125993E+03 -0.44121324337E+02  0.22159535358E+03  0.35079054823E+03  0.16997669439E+03 0.  0.
        -24    2    5    5    0    0 -0.16410127554E+03 -0.78897301096E+02  0.21764250372E+03  0.29473750975E+03  0.79673882015E+02 0.  0.
          5    1    3    3  501    0 -0.10437176753E+02 -0.58344481100E+01  0.31337185417E+02  0.33868637900E+02  0.47000000000E+01 0. -1.
        -13    1    4    4    0    0  0.20530107186E+03  0.33945507005E+02 -0.32339083657E+02  0.21058642853E+03  0.00000000000E+00 0.  1.
         14    1    4    4    0    0  0.12767364826E+02  0.16010265442E+02  0.20349506591E+02  0.28869302427E+02  0.00000000000E+00 0. -1.
         -5    1    5    5    0  502 -0.43529984388E+02  0.34775976759E+02  0.39528498631E+01  0.56053038476E+02  0.47000000000E+01 0.  1.
         11    1    6    6    0    0 -0.12304611137E+02 -0.56342568438E+00  0.63405547321E+02  0.64590899783E+02  0.00000000000E+00 0. -1.
        -12    1    6    6    0    0 -0.15179666440E+03 -0.78333875411E+02  0.15423695640E+03  0.23014660997E+03  0.00000000000E+00 0.  1.
</event>
<event>
12    1  0.8226261E-002  0.1958003E+03  0.7818608E-02  0.1153634E+00
         21   -1    0    0  501  502  0.00000000000E+00  0.00000000000E+00  0.51386341027E+03  0.51386341027E+03  0.00000000000E+00 0.  1.
         21   -1    0    0  502  503 -0.00000000000E+00 -0.00000000000E+00 -0.16435199846E+03  0.16435199846E+03  0.00000000000E+00 0. -1.
         -6    2    1    2    0  503  0.86970798355E+02 -0.23673675814E+02 -0.76844875822E+02  0.20904863868E+03  0.17225514710E+03 0.  0.
        -24    2    3    3    0    0  0.68713004096E+01 -0.45126233225E+02 -0.91102238924E+02  0.12477821568E+03  0.72016619450E+02 0.  0.
          6    2    1    2  501    0 -0.86970798355E+02  0.23673675814E+02  0.42635628762E+03  0.46916677004E+03  0.17382005472E+03 0.  0.
         24    2    5    5    0    0 -0.27814009059E+02  0.25622838817E+02  0.38832650450E+03  0.39865663347E+03  0.81850402178E+02 0.  0.
          5    1    5    5  501    0 -0.59156789296E+02 -0.19491630024E+01  0.38029783120E+02  0.70510136579E+02  0.47000000000E+01 0. -1.
        -13    1    6    6    0    0 -0.54110225618E+02  0.22959562466E+02  0.19917323054E+03  0.20766567793E+03  0.00000000000E+00 0.  1.
         14    1    6    6    0    0  0.26296216559E+02  0.26632763507E+01  0.18915327396E+03  0.19099095554E+03  0.00000000000E+00 0. -1.
         -5    1    3    3    0  503  0.80099497946E+02  0.21452557411E+02  0.14257363102E+02  0.84270423004E+02  0.47000000000E+01 0.  1.
         13    1    4    4    0    0  0.38605107077E+02 -0.14979696499E+02 -0.41518225146E+02  0.58638797898E+02  0.00000000000E+00 0. -1.
        -14    1    4    4    0    0 -0.31733806668E+02 -0.30146536726E+02 -0.49584013778E+02  0.66139417782E+02  0.00000000000E+00 0.  1.
</event>
<event>
12    1  0.8226261E-002  0.2103651E+03  0.7818608E-02  0.1142366E+00
         21   -1    0    0  501  502  0.00000000000E+00  0.00000000000E+00  0.66292472697E+03  0.66292472697E+03  0.00000000000E+00 0.  1.
         21   -1    0    0  502  503 -0.00000000000E+00 -0.00000000000E+00 -0.70197385361E+02  0.70197385361E+02  0.00000000000E+00 0. -1.
         -6    2    1    2    0  503 -0.11159719761E+03  0.17666275781E+02  0.19343082886E+03  0.28180050658E+03  0.17096785704E+03 0.  0.
        -24    2    3    3    0    0 -0.76544247455E+02 -0.55562036795E+02  0.10489587190E+03  0.16158560034E+03  0.78489493215E+02 0.  0.
          6    2    1    2  501    0  0.11159719761E+03 -0.17666275781E+02  0.39929651275E+03  0.45132160575E+03  0.17744704818E+03 0.  0.
         24    2    5    5    0    0  0.79138704878E+02 -0.59635459699E+02  0.15724222403E+03  0.20347622081E+03  0.82813843977E+02 0.  0.
          5    1    5    5  501    0  0.32458492735E+02  0.41969183917E+02  0.24205428871E+03  0.24784538493E+03  0.47000000000E+01 0. -1.
        -11    1    6    6    0    0  0.27141268647E+02 -0.36226249818E+02  0.13479644511E+03  0.14219378064E+03  0.00000000000E+00 0.  1.
         12    1    6    6    0    0  0.51997436232E+02 -0.23409209880E+02  0.22445778928E+02  0.61282440173E+02  0.00000000000E+00 0. -1.
         -5    1    3    3    0  503 -0.35052950158E+02  0.73228312577E+02  0.88534956966E+02  0.12021490624E+03  0.47000000000E+01 0.  1.
         11    1    4    4    0    0 -0.21181418339E+01  0.13767594340E+02 -0.19512729345E+01  0.14065583699E+02  0.00000000000E+00 0. -1.
        -12    1    4    4    0    0 -0.74426105621E+02 -0.69329631135E+02  0.10684714483E+03  0.14752001664E+03  0.00000000000E+00 0.  1.
</event>
<event>
12    1  0.8226261E-002  0.1990045E+03  0.7818608E-02  0.1151109E+00
         21   -1    0    0  503  502  0.00000000000E+00  0.00000000000E+00  0.28850161094E+03  0.28850161094E+03  0.00000000000E+00 0.  1.
         21   -1    0    0  501  503 -0.00000000000E+00 -0.00000000000E+00 -0.19984249847E+03  0.19984249847E+03  0.00000000000E+00 0.  1.
          6    2    1    2  501    0  0.94496847013E+02 -0.11503067938E+02 -0.94325912260E+02  0.21799933235E+03  0.17194288736E+03 0.  0.
         24    2    3    3    0    0  0.98743330503E+02 -0.63560797441E+02 -0.74970552268E+02  0.16209978152E+03  0.82858525032E+02 0.  0.
         -6    2    1    2    0  502 -0.94496847013E+02  0.11503067938E+02  0.18298502473E+03  0.27034477707E+03  0.17475927598E+03 0.  0.
        -24    2    5    5    0    0 -0.10984999273E+03 -0.41101674767E+02  0.10963665632E+03  0.17866571082E+03  0.78389229125E+02 0.  0.
          5    1    3    3  501    0 -0.42464834900E+01  0.52057729503E+02 -0.19355359992E+02  0.55899550834E+02  0.47000000000E+01 0. -1.
        -13    1    4    4    0    0  0.70979593648E+01 -0.46509489475E+02 -0.42460964341E+02  0.63375445806E+02  0.00000000000E+00 0.  1.
         14    1    4    4    0    0  0.91645371138E+02 -0.17051307965E+02 -0.32509587927E+02  0.98724335711E+02  0.00000000000E+00 0. -1.
         -5    1    5    5    0  502  0.15353145718E+02  0.52604742705E+02  0.73348368410E+02  0.91679066241E+02  0.47000000000E+01 0.  1.
         13    1    6    6    0    0 -0.20078468490E+02 -0.46401330807E+02  0.31780990675E+02  0.59718169478E+02  0.00000000000E+00 0. -1.
        -14    1    6    6    0    0 -0.89771524240E+02  0.52996560393E+01  0.77855665649E+02  0.11894754135E+03  0.00000000000E+00 0.  1.
</event>
<event>
12    1  0.8226261E-002  0.1851750E+03  0.7818608E-02  0.1164661E+00
         21   -1    0    0  503  502  0.00000000000E+00  0.00000000000E+00  0.58413776099E+03  0.58413776099E+03  0.00000000000E+00 0. -1.
         21   -1    0    0  501  503 -0.00000000000E+00 -0.00000000000E+00 -0.86259406447E+02  0.86259406447E+02  0.00000000000E+00 0. -1.
          6    2    1    2  501    0 -0.22325428855E+01  0.67921178137E+02  0.48298910068E+02  0.18417557017E+03  0.16422419203E+03 0.  0.
         24    2    3    3    0    0 -0.75174073516E+01  0.66421395836E+02  0.92685663587E+02  0.13920387877E+03  0.79490718910E+02 0.  0.
         -6    2    1    2    0  502  0.22325428855E+01 -0.67921178137E+02  0.44957944448E+03  0.48622159727E+03  0.17225415544E+03 0.  0.
        -24    2    5    5    0    0  0.29213906585E+02 -0.10642005071E+03  0.29645695308E+03  0.32597570949E+03  0.78706788901E+02 0.  0.
          5    1    3    3  501    0  0.52848644661E+01  0.14997823014E+01 -0.44386753519E+02  0.44971691399E+02  0.47000000000E+01 0. -1.
        -11    1    4    4    0    0  0.18360525448E+02 -0.67204449663E+01  0.16926662844E+01  0.19624943170E+02  0.00000000000E+00 0.  1.
         12    1    4    4    0    0 -0.25877932799E+02  0.73141840802E+02  0.90992997302E+02  0.11957893560E+03  0.00000000000E+00 0. -1.
         -5    1    5    5    0  502 -0.26981363700E+02  0.38498872574E+02  0.15312249140E+03  0.16024588777E+03  0.47000000000E+01 0.  1.
         13    1    6    6    0    0  0.44880421483E+01 -0.10492750934E+03  0.27012785097E+03  0.28982577630E+03  0.00000000000E+00 0. -1.
        -14    1    6    6    0    0  0.24725864437E+02 -0.14925413690E+01  0.26329102110E+02  0.36149933192E+02  0.00000000000E+00 0.  1.
</event>
<event>
12    1  0.8226261E-002  0.2281405E+03  0.7818608E-02  0.1128226E+00
         21   -1    0    0  503  502  0.00000000000E+00  0.00000000000E+00  0.23154943574E+03  0.23154943574E+03  0.00000000000E+00 0. -1.
         21   -1    0    0  501  503 -0.00000000000E+00 -0.00000000000E+00 -0.23850419915E+03  0.23850419915E+03  0.00000000000E+00 0. -1.
          6    2    1    2  501    0  0.96104900607E+02  0.11464775966E+03  0.55891094107E+02  0.23341535774E+03  0.17023117844E+03 0.  0.
         24    2    3    3    0    0  0.28258936116E+02  0.63794446542E+02 -0.32258365989E+02  0.11101620877E+03  0.80098049628E+02 0.  0.
         -6    2    1    2    0  502 -0.96104900607E+02 -0.11464775966E+03 -0.62845857513E+02  0.23663827715E+03  0.17224346632E+03 0.  0.
        -24    2    5    5    0    0 -0.10987386047E+03 -0.62784558799E+02 -0.91604891160E+02  0.17557644066E+03  0.80134040147E+02 0.  0.
          5    1    3    3  501    0  0.67845964492E+02  0.50853313122E+02  0.88149460096E+02  0.12239914897E+03  0.47000000000E+01 0. -1.
        -11    1    4    4    0    0 -0.22899322754E+02  0.16278780610E+02  0.95029988498E+01  0.29659478550E+02  0.00000000000E+00 0.  1.
         12    1    4    4    0    0  0.51158258869E+02  0.47515665932E+02 -0.41761364839E+02  0.81356730224E+02  0.00000000000E+00 0. -1.
         -5    1    5    5    0  502  0.13768959867E+02 -0.51863200864E+02  0.28759033647E+02  0.61061836494E+02  0.47000000000E+01 0.  1.
         13    1    6    6    0    0 -0.66937019793E+02 -0.78582786447E+02 -0.71688244860E+02  0.12567825347E+03  0.00000000000E+00 0. -1.
        -14    1    6    6    0    0 -0.42936840682E+02  0.15798227648E+02 -0.19916646300E+02  0.49898187186E+02  0.00000000000E+00 0.  1.
</event>
<event>
12    1  0.8226261E-002  0.1937400E+03  0.7818608E-02  0.1155480E+00
         21   -1    0    0  501  502  0.00000000000E+00  0.00000000000E+00  0.30971164496E+03  0.30971164496E+03  0.00000000000E+00 0.  1.
         21   -1    0    0  502  503 -0.00000000000E+00 -0.00000000000E+00 -0.15062201567E+03  0.15062201567E+03  0.00000000000E+00 0.  1.
         -6    2    1    2    0  503 -0.16326023017E+02 -0.84515648949E+02 -0.24147270578E+02  0.19366731796E+03  0.17179786211E+03 0.  0.
        -24    2    3    3    0    0 -0.10943932874E+02  0.76904761064E+01 -0.50562046207E+02  0.97486411520E+02  0.82268869112E+02 0.  0.
          6    2    1    2  501    0  0.16326023017E+02  0.84515648949E+02  0.18323689987E+03  0.26666634267E+03  0.17356768965E+03 0.  0.
         24    2    5    5    0    0 -0.35130997103E+02  0.58453510359E+02  0.18162366850E+03  0.20877202081E+03  0.77120683888E+02 0.  0.
          5    1    5    5  501    0  0.51457020119E+02  0.26062138590E+02  0.16132313706E+01  0.57894321854E+02  0.47000000000E+01 0. -1.
        -13    1    6    6    0    0 -0.46426531284E+02  0.26929975687E+02  0.51408484767E+02  0.74320109685E+02  0.00000000000E+00 0.  1.
         14    1    6    6    0    0  0.11295534181E+02  0.31523534672E+02  0.13021518374E+03  0.13445191113E+03  0.00000000000E+00 0. -1.
         -5    1    3    3    0  503 -0.53820901422E+01 -0.92206125056E+02  0.26414775630E+02  0.96180906440E+02  0.47000000000E+01 0.  1.
         13    1    4    4    0    0  0.26148122386E+02  0.16663045837E+02  0.36171360325E+01  0.31216423145E+02  0.00000000000E+00 0. -1.
        -14    1    4    4    0    0 -0.37092055261E+02 -0.89725697308E+01 -0.54179182240E+02  0.66269988375E+02  0.00000000000E+00 0.  1.
</event>
<event>
12    1  0.8226261E-002  0.1905860E+03  0.7818608E-02  0.1158991E+00
         21   -1    0    0  501  502  0.00000000000E+00  0.00000000000E+00  0.25302776570E+03  0.25302776570E+03  0.00000000000E+00 0.  1.
         21   -1    0    0  502  503 -0.00000000000E+00 -0.00000000000E+00 -0.21203792035E+03  0.21203792035E+03  0.00000000000E+00 0. -1.
         -6    2    1    2    0  503 -0.27521459236E+02  0.62433044181E+02 -0.11513166210E+03  0.21869817907E+03  0.17296900933E+03 0.  0.
        -24    2    3    3    0    0 -0.22305447959E+02  0.99907367167E+02 -0.44122967028E+02  0.13810130300E+03  0.81523730586E+02 0.  0.
          6    2    1    2  501    0  0.27521459236E+02 -0.62433044181E+02  0.15612150744E+03  0.24636750697E+03  0.17795422918E+03 0.  0.
         24    2    5    5    0    0 -0.31555156283E+02 -0.91747878519E+02  0.10045246533E+03  0.15993523139E+03  0.77943436848E+02 0.  0.
          5    1    5    5  501    0  0.59076615520E+02  0.29314834338E+02  0.55669042111E+02  0.86432275587E+02  0.47000000000E+01 0. -1.
        -11    1    6    6    0    0  0.11030674919E+02 -0.64419181296E+02  0.84609576134E+02  0.10691252070E+03  0.00000000000E+00 0.  1.
         12    1    6    6    0    0 -0.42585831202E+02 -0.27328697223E+02  0.15842889194E+02  0.53022710692E+02  0.00000000000E+00 0. -1.
         -5    1    3    3    0  503 -0.52160112770E+01 -0.37474322986E+02 -0.71008695070E+02  0.80596876072E+02  0.47000000000E+01 0.  1.
         11    1    4    4    0    0 -0.42478658106E+02  0.17718817143E+02 -0.19290904195E+02  0.49905228785E+02  0.00000000000E+00 0. -1.
        -12    1    4    4    0    0  0.20173210147E+02  0.82188550025E+02 -0.24832062833E+02  0.88196074217E+02  0.00000000000E+00 0.  1.
</event>
<event>
12    1  0.8226261E-002  0.1862481E+03  0.7818608E-02  0.1161951E+00
         21   -1    0    0  503  502  0.00000000000E+00  0.00000000000E+00  0.16842199493E+04  0.16842199493E+04  0.00000000000E+00 0. -1.
         21   -1    0    0  501  503 -0.00000000000E+00 -0.00000000000E+00 -0.21285821186E+02  0.21285821186E+02  0.00000000000E+00 0.  1.
          6    2    1    2  501    0  0.55921474469E+02  0.42011069393E+02  0.98877843392E+03  0.10061665580E+04  0.17261578688E+03 0.  0.
         24    2    3    3    0    0  0.31550574653E+02 -0.45704898108E+02  0.51658513715E+03  0.52525426747E+03  0.77119810009E+02 0.  0.
         -6    2    1    2    0  502 -0.55921474469E+02 -0.42011069393E+02  0.67415569420E+03  0.69933921245E+03  0.17232902480E+03 0.  0.
        -24    2    5    5    0    0  0.31191118812E+01 -0.72744338214E+02  0.27777738327E+03  0.29738376712E+03  0.77300470197E+02 0.  0.
          5    1    3    3  501    0  0.24370899816E+02  0.87715967501E+02  0.47219329677E+03  0.48091229058E+03  0.47000000000E+01 0. -1.
        -11    1    4    4    0    0  0.44197656057E+02 -0.40370150738E+02  0.21007442878E+03  0.21843636945E+03  0.00000000000E+00 0.  1.
         12    1    4    4    0    0 -0.12647081404E+02 -0.53347473696E+01  0.30651070837E+03  0.30681789801E+03  0.00000000000E+00 0. -1.
         -5    1    5    5    0  502 -0.59040586350E+02  0.30733268821E+02  0.39637831093E+03  0.40195544532E+03  0.47000000000E+01 0.  1.
         13    1    6    6    0    0  0.26716511801E+02 -0.82198341027E+01  0.14724398945E+03  0.14987371386E+03  0.00000000000E+00 0. -1.
        -14    1    6    6    0    0 -0.23597399920E+02 -0.64524504112E+02  0.13053339382E+03  0.14751005327E+03  0.00000000000E+00 0.  1.
</event>
<event>
12    1  0.8226261E-002  0.1857741E+03  0.7818608E-02  0.1162960E+00
         21   -1    0    0  503  502  0.00000000000E+00  0.00000000000E+00  0.46441035290E+02  0.46441035290E+02  0.00000000000E+00 0. -1.
         21   -1    0    0  501  503 -0.00000000000E+00 -0.00000000000E+00 -0.81206421675E+03  0.81206421675E+03  0.00000000000E+00 0. -1.
          6    2    1    2  501    0  0.36445492278E+02  0.59887508790E+02 -0.51473608677E+03  0.54632524119E+03  0.16912493170E+03 0.  0.
         24    2    3    3    0    0 -0.23620223936E+02 -0.42238459546E+01 -0.16365008548E+03  0.18438377303E+03  0.81487848333E+02 0.  0.
         -6    2    1    2    0  502 -0.36445492278E+02 -0.59887508790E+02 -0.25088709469E+03  0.31218001085E+03  0.17203847615E+03 0.  0.
        -24    2    5    5    0    0  0.75674569363E+00  0.18549048266E+01 -0.40366105303E+02  0.89610226015E+02  0.79978477187E+02 0.  0.
          5    1    3    3  501    0  0.60065716214E+02  0.64111354745E+02 -0.35108600129E+03  0.36194146816E+03  0.47000000000E+01 0. -1.
        -13    1    4    4    0    0  0.28530674716E+02 -0.58345699880E+01 -0.34840549086E+02  0.45408209250E+02  0.00000000000E+00 0.  1.
         14    1    4    4    0    0 -0.52150898651E+02  0.16107240334E+01 -0.12880953640E+03  0.13897556378E+03  0.00000000000E+00 0. -1.
         -5    1    5    5    0  502 -0.37202237972E+02 -0.61742413617E+02 -0.21052098939E+03  0.22256978484E+03  0.47000000000E+01 0.  1.
         11    1    6    6    0    0  0.12968046378E+02 -0.35309073268E+02 -0.32495105918E+02  0.49707472180E+02  0.00000000000E+00 0. -1.
        -12    1    6    6    0    0 -0.12211300685E+02  0.37163978095E+02 -0.78709993852E+01  0.39902753835E+02  0.00000000000E+00 0.  1.
</event>
<event>
12    1  0.8226261E-002  0.1865213E+03  0.7818608E-02  0.1161653E+00
         21   -1    0    0  501  502  0.00000000000E+00  0.00000000000E+00  0.19172122375E+04  0.19172122375E+04  0.00000000000E+00 0.  1.
         21   -1    0    0  502  503 -0.00000000000E+00 -0.00000000000E+00 -0.37200608032E+02  0.37200608032E+02  0.00000000000E+00 0.  1.
         -6    2    1    2    0  503 -0.58426884970E+02  0.39345988707E+02  0.24059474760E+03  0.30442738330E+03  0.17270897897E+03 0.  0.
        -24    2    3    3    0    0 -0.91051586533E+02  0.51959451537E+02  0.11839814480E+03  0.17723630526E+03  0.80027565232E+02 0.  0.
          6    2    1    2  501    0  0.58426884970E+02 -0.39345988707E+02  0.16394168818E+04  0.16499854622E+04  0.17263402129E+03 0.  0.
         24    2    5    5    0    0 -0.17266354900E+02 -0.34365432342E+02  0.12555759498E+04  0.12586924471E+04  0.79728294213E+02 0.  0.
          5    1    5    5  501    0  0.75693239871E+02 -0.49805563650E+01  0.38384093206E+03  0.39129301505E+03  0.47000000000E+01 0. -1.
        -11    1    6    6    0    0 -0.16686036046E+01 -0.42230147725E+02  0.30057105546E+03  0.30352780597E+03  0.00000000000E+00 0.  1.
         12    1    6    6    0    0 -0.15597751296E+02  0.78647153828E+01  0.95500489430E+03  0.95516464116E+03  0.00000000000E+00 0. -1.
         -5    1    3    3    0  503  0.32624701562E+02 -0.12613462830E+02  0.12219660280E+03  0.12719107804E+03  0.47000000000E+01 0.  1.
         13    1    4    4    0    0 -0.35543233147E+02 -0.94287044300E+01  0.75585347581E+02  0.84055735430E+02  0.00000000000E+00 0. -1.
        -14    1    4    4    0    0 -0.55508353385E+02  0.61388155967E+02  0.42812797219E+02  0.93180569833E+02  0.00000000000E+00 0.  1.
</event>
<event>
12    1  0.8226261E-002  0.1755717E+03  0.7818608E-02  0.1172400E+00
         21   -1    0    0  501  502  0.00000000000E+00  0.00000000000E+00  0.75648318029E+02  0.75648318029E+02  0.00000000000E+00 0. -1.
         21   -1    0    0  502  503 -0.00000000000E+00 -0.00000000000E+00 -0.12381967896E+04  0.12381967896E+04  0.00000000000E+00 0. -1.
         -6    2    1    2    0  503  0.12496018684E+02 -0.33403247480E+02 -0.11205942466E+04  0.11342649182E+04  0.17191134839E+03 0.  0.
        -24    2    3    3    0    0  0.14673902427E+02 -0.31399443907E+02 -0.11242467364E+04  0.11276174309E+04  0.79931831961E+02 0.  0.
          6    2    1    2  501    0 -0.12496018684E+02  0.33403247480E+02 -0.41954224936E+02  0.17958018940E+03  0.17092969318E+03 0.  0.
         24    2    5    5    0    0  0.44148142006E+02 -0.32065881369E+02 -0.51095167924E+02  0.92399832605E+02  0.54311450815E+02 0.  0.
          5    1    5    5  501    0 -0.56644160690E+02  0.65469128849E+02  0.91409429885E+01  0.87180356797E+02  0.47000000000E+01 0. -1.
        -11    1    6    6    0    0  0.40982454938E+02 -0.13937086333E+02 -0.58319955333E+02  0.72629341029E+02  0.00000000000E+00 0.  1.
         12    1    6    6    0    0  0.31656870681E+01 -0.18128795035E+02  0.72247874089E+01  0.19770491576E+02  0.00000000000E+00 0. -1.
         -5    1    3    3    0  503 -0.21778837431E+01 -0.20038035729E+01  0.36524897369E+01  0.66474873174E+01  0.47000000000E+01 0.  1.
         11    1    4    4    0    0 -0.27922497950E+02  0.21034340103E+01 -0.22440824604E+03  0.22614851585E+03  0.00000000000E+00 0. -1.
        -12    1    4    4    0    0  0.42596400378E+02 -0.33502877917E+02 -0.89983849034E+03  0.90146891508E+03  0.00000000000E+00 0.  1.
</event>
<event>
12    1  0.8226261E-002  0.1971153E+03  0.7818608E-02  0.1152750E+00
         21   -1    0    0  503  502  0.00000000000E+00  0.00000000000E+00  0.36185037207E+03  0.36185037207E+03  0.00000000000E+00 0.  1.
         21   -1    0    0  501  503 -0.00000000000E+00 -0.00000000000E+00 -0.37426796553E+03  0.37426796553E+03  0.00000000000E+00 0.  1.
          6    2    1    2  501    0 -0.73278393255E+02  0.55920767572E+02 -0.31781280229E+03  0.37263425818E+03  0.17133142708E+03 0.  0.
         24    2    3    3    0    0 -0.69832676320E+02  0.71846957379E+02 -0.12333534677E+03  0.17741876906E+03  0.78912761231E+02 0.  0.
         -6    2    1    2    0  502  0.73278393255E+02 -0.55920767572E+02  0.30539520883E+03  0.36348407942E+03  0.17423428839E+03 0.  0.
        -24    2    5    5    0    0  0.71400067430E+02  0.30143477943E+02  0.17629598841E+03  0.20824464765E+03  0.79239881706E+02 0.  0.
          5    1    3    3  501    0 -0.34457169353E+01 -0.15926189807E+02 -0.19447745552E+03  0.19521548913E+03  0.47000000000E+01 0. -1.
        -11    1    4    4    0    0 -0.55951792322E+02  0.33793665173E+01 -0.41051481045E+02  0.69478394326E+02  0.00000000000E+00 0.  1.
         12    1    4    4    0    0 -0.13880883998E+02  0.68467590862E+02 -0.82283865724E+02  0.10794037473E+03  0.00000000000E+00 0. -1.
         -5    1    5    5    0  502  0.18783258246E+01 -0.86064245515E+02  0.12909922042E+03  0.15523943177E+03  0.47000000000E+01 0.  1.
         11    1    6    6    0    0 -0.59459839712E+01  0.45876555630E+00  0.84033338939E+02  0.84244686743E+02  0.00000000000E+00 0. -1.
        -12    1    6    6    0    0  0.77346051402E+02  0.29684712387E+02  0.92262649473E+02  0.12399996091E+03  0.00000000000E+00 0.  1.
</event>
<event>
12    1  0.8226261E-002  0.1799965E+03  0.7818608E-02  0.1168345E+00
         21   -1    0    0  501  502  0.00000000000E+00  0.00000000000E+00  0.82274219230E+02  0.82274219230E+02  0.00000000000E+00 0.  1.
         21   -1    0    0  502  503 -0.00000000000E+00 -0.00000000000E+00 -0.51682272595E+03  0.51682272595E+03  0.00000000000E+00 0.  1.
         -6    2    1    2    0  503  0.19426391091E+02 -0.46345816376E+02 -0.36525044120E+03  0.40622140537E+03  0.17053628943E+03 0.  0.
        -24    2    3    3    0    0  0.56013529762E+02 -0.73733045418E+02 -0.31341512744E+03  0.33695619922E+03  0.82075334769E+02 0.  0.
          6    2    1    2  501    0 -0.19426391091E+02  0.46345816376E+02 -0.69298065515E+02  0.19287553981E+03  0.17283932598E+03 0.  0.
         24    2    5    5    0    0 -0.34422413417E+02  0.79746027210E+02 -0.64613638317E+01  0.11999896025E+03  0.82544956467E+02 0.  0.
          5    1    5    5  501    0  0.14996022325E+02 -0.33400210834E+02 -0.62836701683E+02  0.72876579555E+02  0.47000000000E+01 0. -1.
        -11    1    6    6    0    0 -0.21998303946E+02 -0.13452723222E+02 -0.58562519870E+00  0.25792326291E+02  0.00000000000E+00 0.  1.
         12    1    6    6    0    0 -0.12424109470E+02  0.93198750432E+02 -0.58757386330E+01  0.94206633963E+02  0.00000000000E+00 0. -1.
         -5    1    3    3    0  503 -0.36587138670E+02  0.27387229042E+02 -0.51835313759E+02  0.69265206151E+02  0.47000000000E+01 0.  1.
         11    1    4    4    0    0  0.61960703978E+00 -0.10229683420E+02  0.20314620434E+01  0.10447831057E+02  0.00000000000E+00 0. -1.
        -12    1    4    4    0    0  0.55393922722E+02 -0.63503361997E+02 -0.31544658949E+03  0.32650836816E+03  0.00000000000E+00 0.  1.
</event>
<event>
12    1  0.8226261E-002  0.1849275E+03  0.7818608E-02  0.1164638E+00
         21   -1    0    0  503  502  0.00000000000E+00  0.00000000000E+00  0.44669189665E+03  0.44669189665E+03  0.00000000000E+00 0.  1.
         21   -1    0    0  501  503 -0.00000000000E+00 -0.00000000000E+00 -0.76846995669E+02  0.76846995669E+02  0.00000000000E+00 0.  1.
          6    2    1    2  501    0  0.44926947063E+02  0.30944608841E+02  0.13086853464E+03  0.22136697771E+03  0.17000225314E+03 0.  0.
         24    2    3    3    0    0  0.58519892611E+02  0.69616274728E+02  0.47968322623E+02  0.12876675599E+03  0.77517184762E+02 0.  0.
         -6    2    1    2    0  502 -0.44926947063E+02 -0.30944608841E+02  0.23897636634E+03  0.30217191461E+03  0.17669794260E+03 0.  0.
        -24    2    5    5    0    0  0.43593321902E+02 -0.22562014474E+02  0.10266455197E+03  0.13935574022E+03  0.80439976932E+02 0.  0.
          5    1    3    3  501    0 -0.13592945548E+02 -0.38671665887E+02  0.82900212015E+02  0.92600221723E+02  0.47000000000E+01 0. -1.
        -13    1    4    4    0    0  0.15537909881E+02  0.73454392053E+02  0.39330742082E+02  0.84757782109E+02  0.00000000000E+00 0.  1.
         14    1    4    4    0    0  0.42981982730E+02 -0.38381173248E+01  0.86375805404E+01  0.44008973876E+02  0.00000000000E+00 0. -1.
         -5    1    5    5    0  502 -0.88520268965E+02 -0.83825943677E+01  0.13631181437E+03  0.16281617439E+03  0.47000000000E+01 0.  1.
         11    1    6    6    0    0  0.34961084503E+02  0.26825322791E+02  0.46242635637E+02  0.63876887237E+02  0.00000000000E+00 0. -1.
        -12    1    6    6    0    0  0.86322373990E+01 -0.49387337264E+02  0.56421916333E+02  0.75478852981E+02  0.00000000000E+00 0.  1.
</event>
<event>
12    1  0.8226261E-002  0.1871066E+03  0.7818608E-02  0.1161308E+00
         21   -1    0    0  503  502  0.00000000000E+00  0.00000000000E+00  0.65437087554E+03  0.65437087554E+03  0.00000000000E+00 0.  1.
         21   -1    0    0  501  503 -0.00000000000E+00 -0.00000000000E+00 -0.17156008035E+03  0.17156008035E+03  0.00000000000E+00 0.  1.
          6    2    1    2  501    0 -0.62365748978E+02 -0.34974204392E+02 -0.10136522321E+03  0.21279990958E+03  0.17290520936E+03 0.  0.
         24    2    3    3    0    0  0.13946844044E+02 -0.51337225658E+02 -0.19921188017E+02  0.99899151447E+02  0.82176404951E+02 0.  0.
         -6    2    1    2    0  502  0.62365748978E+02  0.34974204392E+02  0.58417601840E+03  0.61313104631E+03  0.17191677595E+03 0.  0.
        -24    2    5    5    0    0  0.90394413864E+02  0.53485946654E+02  0.31272945874E+03  0.33957371154E+03  0.80490338885E+02 0.  0.
          5    1    3    3  501    0 -0.76312593022E+02  0.16363021266E+02 -0.81444035190E+02  0.11290075813E+03  0.47000000000E+01 0. -1.
        -13    1    4    4    0    0  0.35155664308E+02 -0.16293504066E+02 -0.38765745166E+02  0.54810418772E+02  0.00000000000E+00 0.  1.
         14    1    4    4    0    0 -0.21208820265E+02 -0.35043721592E+02  0.18844557150E+02  0.45088732674E+02  0.00000000000E+00 0. -1.
         -5    1    5    5    0  502 -0.28028664886E+02 -0.18511742262E+02  0.27144655966E+03  0.27355733477E+03  0.47000000000E+01 0.  1.
         11    1    6    6    0    0  0.25363433104E+02 -0.18159031129E+02  0.43839045979E+02  0.53804424565E+02  0.00000000000E+00 0. -1.
        -12    1    6    6    0    0  0.65030980761E+02  0.71644977783E+02  0.26889041276E+03  0.28576928697E+03  0.00000000000E+00 0.  1.
</event>
<event>
12    1  0.8226261E-002  0.1864521E+03  0.7818608E-02  0.1162813E+00
         21   -1    0    0  501  502  0.00000000000E+00  0.00000000000E+00  0.17621041833E+03  0.17621041833E+03  0.00000000000E+00 0.  1.
         21   -1    0    0  502  503 -0.00000000000E+00 -0.00000000000E+00 -0.61782329476E+03  0.61782329476E+03  0.00000000000E+00 0. -1.
         -6    2    1    2    0  503 -0.38425334740E+02 -0.59662379971E+02 -0.55117281054E+03  0.58185554160E+03  0.17241896149E+03 0.  0.
        -24    2    3    3    0    0 -0.50574765218E+02 -0.86714457549E+02 -0.52854732415E+03  0.54425998074E+03  0.82337407911E+02 0.  0.
          6    2    1    2  501    0  0.38425334740E+02  0.59662379971E+02  0.10955993411E+03  0.21217817149E+03  0.16727250629E+03 0.  0.
         24    2    5    5    0    0  0.65539686793E+02 -0.87725168684E+01  0.38159632823E+02  0.10952040891E+03  0.78524867364E+02 0.  0.
          5    1    5    5  501    0 -0.27114352053E+02  0.68434896840E+02  0.71400301284E+02  0.10265776257E+03  0.47000000000E+01 0. -1.
        -13    1    6    6    0    0  0.63022975975E+02  0.25250211056E+02  0.31122340374E+02  0.74686469520E+02  0.00000000000E+00 0.  1.
         14    1    6    6    0    0  0.25167108189E+01 -0.34022727924E+02  0.70372924490E+01  0.34833939395E+02  0.00000000000E+00 0. -1.
         -5    1    3    3    0  503  0.12149430477E+02  0.27052077577E+02 -0.22625486383E+02  0.37595560858E+02  0.47000000000E+01 0.  1.
         11    1    4    4    0    0 -0.69094671880E+02 -0.83330461094E+02 -0.40198867160E+03  0.41630869739E+03  0.00000000000E+00 0. -1.
        -12    1    4    4    0    0  0.18519906662E+02 -0.33839964543E+01 -0.12655865256E+03  0.12795128335E+03  0.00000000000E+00 0.  1.
</event>
<event>
12    1  0.8226261E-002  0.1750976E+03  0.7818608E-02  0.1172982E+00
         21   -1    0    0  501  502  0.00000000000E+00  0.00000000000E+00  0.18883026477E+04  0.18883026477E+04  0.00000000000E+00 0.  1.
         21   -1    0    0  502  503 -0.00000000000E+00 -0.00000000000E+00 -0.50382529359E+02  0.50382529359E+02  0.00000000000E+00 0.  1.
         -6    2    1    2    0  503  0.29721885018E+02 -0.18259225529E+02  0.11829169185E+03  0.21016526678E+03  0.17017557180E+03 0.  0.
        -24    2    3    3    0    0  0.56077839181E+02 -0.34845708085E+01  0.14163971442E+03  0.17169258947E+03  0.79118078198E+02 0.  0.
          6    2    1    2  501    0 -0.29721885018E+02  0.18259225529E+02  0.17196284265E+04  0.17285199102E+04  0.17158777711E+03 0.  0.
         24    2    5    5    0    0 -0.83978977907E+02  0.25690560078E+02  0.12778261461E+04  0.12833116423E+04  0.79603003386E+02 0.  0.
          5    1    5    5  501    0  0.54257092889E+02 -0.74313345491E+01  0.44180228038E+03  0.44520826791E+03  0.47000000000E+01 0. -1.
        -11    1    6    6    0    0 -0.66397116111E+02  0.59355508097E+01  0.43567895835E+03  0.44074931939E+03  0.00000000000E+00 0.  1.
         12    1    6    6    0    0 -0.17581861796E+02  0.19755009268E+02  0.84214718773E+03  0.84256232295E+03  0.00000000000E+00 0. -1.
         -5    1    3    3    0  503 -0.26355954163E+02 -0.14774654720E+02 -0.23348022568E+02  0.38472677314E+02  0.47000000000E+01 0.  1.
         13    1    4    4    0    0 -0.14888776089E+02 -0.14413989183E+02  0.13274976938E+02  0.24610236698E+02  0.00000000000E+00 0. -1.
        -14    1    4    4    0    0  0.70966615270E+02  0.10929418375E+02  0.12836473748E+03  0.14708235277E+03  0.00000000000E+00 0.  1.
</event>
<event>
12    1  0.8226261E-002  0.2115745E+03  0.7818608E-02  0.1143225E+00
         21   -1    0    0  501  502  0.00000000000E+00  0.00000000000E+00  0.27906866156E+03  0.27906866156E+03  0.00000000000E+00 0. -1.
         21   -1    0    0  502  503 -0.00000000000E+00 -0.00000000000E+00 -0.52583244239E+03  0.52583244239E+03  0.00000000000E+00 0.  1.
         -6    2    1    2    0  503  0.94114304610E+02 -0.85110404284E+02 -0.46243729858E+03  0.50277726158E+03  0.15111398478E+03 0.  0.
        -24    2    3    3    0    0  0.63603528173E+02 -0.11132133887E+03 -0.30874533402E+03  0.34383944185E+03  0.80399199046E+02 0.  0.
          6    2    1    2  501    0 -0.94114304610E+02  0.85110404284E+02  0.21567351775E+03  0.30212384236E+03  0.16929993093E+03 0.  0.
         24    2    5    5    0    0 -0.10846296198E+03  0.11058401892E+03  0.15111071204E+03  0.23109402544E+03  0.81098470626E+02 0.  0.
          5    1    5    5  501    0  0.14348657368E+02 -0.25473614636E+02  0.64562805712E+02  0.71029816924E+02  0.47000000000E+01 0. -1.
        -13    1    6    6    0    0 -0.99848622487E+01 -0.76401699546E+01 -0.34141702474E+01  0.13027901962E+02  0.00000000000E+00 0.  1.
         14    1    6    6    0    0 -0.98478099730E+02  0.11822418887E+03  0.15452488229E+03  0.21806612347E+03  0.00000000000E+00 0. -1.
         -5    1    3    3    0  503  0.30510776437E+02  0.26210934590E+02 -0.15369196456E+03  0.15893781973E+03  0.47000000000E+01 0.  1.
         11    1    4    4    0    0  0.78981226948E+01 -0.22032250750E+02 -0.15957002746E+03  0.16127738242E+03  0.00000000000E+00 0. -1.
        -12    1    4    4    0    0  0.55705405478E+02 -0.89289088123E+02 -0.14917530656E+03  0.18256205944E+03  0.00000000000E+00 0.  1.
</event>
<event>
12    1  0.8226261E-002  0.2980154E+03  0.7818608E-02  0.1086261E+00
         21   -1    0    0  501  502  0.00000000000E+00  0.00000000000E+00  0.11094944282E+03  0.11094944282E+03  0.00000000000E+00 0.  1.
         21   -1    0    0  502  503 -0.00000000000E+00 -0.00000000000E+00 -0.11428524938E+04  0.11428524938E+04  0.00000000000E+00 0.  1.
         -6    2    1    2    0  503  0.18906272503E+03 -0.15298132956E+03 -0.85921553614E+03  0.90936883919E+03  0.17190796068E+03 0.  0.
        -24    2    3    3    0    0  0.59194104495E+02 -0.43313877655E+01 -0.29129098115E+03  0.30810096713E+03  0.80951018054E+02 0.  0.
          6    2    1    2  501    0 -0.18906272503E+03  0.15298132956E+03 -0.17268751485E+03  0.34443309746E+03  0.17223582568E+03 0.  0.
         24    2    5    5    0    0 -0.49538924363E+02  0.96751461867E+02 -0.13183805612E+03  0.18848612810E+03  0.79566305954E+02 0.  0.
          5    1    5    5  501    0 -0.13952380067E+03  0.56229867696E+02 -0.40849458735E+02  0.15594696936E+03  0.47000000000E+01 0. -1.
        -13    1    6    6    0    0 -0.55941492098E+02  0.25229548031E+02 -0.74992227950E+02  0.96901057191E+02  0.00000000000E+00 0.  1.
         14    1    6    6    0    0  0.64025677349E+01  0.71521913837E+02 -0.56845828169E+02  0.91585070905E+02  0.00000000000E+00 0. -1.
         -5    1    3    3    0  503  0.12986862054E+03 -0.14864994180E+03 -0.56792455500E+03  0.60126787205E+03  0.47000000000E+01 0.  1.
         11    1    4    4    0    0  0.30144653551E+02 -0.37706289128E+02 -0.91334922249E+02  0.10330794935E+03  0.00000000000E+00 0. -1.
        -12    1    4    4    0    0  0.29049450945E+02  0.33374901363E+02 -0.19995605890E+03  0.20479301778E+03  0.00000000000E+00 0.  1.
</event>
<event>
12    1  0.8226261E-002  0.2009267E+03  0.7818608E-02  0.1150477E+00
         21   -1    0    0  503  502  0.00000000000E+00  0.00000000000E+00  0.13335376109E+03  0.13335376109E+03  0.00000000000E+00 0. -1.
         21   -1    0    0  501  503 -0.00000000000E+00 -0.00000000000E+00 -0.29699920097E+03  0.29699920097E+03  0.00000000000E+00 0. -1.
          6    2    1    2  501    0 -0.79108561951E+02  0.45906499417E+02 -0.11079062045E+03  0.22944734082E+03  0.17890206642E+03 0.  0.
         24    2    3    3    0    0 -0.83094079836E+02 -0.33887741860E+02 -0.74284460309E+02  0.14148260345E+03  0.80287862608E+02 0.  0.
         -6    2    1    2    0  502  0.79108561951E+02 -0.45906499417E+02 -0.52854819431E+02  0.20090562123E+03  0.17089138493E+03 0.  0.
        -24    2    5    5    0    0  0.15528662252E+02 -0.69847670699E+02 -0.71664087584E+02  0.13025534242E+03  0.81919938514E+02 0.  0.
          5    1    3    3  501    0  0.39855178857E+01  0.79794241277E+02 -0.36506160139E+02  0.87964737377E+02  0.47000000000E+01 0. -1.
        -11    1    4    4    0    0 -0.56374575843E+02  0.20339979422E+02 -0.35466734451E+02  0.69639764625E+02  0.00000000000E+00 0.  1.
         12    1    4    4    0    0 -0.26719503993E+02 -0.54227721281E+02 -0.38817725858E+02  0.71842838821E+02  0.00000000000E+00 0. -1.
         -5    1    5    5    0  502  0.63579899698E+02  0.23941171281E+02  0.18809268153E+02  0.70650278814E+02  0.47000000000E+01 0.  1.
         11    1    6    6    0    0  0.39248070518E+02 -0.29358310792E+02 -0.67119320619E+02  0.83110316160E+02  0.00000000000E+00 0. -1.
        -12    1    6    6    0    0 -0.23719408266E+02 -0.40489359907E+02 -0.45447669649E+01  0.47145026259E+02  0.00000000000E+00 0.  1.
</event>
<event>
12    1  0.8226261E-002  0.2177922E+03  0.7818608E-02  0.1135889E+00
         21   -1    0    0  501  502  0.00000000000E+00  0.00000000000E+00  0.97614815840E+02  0.97614815840E+02  0.00000000000E+00 0.  1.
         21   -1    0    0  502  503 -0.00000000000E+00 -0.00000000000E+00 -0.15227614513E+04  0.15227614513E+04  0.00000000000E+00 0. -1.
         -6    2    1    2    0  503  0.52563954328E+02 -0.11983892189E+03 -0.13833820986E+04  0.14004211780E+04  0.17409511351E+03 0.  0.
        -24    2    3    3    0    0  0.80238790952E+02 -0.12915801858E+03 -0.13120672488E+04  0.13232159971E+04  0.79120493109E+02 0.  0.
          6    2    1    2  501    0 -0.52563954328E+02  0.11983892189E+03 -0.41764536859E+02  0.21995508915E+03  0.17178948806E+03 0.  0.
         24    2    5    5    0    0 -0.84844720301E+02  0.10615447585E+03  0.13561883039E+02  0.15428611128E+03  0.71783564666E+02 0.  0.
          5    1    5    5  501    0  0.32280765973E+02  0.13684446041E+02 -0.55326419898E+02  0.65668977866E+02  0.47000000000E+01 0. -1.
        -11    1    6    6    0    0 -0.15252466241E+02  0.75349889486E+02  0.14198318737E+02  0.78178231158E+02  0.00000000000E+00 0.  1.
         12    1    6    6    0    0 -0.69592254060E+02  0.30804586364E+02 -0.63643569810E+00  0.76107880122E+02  0.00000000000E+00 0. -1.
         -5    1    3    3    0  503 -0.27674836624E+02  0.93190966898E+01 -0.71314849788E+02  0.77205180821E+02  0.47000000000E+01 0.  1.
         13    1    4    4    0    0  0.37960096426E+02 -0.60463110835E+02 -0.92949325729E+03  0.93223091133E+03  0.00000000000E+00 0. -1.
        -14    1    4    4    0    0  0.42278694527E+02 -0.68694907746E+02 -0.38257399148E+03  0.39098508580E+03  0.00000000000E+00 0.  1.
</event>
<event>
12    1  0.8226261E-002  0.1828459E+03  0.7818608E-02  0.1165119E+00
         21   -1    0    0  501  502  0.00000000000E+00  0.00000000000E+00  0.25949705803E+02  0.25949705803E+02  0.00000000000E+00 0. -1.
         21   -1    0    0  502  503 -0.00000000000E+00 -0.00000000000E+00 -0.12915218169E+04  0.12915218169E+04  0.00000000000E+00 0. -1.
         -6    2    1    2    0  503  0.57626937356E+02  0.19083317738E+02 -0.67095390870E+03  0.69537553800E+03  0.17228741778E+03 0.  0.
        -24    2    3    3    0    0  0.17746254938E+02  0.53453205646E+02 -0.59452531808E+03  0.60244988229E+03  0.79456479130E+02 0.  0.
          6    2    1    2  501    0 -0.57626937356E+02 -0.19083317738E+02 -0.59461820238E+03  0.62209598468E+03  0.17247484058E+03 0.  0.
         24    2    5    5    0    0 -0.62787902157E+02  0.81575678429E+01 -0.17146532399E+03  0.19800973179E+03  0.76148735918E+02 0.  0.
          5    1    5    5  501    0  0.51609648010E+01 -0.27240885580E+02 -0.42315287839E+03  0.42408625290E+03  0.47000000000E+01 0. -1.
        -13    1    6    6    0    0  0.17150954165E+02 -0.30242584247E+01 -0.21188333409E+02  0.27427118704E+02  0.00000000000E+00 0.  1.
         14    1    6    6    0    0 -0.79938856322E+02  0.11181826268E+02 -0.15027699058E+03  0.17058261308E+03  0.00000000000E+00 0. -1.
         -5    1    3    3    0  503  0.39880682417E+02 -0.34369887909E+02 -0.76428590617E+02  0.92925655707E+02  0.47000000000E+01 0.  1.
         13    1    4    4    0    0  0.10731853904E+02 -0.11365743054E+02 -0.27052448608E+02  0.31244003890E+02  0.00000000000E+00 0. -1.
        -14    1    4    4    0    0  0.70144010340E+01  0.64818948700E+02 -0.56747286947E+03  0.57120587840E+03  0.00000000000E+00 0.  1.
</event>
<event>
12    1  0.8226261E-002  0.1936330E+03  0.7818608E-02  0.1155381E+00
         21   -1    0    0  503  502  0.00000000000E+00  0.00000000000E+00  0.14647266274E+03  0.14647266274E+03  0.00000000000E+00 0.  1.
         21   -1    0    0  501  503 -0.00000000000E+00 -0.00000000000E+00 -0.40083150606E+03  0.40083150606E+03  0.00000000000E+00 0.  1.
          6    2    1    2  501    0  0.58703672470E+02 -0.67277205373E+02 -0.29206869222E+03  0.35003335540E+03  0.17101720789E+03 0.  0.
         24    2    3    3    0    0 -0.25731064541E+02  0.10628832430E+01 -0.14274622384E+03  0.16532038323E+03  0.79316626798E+02 0.  0.
         -6    2    1    2    0  502 -0.58703672470E+02  0.67277205373E+02  0.37709848892E+02  0.19727081341E+03  0.17181791989E+03 0.  0.
        -24    2    5    5    0    0 -0.77628487681E+02 -0.13429012704E+02  0.24812999650E+02  0.11324664434E+03  0.77476428804E+02 0.  0.
          5    1    3    3  501    0  0.84434737011E+02 -0.68340088616E+02 -0.14932246838E+03  0.18471297217E+03  0.47000000000E+01 0. -1.
        -13    1    4    4    0    0  0.79522035806E+01 -0.33774038967E+02 -0.65773730316E+02  0.74364688190E+02  0.00000000000E+00 0.  1.
         14    1    4    4    0    0 -0.33683268121E+02  0.34836922210E+02 -0.76972493524E+02  0.90955695037E+02  0.00000000000E+00 0. -1.
         -5    1    5    5    0  502  0.18924815211E+02  0.80706218077E+02  0.12896849242E+02  0.84024169067E+02  0.47000000000E+01 0.  1.
         11    1    6    6    0    0 -0.50228794126E+02  0.29602840092E+02  0.21441432408E+02  0.62120809110E+02  0.00000000000E+00 0. -1.
        -12    1    6    6    0    0 -0.27399693556E+02 -0.43031852796E+02  0.33715672424E+01  0.51125835227E+02  0.00000000000E+00 0.  1.
</event>
<event>
12    1  0.8226261E-002  0.3201448E+03  0.7818608E-02  0.1075740E+00
         21   -1    0    0  501  502  0.00000000000E+00  0.00000000000E+00  0.18808623365E+03  0.18808623365E+03  0.00000000000E+00 0.  1.
         21   -1    0    0  502  503 -0.00000000000E+00 -0.00000000000E+00 -0.54285346390E+03  0.54285346390E+03  0.00000000000E+00 0. -1.
         -6    2    1    2    0  503 -0.24498100449E+03 -0.11060542293E+03 -0.16991015579E+03  0.36243917943E+03  0.17390642772E+03 0.  0.
        -24    2    3    3    0    0 -0.17783936900E+03 -0.12118784249E+03 -0.67412520044E+02  0.23936260914E+03  0.80228900422E+02 0.  0.
          6    2    1    2  501    0  0.24498100449E+03  0.11060542293E+03 -0.18485707446E+03  0.36850051812E+03  0.17138040067E+03 0.  0.
         24    2    5    5    0    0  0.10867473061E+03  0.10378720369E+03 -0.52159733673E+02  0.17808895685E+03  0.80081570985E+02 0.  0.
          5    1    5    5  501    0  0.13630627388E+03  0.68182192410E+01 -0.13269734079E+03  0.19041156127E+03  0.47000000000E+01 0. -1.
        -13    1    6    6    0    0 -0.89045484050E+01 -0.44227529752E+01 -0.65742309958E+01  0.11919405999E+02  0.00000000000E+00 0.  1.
         14    1    6    6    0    0  0.11757927901E+03  0.10820995667E+03 -0.45585502677E+02  0.16616955085E+03  0.00000000000E+00 0. -1.
         -5    1    3    3    0  503 -0.67141635486E+02  0.10582419558E+02 -0.10249763574E+03  0.12307657028E+03  0.47000000000E+01 0.  1.
         11    1    4    4    0    0 -0.44841886451E+02  0.64380719535E+01 -0.15178138216E+02  0.47776766641E+02  0.00000000000E+00 0. -1.
        -12    1    4    4    0    0 -0.13299748255E+03 -0.12762591444E+03 -0.52234381827E+02  0.19158584250E+03  0.00000000000E+00 0.  1.
</event>
<event>
12    1  0.8226261E-002  0.2214841E+03  0.7818608E-02  0.1132844E+00
         21   -1    0    0  503  502  0.00000000000E+00  0.00000000000E+00  0.52159078434E+03  0.52159078434E+03  0.00000000000E+00 0. -1.
         21   -1    0    0  501  503 -0.00000000000E+00 -0.00000000000E+00 -0.94309727919E+02  0.94309727919E+02  0.00000000000E+00 0.  1.
          6    2    1    2  501    0 -0.12464460433E+03  0.60020257415E+02  0.19334246639E+03  0.29374762098E+03  0.17253303113E+03 0.  0.
         24    2    3    3    0    0 -0.12447067042E+03  0.86055168668E+02  0.20282426809E+03  0.26564350348E+03  0.80810564695E+02 0.  0.
         -6    2    1    2    0  502  0.12464460433E+03 -0.60020257415E+02  0.23393859003E+03  0.32215289128E+03  0.17296390596E+03 0.  0.
        -24    2    5    5    0    0  0.63109555605E+02 -0.49841164505E+02  0.23371301759E+03  0.25960437381E+03  0.79408429178E+02 0.  0.
          5    1    3    3  501    0 -0.17393391244E+00 -0.26034911253E+02 -0.94818016981E+01  0.28104117499E+02  0.47000000000E+01 0. -1.
        -11    1    4    4    0    0 -0.10344334921E+03  0.43135024182E+02  0.92169381566E+02  0.14510806906E+03  0.00000000000E+00 0.  1.
         12    1    4    4    0    0 -0.21027321206E+02  0.42920144486E+02  0.11065488652E+03  0.12053543442E+03  0.00000000000E+00 0. -1.
         -5    1    5    5    0  502  0.61535048728E+02 -0.10179092910E+02  0.22557244424E+00  0.62548517467E+02  0.47000000000E+01 0.  1.
         11    1    6    6    0    0  0.79647494887E+02 -0.46615362069E+02  0.16706800861E+03  0.19086234548E+03  0.00000000000E+00 0. -1.
        -12    1    6    6    0    0 -0.16537939283E+02 -0.32258024361E+01  0.66645008975E+02  0.68742028326E+02  0.00000000000E+00 0.  1.
</event>
<event>
12    1  0.8226261E-002  0.1848976E+03  0.7818608E-02  0.1163507E+00
         21   -1    0    0  503  502  0.00000000000E+00  0.00000000000E+00  0.43318408916E+03  0.43318408916E+03  0.00000000000E+00 0.  1.
         21   -1    0    0  501  503 -0.00000000000E+00 -0.00000000000E+00 -0.12252792028E+03  0.12252792028E+03  0.00000000000E+00 0.  1.
          6    2    1    2  501    0  0.29053536769E+02 -0.58021495571E+02 -0.12089213597E+02  0.18375543661E+03  0.17149142675E+03 0.  0.
         24    2    3    3    0    0  0.70939893011E+02 -0.70801575962E+02  0.20146643031E+02  0.12917487462E+03  0.78961569317E+02 0.  0.
         -6    2    1    2    0  502 -0.29053536769E+02  0.58021495571E+02  0.32274538248E+03  0.37195657284E+03  0.17313725253E+03 0.  0.
        -24    2    5    5    0    0  0.12357047502E+02  0.63995584399E+02  0.31278397287E+03  0.32869173829E+03  0.77177157799E+02 0.  0.
          5    1    3    3  501    0 -0.41886356242E+02  0.12780080392E+02 -0.32235856628E+02  0.54580561985E+02  0.47000000000E+01 0. -1.
        -11    1    4    4    0    0  0.42351456875E+02 -0.31968498724E+02 -0.28875901654E+02  0.60410665502E+02  0.00000000000E+00 0.  1.
         12    1    4    4    0    0  0.28588436135E+02 -0.38833077238E+02  0.49022544685E+02  0.68764209120E+02  0.00000000000E+00 0. -1.
         -5    1    5    5    0  502 -0.41410584271E+02 -0.59740888285E+01  0.99614096097E+01  0.43264834548E+02  0.47000000000E+01 0.  1.
         11    1    6    6    0    0  0.43464149972E+02  0.31442686468E+02  0.13433992701E+03  0.14465472980E+03  0.00000000000E+00 0. -1.
        -12    1    6    6    0    0 -0.31107102470E+02  0.32552897931E+02  0.17844404587E+03  0.18403700849E+03  0.00000000000E+00 0.  1.
</event>
<event>
12    1  0.8226261E-002  0.1963556E+03  0.7818608E-02  0.1153266E+00
         21   -1    0    0  501  502  0.00000000000E+00  0.00000000000E+00  0.40094638671E+03  0.40094638671E+03  0.00000000000E+00 0.  1.
         21   -1    0    0  502  503 -0.00000000000E+00 -0.00000000000E+00 -0.10987091129E+03  0.10987091129E+03  0.00000000000E+00 0. -1.
         -6    2    1    2    0  503 -0.50415572374E+02 -0.75318215419E+02  0.51678286823E+02  0.20119410093E+03  0.17202865287E+03 0.  0.
        -24    2    3    3    0    0  0.26496302435E+02 -0.49058350003E+01  0.47490918522E+02  0.96728968681E+02  0.79843501804E+02 0.  0.
          6    2    1    2  501    0  0.50415572374E+02  0.75318215419E+02  0.23939718860E+03  0.30962319706E+03  0.17418652858E+03 0.  0.
         24    2    5    5    0    0 -0.51647986423E+00 -0.15744670863E+02  0.55746357775E+02  0.98350290930E+02  0.79479317491E+02 0.  0.
          5    1    5    5  501    0  0.50932052238E+02  0.91062886282E+02  0.18365083082E+03  0.21127290613E+03  0.47000000000E+01 0. -1.
        -13    1    6    6    0    0  0.22543563020E+02  0.79256416138E+01  0.60421301285E+02  0.64975085053E+02  0.00000000000E+00 0.  1.
         14    1    6    6    0    0 -0.23060042884E+02 -0.23670312477E+02 -0.46749435101E+01  0.33375205878E+02  0.00000000000E+00 0. -1.
         -5    1    3    3    0  503 -0.76911874809E+02 -0.70412380418E+02  0.41873683016E+01  0.10446513225E+03  0.47000000000E+01 0.  1.
         13    1    4    4    0    0 -0.24962882627E+02 -0.13438268211E+02  0.31031479006E+02  0.42031955116E+02  0.00000000000E+00 0. -1.
        -14    1    4    4    0    0  0.51459185062E+02  0.85324332107E+01  0.16459439516E+02  0.54697013565E+02  0.00000000000E+00 0.  1.
</event>
<event>
12    1  0.8226261E-002  0.3294364E+03  0.7818608E-02  0.1071447E+00
         21   -1    0    0  501  502  0.00000000000E+00  0.00000000000E+00  0.10470133763E+04  0.10470133763E+04  0.00000000000E+00 0. -1.
         21   -1    0    0  502  503 -0.00000000000E+00 -0.00000000000E+00 -0.17288436132E+03  0.17288436132E+03  0.00000000000E+00 0.  1.
         -6    2    1    2    0  503  0.22613623322E+03  0.16685854991E+03  0.50397347303E+02  0.33273249319E+03  0.17085563426E+03 0.  0.
        -24    2    3    3    0    0  0.14863720303E+03  0.11038855538E+03  0.99717807097E+02  0.22479937633E+03  0.79451036874E+02 0.  0.
          6    2    1    2  501    0 -0.22613623322E+03 -0.16685854991E+03  0.82373166768E+03  0.88716524443E+03  0.17189804806E+03 0.  0.
         24    2    5    5    0    0 -0.14005811225E+03 -0.11733894043E+03  0.70308331735E+03  0.73083306901E+03  0.80038252607E+02 0.  0.
          5    1    5    5  501    0 -0.86078120965E+02 -0.49519609478E+02  0.12064835033E+03  0.15633217542E+03  0.47000000000E+01 0. -1.
        -13    1    6    6    0    0 -0.11354296391E+02 -0.28810958281E+02  0.46111749322E+02  0.55545339941E+02  0.00000000000E+00 0.  1.
         14    1    6    6    0    0 -0.12870381586E+03 -0.88527982151E+02  0.65697156803E+03  0.67528772907E+03  0.00000000000E+00 0. -1.
         -5    1    3    3    0  503  0.77499030184E+02  0.56469994531E+02 -0.49320459794E+02  0.10793311686E+03  0.47000000000E+01 0.  1.
         13    1    4    4    0    0  0.58210186766E+02  0.11754141855E+02  0.25698893271E+01  0.59440642874E+02  0.00000000000E+00 0. -1.
        -14    1    4    4    0    0  0.90427016266E+02  0.98634413523E+02  0.97147917770E+02  0.16535873345E+03  0.00000000000E+00 0.  1.
</event>
<event>
12    1  0.8226261E-002  0.2097631E+03  0.7818608E-02  0.1141921E+00
         21   -1    0    0  501  502  0.00000000000E+00  0.00000000000E+00  0.33825219341E+02  0.33825219341E+02  0.00000000000E+00 0.  1.
         21   -1    0    0  502  503 -0.00000000000E+00 -0.00000000000E+00 -0.13688890876E+04  0.13688890876E+04  0.00000000000E+00 0. -1.
         -6    2    1    2    0  503 -0.12144646942E+03 -0.64097098820E+01 -0.83108167328E+03  0.85714485343E+03  0.17090998448E+03 0.  0.
        -24    2    3    3    0    0 -0.31333383037E+02 -0.57182938440E+02 -0.42037611533E+03  0.43358914942E+03  0.83855845426E+02 0.  0.
          6    2    1    2  501    0  0.12144646942E+03  0.64097098820E+01 -0.50398219494E+03  0.54556945346E+03  0.16987538498E+03 0.  0.
         24    2    5    5    0    0  0.18225008687E+02  0.12217695515E+02 -0.35212768852E+03  0.36180252561E+03  0.80160685434E+02 0.  0.
          5    1    5    5  501    0  0.10322146073E+03 -0.58079856325E+01 -0.15185450641E+03  0.18376692785E+03  0.47000000000E+01 0. -1.
        -13    1    6    6    0    0 -0.30630468413E+02 -0.35654553770E+01 -0.10695432423E+03  0.11131112047E+03  0.00000000000E+00 0.  1.
         14    1    6    6    0    0  0.48855477100E+02  0.15783150892E+02 -0.24517336429E+03  0.25049140515E+03  0.00000000000E+00 0. -1.
         -5    1    3    3    0  503 -0.90113086385E+02  0.50773228558E+02 -0.41070555795E+03  0.42355570402E+03  0.47000000000E+01 0.  1.
         13    1    4    4    0    0 -0.30728226017E+02 -0.32611786299E+01 -0.30119626122E+03  0.30277722327E+03  0.00000000000E+00 0. -1.
        -14    1    4    4    0    0 -0.60515702007E+00 -0.53921759810E+02 -0.11917985411E+03  0.13081192614E+03  0.00000000000E+00 0.  1.
</event>
<event>
12    1  0.8226261E-002  0.1923168E+03  0.7818608E-02  0.1156610E+00
         21   -1    0    0  501  502  0.00000000000E+00  0.00000000000E+00  0.30748754304E+03  0.30748754304E+03  0.00000000000E+00 0. -1.
         21   -1    0    0  502  503 -0.00000000000E+00 -0.00000000000E+00 -0.12585737819E+03  0.12585737819E+03  0.00000000000E+00 0. -1.
         -6    2    1    2    0  503  0.54144647116E+02  0.68187134825E+02  0.42510373448E+02  0.19598433282E+03  0.17035726780E+03 0.  0.
        -24    2    3    3    0    0  0.65923658516E+01  0.49276947376E+02 -0.36909842771E+02  0.10138795135E+03  0.80283892248E+02 0.  0.
          6    2    1    2  501    0 -0.54144647116E+02 -0.68187134825E+02  0.13911979140E+03  0.23736058841E+03  0.17147770818E+03 0.  0.
         24    2    5    5    0    0 -0.69350296659E+01  0.22977029962E+02  0.85004493892E+02  0.12121323224E+03  0.83011114591E+02 0.  0.
          5    1    5    5  501    0 -0.47209617450E+02 -0.91164164787E+02  0.54115297512E+02  0.11614735617E+03  0.47000000000E+01 0. -1.
        -11    1    6    6    0    0  0.20738494335E+02  0.45245365163E+02  0.39832648973E+02  0.63748475591E+02  0.00000000000E+00 0.  1.
         12    1    6    6    0    0 -0.27673524001E+02 -0.22268335201E+02  0.45171844919E+02  0.57464756648E+02  0.00000000000E+00 0. -1.
         -5    1    3    3    0  503  0.47552281265E+02  0.18910187450E+02  0.79420216219E+02  0.94596381470E+02  0.47000000000E+01 0.  1.
         11    1    4    4    0    0 -0.16115819636E+02  0.21645119796E+02  0.20403237976E+02  0.33830799184E+02  0.00000000000E+00 0. -1.
        -12    1    4    4    0    0  0.22708185488E+02  0.27631827580E+02 -0.57313080747E+02  0.67557152162E+02  0.00000000000E+00 0.  1.
</event>
<event>
12    1  0.8226261E-002  0.1822369E+03  0.7818608E-02  0.1167075E+00
         21   -1    0    0  501  502  0.00000000000E+00  0.00000000000E+00  0.61878340400E+02  0.61878340400E+02  0.00000000000E+00 0. -1.
         21   -1    0    0  502  503 -0.00000000000E+00 -0.00000000000E+00 -0.58893316663E+03  0.58893316663E+03  0.00000000000E+00 0. -1.
         -6    2    1    2    0  503 -0.51947139383E+02 -0.28911503864E+02 -0.14808620268E+03  0.23030289777E+03  0.16605878763E+03 0.  0.
        -24    2    3    3    0    0 -0.88416653115E+02 -0.60016962011E+02 -0.12313123150E+03  0.17605886082E+03  0.66452103223E+02 0.  0.
          6    2    1    2  501    0  0.51947139383E+02  0.28911503864E+02 -0.37896862355E+03  0.42050860926E+03  0.17226692220E+03 0.  0.
         24    2    5    5    0    0  0.10224749254E+03  0.18461254574E+02 -0.28202054085E+03  0.31068896631E+03  0.78718998206E+02 0.  0.
          5    1    5    5  501    0 -0.50300353156E+02  0.10450249290E+02 -0.96948082704E+02  0.10981964295E+03  0.47000000000E+01 0. -1.
        -13    1    6    6    0    0  0.33464037187E+01  0.30478867108E+02 -0.62344562054E+02  0.69476644822E+02  0.00000000000E+00 0.  1.
         14    1    6    6    0    0  0.98901088821E+02 -0.12017612533E+02 -0.21967597879E+03  0.24121232149E+03  0.00000000000E+00 0. -1.
         -5    1    3    3    0  503  0.36469513732E+02  0.31105458147E+02 -0.24954971178E+02  0.54244036953E+02  0.47000000000E+01 0.  1.
         11    1    4    4    0    0 -0.19517323930E+02 -0.51368080770E+02 -0.41331797942E+02  0.68759895117E+02  0.00000000000E+00 0. -1.
        -12    1    4    4    0    0 -0.68899329185E+02 -0.86488812414E+01 -0.81799433561E+02  0.10729896570E+03  0.00000000000E+00 0.  1.
</event>
<event>
12    1  0.8226261E-002  0.1881123E+03  0.7818608E-02  0.1161644E+00
         21   -1    0    0  501  502  0.00000000000E+00  0.00000000000E+00  0.83706078982E+03  0.83706078982E+03  0.00000000000E+00 0. -1.
         21   -1    0    0  502  503 -0.00000000000E+00 -0.00000000000E+00 -0.51607473228E+02  0.51607473228E+02  0.00000000000E+00 0. -1.
         -6    2    1    2    0  503 -0.10754864403E+02 -0.70731549309E+02  0.18473968059E+03  0.25918982099E+03  0.16712867661E+03 0.  0.
        -24    2    3    3    0    0 -0.33636422138E+02 -0.97497188656E+02  0.18101766063E+03  0.22346995864E+03  0.80835130145E+02 0.  0.
          6    2    1    2  501    0  0.10754864403E+02  0.70731549309E+02  0.60071363599E+03  0.62947844205E+03  0.17397591029E+03 0.  0.
         24    2    5    5    0    0  0.80450290785E+01  0.10164949406E+03  0.31023384378E+03  0.33730749517E+03  0.84462810373E+02 0.  0.
          5    1    5    5  501    0  0.27098353240E+01 -0.30917944751E+02  0.29047979222E+03  0.29217094688E+03  0.47000000000E+01 0. -1.
        -13    1    6    6    0    0 -0.18526901944E+02 -0.36104458070E+01  0.20320883381E+02  0.27734810544E+02  0.00000000000E+00 0.  1.
         14    1    6    6    0    0  0.26571931023E+02  0.10525993987E+03  0.28991296040E+03  0.30957268462E+03  0.00000000000E+00 0. -1.
         -5    1    3    3    0  503  0.22881557735E+02  0.26765639347E+02  0.37220199672E+01  0.35719862355E+02  0.47000000000E+01 0.  1.
         11    1    4    4    0    0 -0.18790616903E+02  0.84043567359E+01  0.13122857083E+02  0.24411674947E+02  0.00000000000E+00 0. -1.
        -12    1    4    4    0    0 -0.14845805235E+02 -0.10590154539E+03  0.16789480354E+03  0.19905828369E+03  0.00000000000E+00 0.  1.
</event>
<event>
12    1  0.8226261E-002  0.2011335E+03  0.7818608E-02  0.1150930E+00
         21   -1    0    0  501  502  0.00000000000E+00  0.00000000000E+00  0.11658427123E+04  0.11658427123E+04  0.00000000000E+00 0.  1.
         21   -1    0    0  502  503 -0.00000000000E+00 -0.00000000000E+00 -0.36917387642E+02  0.36917387642E+02  0.00000000000E+00 0. -1.
         -6    2    1    2    0  503 -0.80720326715E+02  0.38930072435E+02  0.35586255854E+03  0.40396054546E+03  0.16886278462E+03 0.  0.
        -24    2    3    3    0    0 -0.10249011986E+03  0.79162543050E+01  0.33728332418E+03  0.36149810608E+03  0.79711656478E+02 0.  0.
          6    2    1    2  501    0  0.80720326715E+02 -0.38930072435E+02  0.77306276607E+03  0.79879955444E+03  0.18006489443E+03 0.  0.
         24    2    5    5    0    0  0.68907042490E+02 -0.33131512717E+02  0.77682381831E+03  0.78432846281E+03  0.76616024668E+02 0.  0.
          5    1    5    5  501    0  0.11813284225E+02 -0.57985597185E+01 -0.37610522442E+01  0.14471091630E+02  0.47000000000E+01 0. -1.
        -13    1    6    6    0    0 -0.97045316832E+01 -0.27759263046E+02  0.22053557468E+03  0.22248751497E+03  0.00000000000E+00 0.  1.
         14    1    6    6    0    0  0.78611574173E+02 -0.53722496705E+01  0.55628824364E+03  0.56184094784E+03  0.00000000000E+00 0. -1.
         -5    1    3    3    0  503  0.21769793143E+02  0.31013818130E+02  0.18579234367E+02  0.42462439381E+02  0.47000000000E+01 0.  1.
         11    1    4    4    0    0 -0.75121025343E+02  0.25362685582E+02  0.13447302639E+03  0.15610710777E+03  0.00000000000E+00 0. -1.
        -12    1    4    4    0    0 -0.27369094515E+02 -0.17446431277E+02  0.20281029778E+03  0.20539099831E+03  0.00000000000E+00 0.  1.
</event>
<event>
12    1  0.8226261E-002  0.1741047E+03  0.7818608E-02  0.1173781E+00
         21   -1    0    0  501  502  0.00000000000E+00  0.00000000000E+00  0.37783911127E+03  0.37783911127E+03  0.00000000000E+00 0. -1.
         21   -1    0    0  502  503 -0.00000000000E+00 -0.00000000000E+00 -0.98856416199E+02  0.98856416199E+02  0.00000000000E+00 0. -1.
         -6    2    1    2    0  503 -0.87082466242E+01  0.19273669984E+02  0.35089747516E+02  0.17703533295E+03  0.17222923915E+03 0.  0.
        -24    2    3    3    0    0  0.43150342255E+02  0.12040419129E+02 -0.27054901410E+02  0.95637049502E+02  0.80047197438E+02 0.  0.
          6    2    1    2  501    0  0.87082466242E+01 -0.19273669984E+02  0.24389294755E+03  0.29966019451E+03  0.17281537662E+03 0.  0.
         24    2    5    5    0    0 -0.44513326768E+02 -0.55344689259E+02  0.18154046117E+03  0.20997420417E+03  0.78024076324E+02 0.  0.
          5    1    5    5  501    0  0.53221573392E+02  0.36071019275E+02  0.62352486382E+02  0.89685990343E+02  0.47000000000E+01 0. -1.
        -13    1    6    6    0    0 -0.44329364673E+02 -0.11439214423E+02  0.36852347497E+02  0.58771112929E+02  0.00000000000E+00 0.  1.
         14    1    6    6    0    0 -0.18396209471E+00 -0.43905474836E+02  0.14468811367E+03  0.15120309124E+03  0.00000000000E+00 0. -1.
         -5    1    3    3    0  503 -0.51858588879E+02  0.72332508549E+01  0.62144648926E+02  0.81398283450E+02  0.47000000000E+01 0.  1.
         11    1    4    4    0    0 -0.22600639573E+02  0.25226254137E-01 -0.16468075762E+02  0.27964031626E+02  0.00000000000E+00 0. -1.
        -12    1    4    4    0    0  0.65750981828E+02  0.12015192875E+02 -0.10586825648E+02  0.67673017876E+02  0.00000000000E+00 0.  1.
</event>
<event>
12    1  0.8226261E-002  0.1904698E+03  0.7818608E-02  0.1158059E+00
         21   -1    0    0  503  502  0.00000000000E+00  0.00000000000E+00  0.11424133956E+03  0.11424133956E+03  0.00000000000E+00 0.  1.
         21   -1    0    0  501  503 -0.00000000000E+00 -0.00000000000E+00 -0.34796140513E+03  0.34796140513E+03  0.00000000000E+00 0. -1.
          6    2    1    2  501    0 -0.48914039599E+02  0.66163983280E+02 -0.18531584747E+03  0.26567870404E+03  0.17167688984E+03 0.  0.
         24    2    3    3    0    0 -0.66158891304E+02  0.13349445451E+02 -0.37679224678E+02  0.10786418409E+03  0.75231320909E+02 0.  0.
         -6    2    1    2    0  502  0.48914039599E+02 -0.66163983280E+02 -0.48404218103E+02  0.19652404065E+03  0.17178030815E+03 0.  0.
        -24    2    5    5    0    0 -0.32787665819E+02 -0.47904450507E+02 -0.54397562832E+02  0.11246103222E+03  0.79489128296E+02 0.  0.
          5    1    3    3  501    0  0.17244851705E+02  0.52814537829E+02 -0.14763662279E+03  0.15781451994E+03  0.47000000000E+01 0. -1.
        -13    1    4    4    0    0  0.35504794080E+01 -0.15043544609E+02  0.10326251585E+02  0.18588857152E+02  0.00000000000E+00 0.  1.
         14    1    4    4    0    0 -0.69709370712E+02  0.28392990060E+02 -0.48005476262E+02  0.89275326943E+02  0.00000000000E+00 0. -1.
         -5    1    5    5    0  502  0.81701705418E+02 -0.18259532773E+02  0.59933447288E+01  0.84063008430E+02  0.47000000000E+01 0.  1.
         13    1    6    6    0    0  0.68825409015E+01 -0.18343214317E+02 -0.59578690789E+02  0.62717328362E+02  0.00000000000E+00 0. -1.
        -14    1    6    6    0    0 -0.39670206721E+02 -0.29561236191E+02  0.51811279575E+01  0.49743703856E+02  0.00000000000E+00 0.  1.
</event>
<event>
12    1  0.8226261E-002  0.2055334E+03  0.7818608E-02  0.1145389E+00
         21   -1    0    0  503  502  0.00000000000E+00  0.00000000000E+00  0.11892617954E+03  0.11892617954E+03  0.00000000000E+00 0.  1.
         21   -1    0    0  501  503 -0.00000000000E+00 -0.00000000000E+00 -0.40795789533E+03  0.40795789533E+03  0.00000000000E+00 0. -1.
          6    2    1    2  501    0  0.60062741046E+02  0.95353655523E+02 -0.24137134120E+03  0.31702381705E+03  0.17188404155E+03 0.  0.
         24    2    3    3    0    0 -0.29036193403E+02  0.55297173925E+02 -0.15910559134E+03  0.18922363928E+03  0.81179544810E+02 0.  0.
         -6    2    1    2    0  502 -0.60062741046E+02 -0.95353655523E+02 -0.47660374595E+02  0.20986025782E+03  0.17049916135E+03 0.  0.
        -24    2    5    5    0    0 -0.72840334170E+01 -0.59373643880E+02  0.31308469623E+02  0.10818272060E+03  0.84528066558E+02 0.  0.
          5    1    3    3  501    0  0.89098934449E+02  0.40056481598E+02 -0.82265749859E+02  0.12780017777E+03  0.47000000000E+01 0. -1.
        -11    1    4    4    0    0 -0.66100606137E+01  0.36180138995E+00 -0.11524816503E+03  0.11543813643E+03  0.00000000000E+00 0.  1.
         12    1    4    4    0    0 -0.22426132789E+02  0.54935372535E+02 -0.43857426317E+02  0.73785502849E+02  0.00000000000E+00 0. -1.
         -5    1    5    5    0  502 -0.52778707629E+02 -0.35980011643E+02 -0.78968844218E+02  0.10167753721E+03  0.47000000000E+01 0.  1.
         13    1    6    6    0    0 -0.37651211076E+02 -0.81610870723E+01 -0.43690944817E+01  0.38772490561E+02  0.00000000000E+00 0. -1.
        -14    1    6    6    0    0  0.30367177659E+02 -0.51212556808E+02  0.35677564105E+02  0.69410230040E+02  0.00000000000E+00 0.  1.
</event>
<event>
12    1  0.8226261E-002  0.2329855E+03  0.7818608E-02  0.1125292E+00
         21   -1    0    0  503  502  0.00000000000E+00  0.00000000000E+00  0.25107563111E+03  0.25107563111E+03  0.00000000000E+00 0. -1.
         21   -1    0    0  501  503 -0.00000000000E+00 -0.00000000000E+00 -0.21610656250E+03  0.21610656250E+03  0.00000000000E+00 0.  1.
          6    2    1    2  501    0  0.16309462681E+02 -0.14961861046E+03 -0.13319233178E+02  0.23336590868E+03  0.17784970676E+03 0.  0.
         24    2    3    3    0    0 -0.36841028301E+02 -0.15620859352E+03 -0.44893295417E+01  0.17888233532E+03  0.78869193945E+02 0.  0.
         -6    2    1    2    0  502 -0.16309462681E+02  0.14961861046E+03  0.48288301786E+02  0.23381628493E+03  0.17229790434E+03 0.  0.
        -24    2    5    5    0    0 -0.78762345206E+00  0.16869209554E+03  0.71371327428E+02  0.19976277705E+03  0.79709831695E+02 0.  0.
          5    1    3    3  501    0  0.53150490982E+02  0.65899830582E+01 -0.88299036364E+01  0.54483573364E+02  0.47000000000E+01 0. -1.
        -13    1    4    4    0    0  0.39186955105E+01 -0.47151269531E+02 -0.34613064464E+02  0.58623055400E+02  0.00000000000E+00 0.  1.
         14    1    4    4    0    0 -0.40759723812E+02 -0.10905732399E+03  0.30123734922E+02  0.12025927992E+03  0.00000000000E+00 0. -1.
         -5    1    5    5    0  502 -0.15521839228E+02 -0.19073485076E+02 -0.23083025642E+02  0.34053507878E+02  0.47000000000E+01 0.  1.
         13    1    6    6    0    0 -0.59501786589E+01  0.64894774538E+02  0.70263008446E+02  0.95831240962E+02  0.00000000000E+00 0. -1.
        -14    1    6    6    0    0  0.51625552068E+01  0.10379732100E+03  0.11083189818E+01  0.10393153609E+03  0.00000000000E+00 0.  1.
</event>
<event>
12    1  0.8226261E-002  0.1811721E+03  0.7818608E-02  0.1167470E+00
         21   -1    0    0  503  502  0.00000000000E+00  0.00000000000E+00  0.23908896467E+03  0.23908896467E+03  0.00000000000E+00 0. -1.
         21   -1    0    0  501  503 -0.00000000000E+00 -0.00000000000E+00 -0.43912314275E+03  0.43912314275E+03  0.00000000000E+00 0. -1.
          6    2    1    2  501    0  0.40726762769E+02 -0.39503887818E+01 -0.38259084621E+03  0.42331912253E+03  0.17649093210E+03 0.  0.
         24    2    3    3    0    0  0.77909819919E+02  0.24554893125E+01 -0.14733579122E+03  0.18501124202E+03  0.80282967258E+02 0.  0.
         -6    2    1    2    0  502 -0.40726762769E+02  0.39503887818E+01  0.18255666813E+03  0.25489298489E+03  0.17311620921E+03 0.  0.
        -24    2    5    5    0    0 -0.10182774156E+03  0.91784192021E+01  0.13997457129E+03  0.18008665573E+03  0.48838413523E+02 0.  0.
          5    1    3    3  501    0 -0.37183057150E+02 -0.64058780943E+01 -0.23525505499E+03  0.23830788050E+03  0.47000000000E+01 0. -1.
        -11    1    4    4    0    0  0.25215739288E+02  0.14764705699E+01  0.32517859953E+01  0.25467382774E+02  0.00000000000E+00 0.  1.
         12    1    4    4    0    0  0.52694080631E+02  0.97901874264E+00 -0.15058757722E+03  0.15954385925E+03  0.00000000000E+00 0. -1.
         -5    1    5    5    0  502  0.61100978791E+02 -0.52280304203E+01  0.42582096841E+02  0.74806329162E+02  0.47000000000E+01 0.  1.
         11    1    6    6    0    0 -0.20145504281E+02  0.22579609617E+02  0.32104416517E+02  0.44117725157E+02  0.00000000000E+00 0. -1.
        -12    1    6    6    0    0 -0.81682237279E+02 -0.13401190415E+02  0.10787015477E+03  0.13596893058E+03  0.00000000000E+00 0.  1.
</event>
<event>
12    1  0.8226261E-002  0.2364882E+03  0.7818608E-02  0.1122235E+00
         21   -1    0    0  503  502  0.00000000000E+00  0.00000000000E+00  0.41140952433E+03  0.41140952433E+03  0.00000000000E+00 0.  1.
         21   -1    0    0  501  503 -0.00000000000E+00 -0.00000000000E+00 -0.41267426000E+03  0.41267426000E+03  0.00000000000E+00 0. -1.
          6    2    1    2  501    0 -0.15646501343E+02 -0.16132399712E+03 -0.33821603763E+03  0.41242510109E+03  0.17156378070E+03 0.  0.
         24    2    3    3    0    0  0.99730349376E+00 -0.25469653902E+02 -0.60382947437E+02  0.10267240164E+03  0.79030524691E+02 0.  0.
         -6    2    1    2    0  502  0.15646501343E+02  0.16132399712E+03  0.33695130196E+03  0.41165868325E+03  0.17221047165E+03 0.  0.
        -24    2    5    5    0    0  0.19981180001E+02  0.79493724537E+02  0.72223881539E+02  0.13449865713E+03  0.78454444815E+02 0.  0.
          5    1    3    3  501    0 -0.16643804836E+02 -0.13585434322E+03 -0.27783309019E+03  0.30975269945E+03  0.47000000000E+01 0. -1.
        -13    1    4    4    0    0 -0.47357066211E+01 -0.29272422039E+02  0.10499434304E+02  0.31456950424E+02  0.00000000000E+00 0.  1.
         14    1    4    4    0    0  0.57330101148E+01  0.38027681377E+01 -0.70882381741E+02  0.71215451215E+02  0.00000000000E+00 0. -1.
         -5    1    5    5    0  502 -0.43346786581E+01  0.81830272584E+02  0.26472742042E+03  0.27716002611E+03  0.47000000000E+01 0.  1.
         11    1    6    6    0    0 -0.15263866680E+02  0.56333605198E+02  0.71529131345E+02  0.92319430954E+02  0.00000000000E+00 0. -1.
        -12    1    6    6    0    0  0.35245046681E+02  0.23160119339E+02  0.69475019413E+00  0.42179226180E+02  0.00000000000E+00 0.  1.
</event>
<event>
12    1  0.8226261E-002  0.1849882E+03  0.7818608E-02  0.1163117E+00
         21   -1    0    0  503  502  0.00000000000E+00  0.00000000000E+00  0.17069306403E+03  0.17069306403E+03  0.00000000000E+00 0. -1.
         21   -1    0    0  501  503 -0.00000000000E+00 -0.00000000000E+00 -0.38671155626E+03  0.38671155626E+03  0.00000000000E+00 0. -1.
          6    2    1    2  501    0 -0.42806053600E+02  0.51968326816E+02 -0.30151544126E+03  0.35361465718E+03  0.17204272503E+03 0.  0.
         24    2    3    3    0    0 -0.21256413242E+02 -0.11905312684E+02 -0.26421143913E+03  0.27642717505E+03  0.77528878253E+02 0.  0.
         -6    2    1    2    0  502  0.42806053600E+02 -0.51968326816E+02  0.85496949034E+02  0.20378996310E+03  0.17230077061E+03 0.  0.
        -24    2    5    5    0    0  0.44573667197E+02 -0.10088588649E+03  0.65575698575E+02  0.15073340534E+03  0.79092435430E+02 0.  0.
          5    1    3    3  501    0 -0.21549640357E+02  0.63873639500E+02 -0.37304002128E+02  0.77187482128E+02  0.47000000000E+01 0. -1.
        -13    1    4    4    0    0  0.21193486767E+02  0.19026616289E+02 -0.10373299316E+03  0.10757188238E+03  0.00000000000E+00 0.  1.
         14    1    4    4    0    0 -0.42449900009E+02 -0.30931928973E+02 -0.16047844597E+03  0.16885529267E+03  0.00000000000E+00 0. -1.
         -5    1    5    5    0  502 -0.17676135976E+01  0.48917559671E+02  0.19921250459E+02  0.53056557764E+02  0.47000000000E+01 0.  1.
         11    1    6    6    0    0  0.16088539520E+02 -0.32861682074E+02  0.67700702889E+02  0.76955288475E+02  0.00000000000E+00 0. -1.
        -12    1    6    6    0    0  0.28485127678E+02 -0.68024204413E+02 -0.21250043142E+01  0.73778116865E+02  0.00000000000E+00 0.  1.
</event>
<event>
12    1  0.8226261E-002  0.1806462E+03  0.7818608E-02  0.1167528E+00
         21   -1    0    0  503  502  0.00000000000E+00  0.00000000000E+00  0.85212695317E+02  0.85212695317E+02  0.00000000000E+00 0.  1.
         21   -1    0    0  501  503 -0.00000000000E+00 -0.00000000000E+00 -0.12569026201E+04  0.12569026201E+04  0.00000000000E+00 0.  1.
          6    2    1    2  501    0 -0.35775282830E+00 -0.50729460540E+02 -0.11456746142E+04  0.11596054423E+04  0.17187452949E+03 0.  0.
         24    2    3    3    0    0 -0.63976910201E+02 -0.41642891737E+02 -0.59989812230E+03  0.61003831073E+03  0.80260874353E+02 0.  0.
         -6    2    1    2    0  502  0.35775282830E+00  0.50729460540E+02 -0.26015310597E+02  0.18250987320E+03  0.17337661686E+03 0.  0.
        -24    2    5    5    0    0  0.49611095085E+02 -0.18820261164E+02 -0.79807770590E+01  0.95272324442E+02  0.78725218426E+02 0.  0.
          5    1    3    3  501    0  0.63619157373E+02 -0.90865688030E+01 -0.54577649193E+03  0.54956713154E+03  0.47000000000E+01 0. -1.
        -11    1    4    4    0    0 -0.18301406645E+02 -0.38009498539E+02 -0.47724868765E+03  0.47910956296E+03  0.00000000000E+00 0.  1.
         12    1    4    4    0    0 -0.45675503556E+02 -0.36333931978E+01 -0.12264943465E+03  0.13092874777E+03  0.00000000000E+00 0. -1.
         -5    1    5    5    0  502 -0.49253342257E+02  0.69549721704E+02 -0.18034533538E+02  0.87237548753E+02  0.47000000000E+01 0.  1.
         11    1    6    6    0    0  0.60015264471E+02 -0.20047289748E+02 -0.30643965907E+02  0.70304896290E+02  0.00000000000E+00 0. -1.
        -12    1    6    6    0    0 -0.10404169386E+02  0.12270285837E+01  0.22663188848E+02  0.24967428152E+02  0.00000000000E+00 0.  1.
</event>
<event>
12    1  0.8226261E-002  0.2094155E+03  0.7818608E-02  0.1142166E+00
         21   -1    0    0  503  502  0.00000000000E+00  0.00000000000E+00  0.21063986717E+03  0.21063986717E+03  0.00000000000E+00 0. -1.
         21   -1    0    0  501  503 -0.00000000000E+00 -0.00000000000E+00 -0.25568822136E+03  0.25568822136E+03  0.00000000000E+00 0. -1.
          6    2    1    2  501    0  0.85949900254E+02  0.84070980195E+02 -0.12375848254E+03  0.24325097020E+03  0.17146299145E+03 0.  0.
         24    2    3    3    0    0  0.78037235020E+02  0.68468750129E+01 -0.12128992407E+03  0.16544122483E+03  0.80764246087E+02 0.  0.
         -6    2    1    2    0  502 -0.85949900254E+02 -0.84070980195E+02  0.78710128346E+02  0.22307711834E+03  0.17062473841E+03 0.  0.
        -24    2    5    5    0    0 -0.23901478112E+02 -0.44060709251E+02 -0.21829312173E+02  0.98252851582E+02  0.81636249414E+02 0.  0.
          5    1    3    3  501    0  0.79126652332E+01  0.77224105182E+02 -0.24685584638E+01  0.77809745361E+02  0.47000000000E+01 0. -1.
        -13    1    4    4    0    0  0.54666395741E+01 -0.22997734737E+02 -0.34828739009E+01  0.23893730597E+02  0.00000000000E+00 0.  1.
         14    1    4    4    0    0  0.72570595446E+02  0.29844609749E+02 -0.11780705017E+03  0.14154749424E+03  0.00000000000E+00 0. -1.
         -5    1    5    5    0  502 -0.62048422142E+02 -0.40010270944E+02  0.10053944052E+03  0.12482426676E+03  0.47000000000E+01 0.  1.
         13    1    6    6    0    0 -0.26443526999E+02  0.12991716732E+02  0.12071512543E+02  0.31839695961E+02  0.00000000000E+00 0. -1.
        -14    1    6    6    0    0  0.25420488873E+01 -0.57052425983E+02 -0.33900824716E+02  0.66413155621E+02  0.00000000000E+00 0.  1.
</event>
<event>
12    1  0.8226261E-002  0.1785726E+03  0.7818608E-02  0.1170048E+00
         21   -1    0    0  503  502  0.00000000000E+00  0.00000000000E+00  0.35814691646E+03  0.35814691646E+03  0.00000000000E+00 0.  1.
         21   -1    0    0  501  503 -0.00000000000E+00 -0.00000000000E+00 -0.91696818820E+02  0.91696818820E+02  0.00000000000E+00 0. -1.
          6    2    1    2  501    0 -0.15647876697E+02  0.46797046578E+02  0.82820107173E+02  0.19370283262E+03  0.16800832598E+03 0.  0.
         24    2    3    3    0    0 -0.10954189458E+02  0.95379895481E+02  0.74526078878E+02  0.14397150635E+03  0.77177324894E+02 0.  0.
         -6    2    1    2    0  502  0.15647876697E+02 -0.46797046578E+02  0.18362999047E+03  0.25614090267E+03  0.17161983861E+03 0.  0.
        -24    2    5    5    0    0  0.35410813306E+02 -0.59669890463E+01  0.24741125340E+02  0.90836853338E+02  0.79684879268E+02 0.  0.
          5    1    3    3  501    0 -0.46936872393E+01 -0.48582848903E+02  0.82940282947E+01  0.49731326272E+02  0.47000000000E+01 0. -1.
        -13    1    4    4    0    0  0.19053479202E+02 -0.35947534725E+01  0.15984721672E+02  0.25129039957E+02  0.00000000000E+00 0.  1.
         14    1    4    4    0    0 -0.30007668659E+02  0.98974648953E+02  0.58541357206E+02  0.11884246639E+03  0.00000000000E+00 0. -1.
         -5    1    5    5    0  502 -0.19762936610E+02 -0.40830057531E+02  0.15888886513E+03  0.16530404933E+03  0.47000000000E+01 0.  1.
         11    1    6    6    0    0 -0.10940859441E+02 -0.10484596531E+02 -0.20776688411E+02  0.25715752975E+02  0.00000000000E+00 0. -1.
        -12    1    6    6    0    0  0.46351672747E+02  0.45176074850E+01  0.45517813751E+02  0.65121100363E+02  0.00000000000E+00 0.  1.
</event>
<event>
12    1  0.8226261E-002  0.1976925E+03  0.7818608E-02  0.1151730E+00
         21   -1    0    0  503  502  0.00000000000E+00  0.00000000000E+00  0.35433374700E+03  0.35433374700E+03  0.00000000000E+00 0.  1.
         21   -1    0    0  501  503 -0.00000000000E+00 -0.00000000000E+00 -0.15651979726E+03  0.15651979726E+03  0.00000000000E+00 0.  1.
          6    2    1    2  501    0  0.68305847289E+02  0.66191405044E+02  0.23780407225E+03  0.30915691673E+03  0.17314800464E+03 0.  0.
         24    2    3    3    0    0  0.71550560043E+01  0.70363751160E+02  0.60702962121E+02  0.12169033050E+03  0.78239597539E+02 0.  0.
         -6    2    1    2    0  502 -0.68305847289E+02 -0.66191405044E+02 -0.39990122505E+02  0.20169662752E+03  0.17330703615E+03 0.  0.
        -24    2    5    5    0    0 -0.58999604425E+02 -0.72106717200E+02  0.33691010274E+02  0.12704680233E+03  0.79532847430E+02 0.  0.
          5    1    3    3  501    0  0.61150791284E+02 -0.41723461161E+01  0.17710111012E+03  0.18746658623E+03  0.47000000000E+01 0. -1.
        -13    1    4    4    0    0  0.26846420839E+02 -0.29410103905E+01  0.28423800680E+02  0.39208319258E+02  0.00000000000E+00 0.  1.
         14    1    4    4    0    0 -0.19691364834E+02  0.73304761550E+02  0.32279161441E+02  0.82482011241E+02  0.00000000000E+00 0. -1.
         -5    1    5    5    0  502 -0.93062428637E+01  0.59153121566E+01 -0.73681132779E+02  0.74649825195E+02  0.47000000000E+01 0.  1.
         13    1    6    6    0    0 -0.76685065753E+02 -0.42043490240E+02  0.21093459195E+02  0.89962149829E+02  0.00000000000E+00 0. -1.
        -14    1    6    6    0    0  0.17685461328E+02 -0.30063226960E+02  0.12597551079E+02  0.37084652497E+02  0.00000000000E+00 0.  1.
</event>
<event>
12    1  0.8226261E-002  0.2931253E+03  0.7818608E-02  0.1088794E+00
         21   -1    0    0  503  502  0.00000000000E+00  0.00000000000E+00  0.52199754787E+03  0.52199754787E+03  0.00000000000E+00 0.  1.
         21   -1    0    0  501  503 -0.00000000000E+00 -0.00000000000E+00 -0.36319647724E+03  0.36319647724E+03  0.00000000000E+00 0.  1.
          6    2    1    2  501    0 -0.42101255423E+02  0.23280467373E+03 -0.24814573785E+03  0.38366821887E+03  0.17220471287E+03 0.  0.
         24    2    3    3    0    0 -0.50780111928E+02  0.55970952423E+02 -0.77702737914E+02  0.13786668557E+03  0.85194719486E+02 0.  0.
         -6    2    1    2    0  502  0.42101255423E+02 -0.23280467373E+03  0.40694680848E+03  0.50152580624E+03  0.17306616531E+03 0.  0.
        -24    2    5    5    0    0  0.33830351523E+02 -0.82004892292E+02  0.80812026783E+02  0.14208879122E+03  0.76087751148E+02 0.  0.
          5    1    3    3  501    0  0.86788565048E+01  0.17683372131E+03 -0.17044299994E+03  0.24580153329E+03  0.47000000000E+01 0. -1.
        -11    1    4    4    0    0 -0.50005774838E+02  0.77513940864E+02 -0.65007723647E+02  0.11284942481E+03  0.00000000000E+00 0.  1.
         12    1    4    4    0    0 -0.77433709026E+00 -0.21542988441E+02 -0.12695014267E+02  0.25017260764E+02  0.00000000000E+00 0. -1.
         -5    1    5    5    0  502  0.82709039003E+01 -0.15079978144E+03  0.32613478169E+03  0.35943701502E+03  0.47000000000E+01 0.  1.
         11    1    6    6    0    0  0.33950820241E+02 -0.90515461604E+02  0.88166783773E+02  0.13083993559E+03  0.00000000000E+00 0. -1.
        -12    1    6    6    0    0 -0.12046871848E+00  0.85105693113E+01 -0.73547569893E+01  0.11248855635E+02  0.00000000000E+00 0.  1.
</event>
<event>
12    1  0.8226261E-002  0.2011162E+03  0.7818608E-02  0.1148877E+00
         21   -1    0    0  503  502  0.00000000000E+00  0.00000000000E+00  0.76886132833E+02  0.76886132833E+02  0.00000000000E+00 0. -1.
         21   -1    0    0  501  503 -0.00000000000E+00 -0.00000000000E+00 -0.52784413197E+03  0.52784413197E+03  0.00000000000E+00 0.  1.
          6    2    1    2  501    0 -0.41420595840E+02 -0.92039389381E+02 -0.24698418401E+03  0.31828127302E+03  0.17353635540E+03 0.  0.
         24    2    3    3    0    0 -0.10474207158E+02 -0.12743400404E+03 -0.20867472084E+03  0.25745231044E+03  0.79921327782E+02 0.  0.
         -6    2    1    2    0  502  0.41420595840E+02  0.92039389381E+02 -0.20397381513E+03  0.28644899179E+03  0.17395629532E+03 0.  0.
        -24    2    5    5    0    0  0.84903581818E+02  0.64197114747E+02 -0.18984180546E+03  0.23271105339E+03  0.82368898992E+02 0.  0.
          5    1    3    3  501    0 -0.30946388682E+02  0.35394614658E+02 -0.38309463173E+02  0.60828962574E+02  0.47000000000E+01 0. -1.
        -13    1    4    4    0    0  0.21334314909E+02 -0.25279091464E+01 -0.36877277992E+02  0.42678764619E+02  0.00000000000E+00 0.  1.
         14    1    4    4    0    0 -0.31808522067E+02 -0.12490609489E+03 -0.17179744285E+03  0.21477354582E+03  0.00000000000E+00 0. -1.
         -5    1    5    5    0  502 -0.43482985978E+02  0.27842274634E+02 -0.14132009670E+02  0.53737938401E+02  0.47000000000E+01 0.  1.
         11    1    6    6    0    0  0.30992102279E+02  0.29071301570E+01 -0.12397670750E+03  0.12782482471E+03  0.00000000000E+00 0. -1.
        -12    1    6    6    0    0  0.53911479539E+02  0.61289984590E+02 -0.65865097959E+02  0.10488622868E+03  0.00000000000E+00 0.  1.
</event>
<event>
12    1  0.8226261E-002  0.1825368E+03  0.7818608E-02  0.1165540E+00
         21   -1    0    0  501  502  0.00000000000E+00  0.00000000000E+00  0.98686685566E+02  0.98686685566E+02  0.00000000000E+00 0. -1.
         21   -1    0    0  502  503 -0.00000000000E+00 -0.00000000000E+00 -0.37191399975E+03  0.37191399975E+03  0.00000000000E+00 0. -1.
         -6    2    1    2    0  503  0.54947222039E+02  0.24952027021E+02 -0.20917069429E+03  0.27715056537E+03  0.17151750835E+03 0.  0.
        -24    2    3    3    0    0  0.59239553534E+02 -0.52993756655E+02 -0.14362329631E+03  0.17510880585E+03  0.60973598371E+02 0.  0.
          6    2    1    2  501    0 -0.54947222039E+02 -0.24952027021E+02 -0.64056619893E+02  0.19345011995E+03  0.17227274158E+03 0.  0.
         24    2    5    5    0    0 -0.22219771628E+02  0.48911627931E+02 -0.12410502629E+02  0.97448364954E+02  0.80349845418E+02 0.  0.
          5    1    5    5  501    0 -0.32727450411E+02 -0.73863654951E+02 -0.51646117264E+02  0.96001754992E+02  0.47000000000E+01 0. -1.
        -13    1    6    6    0    0  0.10111530974E+02  0.35281936354E+02 -0.38902671310E+02  0.53483417305E+02  0.00000000000E+00 0.  1.
         14    1    6    6    0    0 -0.32331302602E+02  0.13629691576E+02  0.26492168681E+02  0.43964947649E+02  0.00000000000E+00 0. -1.
         -5    1    3    3    0  503 -0.42923314953E+01  0.77945783675E+02 -0.65547397980E+02  0.10204175951E+03  0.47000000000E+01 0.  1.
         13    1    4    4    0    0  0.12355533220E+02  0.41607643774E+01 -0.68438556393E+02  0.69669269858E+02  0.00000000000E+00 0. -1.
        -14    1    4    4    0    0  0.46884020314E+02 -0.57154521032E+02 -0.75184739914E+02  0.10543953600E+03  0.00000000000E+00 0.  1.
</event>
<event>
12    1  0.8226261E-002  0.1942991E+03  0.7818608E-02  0.1154697E+00
         21   -1    0    0  501  502  0.00000000000E+00  0.00000000000E+00  0.21027495846E+03  0.21027495846E+03  0.00000000000E+00 0. -1.
         21   -1    0    0  502  503 -0.00000000000E+00 -0.00000000000E+00 -0.49106442429E+03  0.49106442429E+03  0.00000000000E+00 0. -1.
         -6    2    1    2    0  503 -0.86290549627E+02  0.11649168400E+02 -0.41984088172E+03  0.46262132501E+03  0.17369617816E+03 0.  0.
        -24    2    3    3    0    0 -0.11512475058E+03  0.38087891251E+02 -0.37993841045E+03  0.40654357163E+03  0.78867510667E+02 0.  0.
          6    2    1    2  501    0  0.86290549627E+02 -0.11649168400E+02  0.13905141588E+03  0.23871805775E+03  0.17340488100E+03 0.  0.
         24    2    5    5    0    0  0.11332465368E+03 -0.17715049030E+02  0.55881177891E+02  0.15092844459E+03  0.80624991484E+02 0.  0.
          5    1    5    5  501    0 -0.27034104050E+02  0.60658806301E+01  0.83170237992E+02  0.87789613152E+02  0.47000000000E+01 0. -1.
        -11    1    6    6    0    0  0.19300276902E+02  0.72492781489E+01 -0.19099192607E+02  0.28103947773E+02  0.00000000000E+00 0.  1.
         12    1    6    6    0    0  0.94024376774E+02 -0.24964327179E+02  0.74980370498E+02  0.12282449682E+03  0.00000000000E+00 0. -1.
         -5    1    3    3    0  503  0.28834200955E+02 -0.26438722851E+02 -0.39902471270E+02  0.56077753380E+02  0.47000000000E+01 0.  1.
         13    1    4    4    0    0 -0.31028590448E+02  0.49354195800E+02 -0.12668890359E+03  0.13945855428E+03  0.00000000000E+00 0. -1.
        -14    1    4    4    0    0 -0.84096160133E+02 -0.11266304549E+02 -0.25324950686E+03  0.26708501735E+03  0.00000000000E+00 0.  1.
</event>
<event>
12    1  0.8226261E-002  0.3403756E+03  0.7818608E-02  0.1066718E+00
         21   -1    0    0  503  502  0.00000000000E+00  0.00000000000E+00  0.27687332806E+03  0.27687332806E+03  0.00000000000E+00 0. -1.
         21   -1    0    0  501  503 -0.00000000000E+00 -0.00000000000E+00 -0.53328700857E+03  0.53328700857E+03  0.00000000000E+00 0. -1.
          6    2    1    2  501    0  0.25656599490E+03 -0.14303766498E+03 -0.31684568756E+03  0.46446169805E+03  0.17043355272E+03 0.  0.
         24    2    3    3    0    0  0.85189933383E+02 -0.30959640949E+01 -0.89065971621E+02  0.14687844424E+03  0.79834956875E+02 0.  0.
         -6    2    1    2    0  502 -0.25656599490E+03  0.14303766498E+03  0.60432007042E+02  0.34569863858E+03  0.17195824464E+03 0.  0.
        -24    2    5    5    0    0 -0.15811263716E+03  0.15143127344E+03  0.46518093282E+01  0.23213351730E+03  0.77027877564E+02 0.  0.
          5    1    3    3  501    0  0.17137606152E+03 -0.13994170088E+03 -0.22777971594E+03  0.31758325381E+03  0.47000000000E+01 0. -1.
        -13    1    4    4    0    0  0.49196665778E+02 -0.29765419283E+02 -0.84000726358E+02  0.10179594362E+03  0.00000000000E+00 0.  1.
         14    1    4    4    0    0  0.35993267605E+02  0.26669455188E+02 -0.50652452622E+01  0.45082500624E+02  0.00000000000E+00 0. -1.
         -5    1    5    5    0  502 -0.98453357741E+02 -0.83936084597E+01  0.55780197714E+02  0.11356512128E+03  0.47000000000E+01 0.  1.
         13    1    6    6    0    0 -0.72505205189E+02  0.10835881187E+03 -0.22998687800E+02  0.13239175401E+03  0.00000000000E+00 0. -1.
        -14    1    6    6    0    0 -0.85607431970E+02  0.43072461571E+02  0.27650497128E+02  0.99741763297E+02  0.00000000000E+00 0.  1.
</event>
<event>
12    1  0.8226261E-002  0.1906984E+03  0.7818608E-02  0.1157969E+00
         21   -1    0    0  503  502  0.00000000000E+00  0.00000000000E+00  0.46490956711E+02  0.46490956711E+02  0.00000000000E+00 0. -1.
         21   -1    0    0  501  503 -0.00000000000E+00 -0.00000000000E+00 -0.79997013195E+03  0.79997013195E+03  0.00000000000E+00 0. -1.
          6    2    1    2  501    0  0.33450115763E+02  0.72177379583E+02 -0.31002053277E+03  0.36397608651E+03  0.17331294367E+03 0.  0.
         24    2    3    3    0    0  0.27159327905E+02 -0.22806930853E+02 -0.20109795912E+03  0.21924250267E+03  0.79806645252E+02 0.  0.
         -6    2    1    2    0  502 -0.33450115763E+02 -0.72177379583E+02 -0.44345864246E+03  0.48248500215E+03  0.17264913945E+03 0.  0.
        -24    2    5    5    0    0 -0.36615295274E+02 -0.90207601408E+02 -0.44600411140E+03  0.46341469348E+03  0.79720885260E+02 0.  0.
          5    1    3    3  501    0  0.62907878580E+01  0.94984310436E+02 -0.10892257365E+03  0.14473358384E+03  0.47000000000E+01 0. -1.
        -13    1    4    4    0    0  0.55401291465E+02 -0.11129621458E+02 -0.12221601819E+03  0.13464741614E+03  0.00000000000E+00 0.  1.
         14    1    4    4    0    0 -0.28241963560E+02 -0.11677309395E+02 -0.78881940931E+02  0.84595086532E+02  0.00000000000E+00 0. -1.
         -5    1    5    5    0  502  0.31651795113E+01  0.18030221825E+02  0.25454689410E+01  0.19070308663E+02  0.47000000000E+01 0.  1.
         11    1    6    6    0    0  0.24544372084E+02 -0.38920588083E+02 -0.16342189485E+03  0.16977618825E+03  0.00000000000E+00 0. -1.
        -12    1    6    6    0    0 -0.61159667358E+02 -0.51287013324E+02 -0.28258221655E+03  0.29363850524E+03  0.00000000000E+00 0.  1.
</event>
<event>
12    1  0.8226261E-002  0.1830105E+03  0.7818608E-02  0.1166147E+00
         21   -1    0    0  501  502  0.00000000000E+00  0.00000000000E+00  0.26674147503E+03  0.26674147503E+03  0.00000000000E+00 0.  1.
         21   -1    0    0  502  503 -0.00000000000E+00 -0.00000000000E+00 -0.12209737783E+03  0.12209737783E+03  0.00000000000E+00 0. -1.
         -6    2    1    2    0  503  0.43371083559E+02  0.36392040599E+01  0.75029825877E+02  0.19779363386E+03  0.17775981584E+03 0.  0.
        -24    2    3    3    0    0 -0.21969032136E+02  0.53662822312E+02  0.48840187806E+02  0.11130848921E+03  0.81497723614E+02 0.  0.
          6    2    1    2  501    0 -0.43371083559E+02 -0.36392040599E+01  0.69614271322E+02  0.19104521900E+03  0.17250459192E+03 0.  0.
         24    2    5    5    0    0 -0.87861096164E+02  0.66020400011E+01  0.14555283646E+02  0.11936658602E+03  0.79204585884E+02 0.  0.
          5    1    5    5  501    0  0.44490012605E+02 -0.10241244061E+02  0.55058987675E+02  0.71678632977E+02  0.47000000000E+01 0. -1.
        -13    1    6    6    0    0 -0.76757928527E+02  0.30562821603E+02  0.31015260773E+02  0.88248581047E+02  0.00000000000E+00 0.  1.
         14    1    6    6    0    0 -0.11103167637E+02 -0.23960781602E+02 -0.16459977126E+02  0.31118004974E+02  0.00000000000E+00 0. -1.
         -5    1    3    3    0  503  0.65340115695E+02 -0.50023618252E+02  0.26189638071E+02  0.86485144645E+02  0.47000000000E+01 0.  1.
         13    1    4    4    0    0 -0.76799403007E+01  0.24372838125E+02 -0.21750917408E+02  0.33557698512E+02  0.00000000000E+00 0. -1.
        -14    1    4    4    0    0 -0.14289091835E+02  0.29289984187E+02  0.70591105214E+02  0.77750790700E+02  0.00000000000E+00 0.  1.
</event>
<event>
12    1  0.8226261E-002  0.1901117E+03  0.7818608E-02  0.1158551E+00
         21   -1    0    0  503  502  0.00000000000E+00  0.00000000000E+00  0.46567885797E+03  0.46567885797E+03  0.00000000000E+00 0.  1.
         21   -1    0    0  501  503 -0.00000000000E+00 -0.00000000000E+00 -0.12822174483E+03  0.12822174483E+03  0.00000000000E+00 0. -1.
          6    2    1    2  501    0 -0.20607501050E+02 -0.76061299485E+02 -0.18691159499E+02  0.19018778316E+03  0.17208150115E+03 0.  0.
         24    2    3    3    0    0  0.14814324865E+02  0.20118269220E+02 -0.25941553588E+02  0.87329271588E+02  0.79556448487E+02 0.  0.
         -6    2    1    2    0  502  0.20607501050E+02  0.76061299485E+02  0.35614827263E+03  0.40371281965E+03  0.17300999471E+03 0.  0.
        -24    2    5    5    0    0  0.50430233666E+02  0.86627302767E+02  0.34925830712E+03  0.37099283446E+03  0.74878702414E+02 0.  0.
          5    1    3    3  501    0 -0.35421825915E+02 -0.96179568706E+02  0.72503940896E+01  0.10285851157E+03  0.47000000000E+01 0. -1.
        -13    1    4    4    0    0  0.91271706836E+01 -0.24779760745E+02  0.11296201625E+02  0.28721872474E+02  0.00000000000E+00 0.  1.
         14    1    4    4    0    0  0.56871541816E+01  0.44898029966E+02 -0.37237755213E+02  0.58607399113E+02  0.00000000000E+00 0. -1.
         -5    1    5    5    0  502 -0.29822732616E+02 -0.10566003281E+02  0.68899655131E+01  0.32719985190E+02  0.47000000000E+01 0.  1.
         11    1    6    6    0    0  0.40871283016E+02  0.52382534246E+02  0.10565975448E+03  0.12481336221E+03  0.00000000000E+00 0. -1.
        -12    1    6    6    0    0  0.95589506505E+01  0.34244768521E+02  0.24359855264E+03  0.24617947225E+03  0.00000000000E+00 0.  1.
</event>
<event>
12    1  0.8226261E-002  0.2329076E+03  0.7818608E-02  0.1124687E+00
         21   -1    0    0  503  502  0.00000000000E+00  0.00000000000E+00  0.11947723924E+03  0.11947723924E+03  0.00000000000E+00 0. -1.
         21   -1    0    0  501  503 -0.00000000000E+00 -0.00000000000E+00 -0.49452688410E+03  0.49452688410E+03  0.00000000000E+00 0.  1.
          6    2    1    2  501    0 -0.27527340669E+02 -0.15438027758E+03 -0.27647891539E+03  0.36150594344E+03  0.17220607391E+03 0.  0.
         24    2    3    3    0    0 -0.62669340810E+02 -0.36711018737E+02 -0.10723043962E+03  0.15234535632E+03  0.80222161756E+02 0.  0.
         -6    2    1    2    0  502  0.27527340669E+02  0.15438027758E+03 -0.98570729466E+02  0.25249817989E+03  0.17160453826E+03 0.  0.
        -24    2    5    5    0    0 -0.52232109695E+02  0.71115187880E+02 -0.40216035196E+02  0.12318458653E+03  0.75970715679E+02 0.  0.
          5    1    3    3  501    0  0.35142000141E+02 -0.11766925885E+03 -0.16924847577E+03  0.20916058711E+03  0.47000000000E+01 0. -1.
        -13    1    4    4    0    0  0.62443636033E+01  0.12469004578E+02 -0.45440942882E+02  0.47532593470E+02  0.00000000000E+00 0.  1.
         14    1    4    4    0    0 -0.68913704413E+02 -0.49180023315E+02 -0.61789496742E+02  0.10481276285E+03  0.00000000000E+00 0. -1.
         -5    1    5    5    0  502  0.79759450363E+02  0.83265089705E+02 -0.58354694270E+02  0.12931359337E+03  0.47000000000E+01 0.  1.
         11    1    6    6    0    0 -0.48951612315E+02  0.82324177148E+02 -0.49913587144E+02  0.10800415118E+03  0.00000000000E+00 0. -1.
        -12    1    6    6    0    0 -0.32804973796E+01 -0.11208989268E+02  0.96975519481E+01  0.15180435344E+02  0.00000000000E+00 0.  1.
</event>
<event>
12    1  0.8226261E-002  0.1974240E+03  0.7818608E-02  0.1155161E+00
         21   -1    0    0  501  502  0.00000000000E+00  0.00000000000E+00  0.40077664931E+02  0.40077664931E+02  0.00000000000E+00 0. -1.
         21   -1    0    0  502  503 -0.00000000000E+00 -0.00000000000E+00 -0.94046499893E+03  0.94046499893E+03  0.00000000000E+00 0. -1.
         -6    2    1    2    0  503 -0.42956924309E+02 -0.86496494138E+02 -0.36829679882E+03  0.41787410065E+03  0.17218969519E+03 0.  0.
        -24    2    3    3    0    0 -0.93341978295E+02 -0.58613169336E+02 -0.29068994147E+03  0.32112159280E+03  0.80437595444E+02 0.  0.
          6    2    1    2  501    0  0.42956924309E+02  0.86496494138E+02 -0.53209053518E+03  0.56266856321E+03  0.15539830615E+03 0.  0.
         24    2    5    5    0    0  0.32100220909E+01  0.54212371065E+01 -0.35271583971E+03  0.36179451084E+03  0.80293900404E+02 0.  0.
          5    1    5    5  501    0  0.39746902218E+02  0.81075257032E+02 -0.17937469547E+03  0.20087405237E+03  0.47000000000E+01 0. -1.
        -11    1    6    6    0    0 -0.66464949680E+01  0.19718481643E+02 -0.33907280844E+03  0.33971070610E+03  0.00000000000E+00 0.  1.
         12    1    6    6    0    0  0.98565170588E+01 -0.14297244536E+02 -0.13643031266E+02  0.22083804744E+02  0.00000000000E+00 0. -1.
         -5    1    3    3    0  503  0.50385053986E+02 -0.27883324803E+02 -0.77606857351E+02  0.96752507849E+02  0.47000000000E+01 0.  1.
         13    1    4    4    0    0 -0.55725042872E+02 -0.71532593698E+02 -0.15349481804E+03  0.17827745659E+03  0.00000000000E+00 0. -1.
        -14    1    4    4    0    0 -0.37616935423E+02  0.12919424362E+02 -0.13719512343E+03  0.14284413621E+03  0.00000000000E+00 0.  1.
</event>
<event>
12    1  0.8226261E-002  0.1954128E+03  0.7818608E-02  0.1154250E+00
         21   -1    0    0  501  502  0.00000000000E+00  0.00000000000E+00  0.26782177883E+03  0.26782177883E+03  0.00000000000E+00 0. -1.
         21   -1    0    0  502  503 -0.00000000000E+00 -0.00000000000E+00 -0.14088426277E+03  0.14088426277E+03  0.00000000000E+00 0. -1.
         -6    2    1    2    0  503 -0.77176236867E+02 -0.50685596520E+02  0.54680116311E+02  0.20036185263E+03  0.16920329677E+03 0.  0.
        -24    2    3    3    0    0 -0.75487868334E+02  0.12049393687E+02  0.75449202796E+02  0.13408987863E+03  0.80273950908E+02 0.  0.
          6    2    1    2  501    0  0.77176236867E+02  0.50685596520E+02  0.72257399741E+02  0.20834418897E+03  0.17222359893E+03 0.  0.
         24    2    5    5    0    0  0.96222430681E+02  0.79671281131E+02  0.85611145736E+02  0.17088300982E+03  0.79154693909E+02 0.  0.
          5    1    5    5  501    0 -0.19046193814E+02 -0.28985684611E+02 -0.13353745994E+02  0.37461179149E+02  0.47000000000E+01 0. -1.
        -13    1    6    6    0    0 -0.83990469727E+01  0.24450117653E+02  0.31622646367E+02  0.40845367015E+02  0.00000000000E+00 0.  1.
         14    1    6    6    0    0  0.10462147765E+03  0.55221163478E+02  0.53988499369E+02  0.13003764281E+03  0.00000000000E+00 0. -1.
         -5    1    3    3    0  503 -0.16883685338E+01 -0.62734990207E+02 -0.20769086484E+02  0.66271974001E+02  0.47000000000E+01 0.  1.
         13    1    4    4    0    0 -0.70937317294E+02  0.40723002828E+02  0.56834366072E+02  0.99602264588E+02  0.00000000000E+00 0. -1.
        -14    1    4    4    0    0 -0.45505510391E+01 -0.28673609141E+02  0.18614836724E+02  0.34487614040E+02  0.00000000000E+00 0.  1.
</event>
<event>
12    1  0.8226261E-002  0.2679704E+03  0.7818608E-02  0.1102662E+00
         21   -1    0    0  501  502  0.00000000000E+00  0.00000000000E+00  0.10319041133E+03  0.10319041133E+03  0.00000000000E+00 0.  1.
         21   -1    0    0  502  503 -0.00000000000E+00 -0.00000000000E+00 -0.93737213137E+03  0.93737213137E+03  0.00000000000E+00 0. -1.
         -6    2    1    2    0  503  0.14027144337E+03  0.14751423187E+03 -0.68412542510E+03  0.73473515633E+03  0.17427457142E+03 0.  0.
        -24    2    3    3    0    0  0.17122785010E+03  0.13889462558E+03 -0.57250969199E+03  0.61849076460E+03  0.78439688982E+02 0.  0.
          6    2    1    2  501    0 -0.14027144337E+03 -0.14751423187E+03 -0.15005629494E+03  0.30582738638E+03  0.17197956906E+03 0.  0.
         24    2    5    5    0    0 -0.14950953225E+03 -0.16305276838E+03 -0.16022884293E+03  0.28455865027E+03  0.79756114665E+02 0.  0.
          5    1    5    5  501    0  0.92380888778E+01  0.15538536506E+02  0.10172547991E+02  0.21268736105E+02  0.47000000000E+01 0. -1.
        -13    1    6    6    0    0 -0.40934441617E+02 -0.81700808843E+02 -0.10191994811E+03  0.13688800714E+03  0.00000000000E+00 0.  1.
         14    1    6    6    0    0 -0.10857509063E+03 -0.81351959538E+02 -0.58308894814E+02  0.14767064313E+03  0.00000000000E+00 0. -1.
         -5    1    3    3    0  503 -0.30956406728E+02  0.86196062940E+01 -0.11161573311E+03  0.11624439173E+03  0.47000000000E+01 0.  1.
         13    1    4    4    0    0  0.12679529150E+03  0.11287604344E+03 -0.50996669865E+03  0.53747937715E+03  0.00000000000E+00 0. -1.
        -14    1    4    4    0    0  0.44432558603E+02  0.26018582145E+02 -0.62542993337E+02  0.81011387449E+02  0.00000000000E+00 0.  1.
</event>
<event>
12    1  0.8226261E-002  0.3544989E+03  0.7818608E-02  0.1060897E+00
         21   -1    0    0  501  502  0.00000000000E+00  0.00000000000E+00  0.13783116938E+03  0.13783116938E+03  0.00000000000E+00 0. -1.
         21   -1    0    0  502  503 -0.00000000000E+00 -0.00000000000E+00 -0.23374201348E+04  0.23374201348E+04  0.00000000000E+00 0.  1.
         -6    2    1    2    0  503 -0.24509663860E+03  0.18815363037E+03 -0.20680036915E+04  0.20981679469E+04  0.17376799068E+03 0.  0.
        -24    2    3    3    0    0 -0.20481763495E+03  0.10464932056E+03 -0.17508453969E+04  0.17677033622E+04  0.80086385793E+02 0.  0.
          6    2    1    2  501    0  0.24509663860E+03 -0.18815363037E+03 -0.13158527396E+03  0.37708335729E+03  0.17147309744E+03 0.  0.
         24    2    5    5    0    0  0.12355982461E+03 -0.14514527140E+03 -0.13702438385E+03  0.24796097343E+03  0.79842235108E+02 0.  0.
          5    1    5    5  501    0  0.12153681399E+03 -0.43008358971E+02  0.54391098973E+01  0.12912238385E+03  0.47000000000E+01 0. -1.
        -13    1    6    6    0    0 -0.22321281808E+01  0.45386866625E+01 -0.18814193865E+02  0.19482196068E+02  0.00000000000E+00 0.  1.
         14    1    6    6    0    0  0.12579195279E+03 -0.14968395806E+03 -0.11821018999E+03  0.22847877736E+03  0.00000000000E+00 0. -1.
         -5    1    3    3    0  503 -0.40279003653E+02  0.83504309810E+02 -0.31715829459E+03  0.33046458466E+03  0.47000000000E+01 0.  1.
         13    1    4    4    0    0 -0.21213984243E+03  0.10041821988E+03 -0.17057627226E+04  0.17218343699E+04  0.00000000000E+00 0. -1.
        -14    1    4    4    0    0  0.73222074817E+01  0.42311006766E+01 -0.45082674313E+02  0.45868992342E+02  0.00000000000E+00 0.  1.
</event>
<event>
12    1  0.8226261E-002  0.1747096E+03  0.7818608E-02  0.1173516E+00
         21   -1    0    0  501  502  0.00000000000E+00  0.00000000000E+00  0.11968002871E+03  0.11968002871E+03  0.00000000000E+00 0. -1.
         21   -1    0    0  502  503 -0.00000000000E+00 -0.00000000000E+00 -0.25575785178E+03  0.25575785178E+03  0.00000000000E+00 0. -1.
         -6    2    1    2    0  503 -0.31638786084E+02  0.65468300873E+01 -0.89768735234E+02  0.19469505583E+03  0.16971701497E+03 0.  0.
        -24    2    3    3    0    0 -0.65593743325E+02  0.46215739367E+02 -0.86581959064E+02  0.14217070884E+03  0.79231566232E+02 0.  0.
          6    2    1    2  501    0  0.31638786084E+02 -0.65468300873E+01 -0.46309087832E+02  0.18074282466E+03  0.17169613647E+03 0.  0.
         24    2    5    5    0    0  0.82510685826E+01  0.61290269130E+01 -0.94051593495E+02  0.12588756486E+03  0.83044154783E+02 0.  0.
          5    1    5    5  501    0  0.23387717502E+02 -0.12675857000E+02  0.47742505663E+02  0.54855259799E+02  0.47000000000E+01 0. -1.
        -11    1    6    6    0    0  0.22568588289E+02  0.14706921586E+02  0.32788531530E+01  0.27136425665E+02  0.00000000000E+00 0.  1.
         12    1    6    6    0    0 -0.14317519706E+02 -0.85778946729E+01 -0.97330446648E+02  0.98751139194E+02  0.00000000000E+00 0. -1.
         -5    1    3    3    0  503  0.33954957240E+02 -0.39668909280E+02 -0.31867761697E+01  0.52524346993E+02  0.47000000000E+01 0.  1.
         11    1    4    4    0    0 -0.73247893960E+02  0.14553484879E+02 -0.38301052426E+02  0.83928710872E+02  0.00000000000E+00 0. -1.
        -12    1    4    4    0    0  0.76541506356E+01  0.31662254488E+02 -0.48280906638E+02  0.58241997966E+02  0.00000000000E+00 0.  1.
</event>
<event>
12    1  0.8226261E-002  0.2300803E+03  0.7818608E-02  0.1126933E+00
         21   -1    0    0  501  502  0.00000000000E+00  0.00000000000E+00  0.11373509682E+03  0.11373509682E+03  0.00000000000E+00 0.  1.
         21   -1    0    0  502  503 -0.00000000000E+00 -0.00000000000E+00 -0.47199719867E+03  0.47199719867E+03  0.00000000000E+00 0.  1.
         -6    2    1    2    0  503 -0.11075165750E+03  0.10244411303E+03 -0.13458682231E+03  0.26484665786E+03  0.17108306025E+03 0.  0.
        -24    2    3    3    0    0 -0.58610244302E+02 -0.11145748210E+02 -0.85970321584E+02  0.13065635385E+03  0.78235530081E+02 0.  0.
          6    2    1    2  501    0  0.11075165750E+03 -0.10244411303E+03 -0.22367527954E+03  0.32088563763E+03  0.17371308478E+03 0.  0.
         24    2    5    5    0    0  0.84588423347E+02 -0.94569384440E+02 -0.70170230999E+02  0.16489712491E+03  0.78540630560E+02 0.  0.
          5    1    5    5  501    0  0.26163234156E+02 -0.78747285931E+01 -0.15350504854E+03  0.15598851272E+03  0.47000000000E+01 0. -1.
        -11    1    6    6    0    0  0.60402351715E+02 -0.24995132765E+02 -0.63173885950E+02  0.90907318851E+02  0.00000000000E+00 0.  1.
         12    1    6    6    0    0  0.24186071632E+02 -0.69574251676E+02 -0.69963450486E+01  0.73989806063E+02  0.00000000000E+00 0. -1.
         -5    1    3    3    0  503 -0.52141413200E+02  0.11358986124E+03 -0.48616500722E+02  0.13419030401E+03  0.47000000000E+01 0.  1.
         11    1    4    4    0    0 -0.75716887531E+02 -0.18979902434E+02 -0.59358085758E+02  0.98064601660E+02  0.00000000000E+00 0. -1.
        -12    1    4    4    0    0  0.17106643229E+02  0.78341542246E+01 -0.26612235826E+02  0.32591752187E+02  0.00000000000E+00 0.  1.
</event>
<event>
12    1  0.8226261E-002  0.1901250E+03  0.7818608E-02  0.1158517E+00
         21   -1    0    0  503  502  0.00000000000E+00  0.00000000000E+00  0.10856654320E+03  0.10856654320E+03  0.00000000000E+00 0.  1.
         21   -1    0    0  501  503 -0.00000000000E+00 -0.00000000000E+00 -0.34515077459E+03  0.34515077459E+03  0.00000000000E+00 0. -1.
          6    2    1    2  501    0 -0.42190575519E+02  0.68976319502E+02 -0.73645407331E+02  0.20389003591E+03  0.17207476110E+03 0.  0.
         24    2    3    3    0    0 -0.55429831443E+02 -0.81141293378E+01 -0.37053981449E+01  0.98857135898E+02  0.81367671921E+02 0.  0.
         -6    2    1    2    0  502  0.42190575519E+02 -0.68976319502E+02 -0.16293882406E+03  0.24982728187E+03  0.17125078998E+03 0.  0.
        -24    2    5    5    0    0  0.21196301650E+02  0.42665980724E+01 -0.16509061062E+02  0.84693850971E+02  0.80206061070E+02 0.  0.
          5    1    3    3  501    0  0.13239255923E+02  0.77090448840E+02 -0.69940009186E+02  0.10503290001E+03  0.47000000000E+01 0. -1.
        -11    1    4    4    0    0 -0.35395868469E+02  0.35313903187E+02 -0.87726339133E+01  0.50763159562E+02  0.00000000000E+00 0.  1.
         12    1    4    4    0    0 -0.20033962974E+02 -0.43428032525E+02  0.50672357683E+01  0.48093976335E+02  0.00000000000E+00 0. -1.
         -5    1    5    5    0  502  0.20994273870E+02 -0.73242917574E+02 -0.14642976300E+03  0.16513343090E+03  0.47000000000E+01 0.  1.
         13    1    6    6    0    0  0.29444798013E+02 -0.14131511309E+02 -0.41354751753E+02  0.52696406277E+02  0.00000000000E+00 0. -1.
        -14    1    6    6    0    0 -0.82484963634E+01  0.18398109381E+02  0.24845690691E+02  0.31997444694E+02  0.00000000000E+00 0.  1.
</event>
<event>
12    1  0.8226261E-002  0.2316808E+03  0.7818608E-02  0.1125669E+00
         21   -1    0    0  503  502  0.00000000000E+00  0.00000000000E+00  0.12983844096E+04  0.12983844096E+04  0.00000000000E+00 0. -1.
         21   -1    0    0  501  503 -0.00000000000E+00 -0.00000000000E+00 -0.50486085911E+02  0.50486085911E+02  0.00000000000E+00 0. -1.
          6    2    1    2  501    0  0.13989979171E+03 -0.65075329722E+02  0.33491607810E+03  0.40724042538E+03  0.17282718083E+03 0.  0.
         24    2    3    3    0    0  0.16180159415E+03 -0.75756657412E+02  0.23992432532E+03  0.30906047423E+03  0.77690847834E+02 0.  0.
         -6    2    1    2    0  502 -0.13989979171E+03  0.65075329722E+02  0.91298224554E+03  0.94163007009E+03  0.17124210334E+03 0.  0.
        -24    2    5    5    0    0 -0.12240701905E+02 -0.84390391343E+01  0.30980771904E+03  0.32070913707E+03  0.81562709975E+02 0.  0.
          5    1    3    3  501    0 -0.21901802448E+02  0.10681327691E+02  0.94991752778E+02  0.98179951149E+02  0.47000000000E+01 0. -1.
        -13    1    4    4    0    0 -0.20269352472E+01 -0.60105826577E+01  0.43434897877E+02  0.43895625340E+02  0.00000000000E+00 0.  1.
         14    1    4    4    0    0  0.16382852940E+03 -0.69746074755E+02  0.19648942744E+03  0.26516484889E+03  0.00000000000E+00 0. -1.
         -5    1    5    5    0  502 -0.12765908980E+03  0.73514368856E+02  0.60317452650E+03  0.62092093302E+03  0.47000000000E+01 0.  1.
         13    1    6    6    0    0 -0.90483628718E+01  0.31377677841E+02  0.65848490653E+02  0.73501396304E+02  0.00000000000E+00 0. -1.
        -14    1    6    6    0    0 -0.31923390329E+01 -0.39816716976E+02  0.24395922839E+03  0.24720774077E+03  0.00000000000E+00 0.  1.
</event>
<event>
12    1  0.8226261E-002  0.2068129E+03  0.7818608E-02  0.1145075E+00
         21   -1    0    0  503  502  0.00000000000E+00  0.00000000000E+00  0.72006894081E+03  0.72006894081E+03  0.00000000000E+00 0. -1.
         21   -1    0    0  501  503 -0.00000000000E+00 -0.00000000000E+00 -0.65898320184E+02  0.65898320184E+02  0.00000000000E+00 0. -1.
          6    2    1    2  501    0 -0.10884594207E+03  0.32385699999E+02  0.18823608320E+03  0.27619618170E+03  0.16719819108E+03 0.  0.
         24    2    3    3    0    0 -0.36480682120E+02 -0.19357194620E+02  0.15759306173E+03  0.18198820563E+03  0.81108524407E+02 0.  0.
         -6    2    1    2    0  502  0.10884594207E+03 -0.32385699999E+02  0.46593453743E+03  0.50977107929E+03  0.17284469169E+03 0.  0.
        -24    2    5    5    0    0  0.19560352298E+02 -0.33520546777E+02  0.36300734695E+03  0.37342849255E+03  0.78538338892E+02 0.  0.
          5    1    3    3  501    0 -0.72365259946E+02  0.51742894619E+02  0.30643021463E+02  0.94207976069E+02  0.47000000000E+01 0. -1.
        -11    1    4    4    0    0 -0.37250597673E+02 -0.18019658993E+02  0.16720696231E+03  0.17225122172E+03  0.00000000000E+00 0.  1.
         12    1    4    4    0    0  0.76991555288E+00 -0.13375356275E+01 -0.96139005769E+01  0.97369839178E+01  0.00000000000E+00 0. -1.
         -5    1    5    5    0  502  0.89285589768E+02  0.11348467787E+01  0.10292719048E+03  0.13634258674E+03  0.47000000000E+01 0.  1.
         13    1    6    6    0    0  0.29155381223E+02 -0.55931576390E+02  0.25169927362E+03  0.25948198749E+03  0.00000000000E+00 0. -1.
        -14    1    6    6    0    0 -0.95950289251E+01  0.22411029612E+02  0.11130807332E+03  0.11394650506E+03  0.00000000000E+00 0.  1.
</event>
<event>
12    1  0.8226261E-002  0.2116130E+03  0.7818608E-02  0.1140976E+00
         21   -1    0    0  503  502  0.00000000000E+00  0.00000000000E+00  0.41458440945E+03  0.41458440945E+03  0.00000000000E+00 0. -1.
         21   -1    0    0  501  503 -0.00000000000E+00 -0.00000000000E+00 -0.10626538542E+03  0.10626538542E+03  0.00000000000E+00 0.  1.
          6    2    1    2  501    0  0.11116336461E+03 -0.40213423752E+02  0.15428683031E+03  0.25911335023E+03  0.17135019457E+03 0.  0.
         24    2    3    3    0    0  0.13259135363E+03 -0.35360902357E+02  0.72815298034E+02  0.17460059233E+03  0.79702187811E+02 0.  0.
         -6    2    1    2    0  502 -0.11116336461E+03  0.40213423752E+02  0.15403219373E+03  0.26173644463E+03  0.17551534595E+03 0.  0.
        -24    2    5    5    0    0 -0.17338673875E+02 -0.24061040531E+02  0.11532326706E+03  0.14150853459E+03  0.76456825414E+02 0.  0.
          5    1    3    3  501    0 -0.21427989014E+02 -0.48525213958E+01  0.81471532272E+02  0.84512757900E+02  0.47000000000E+01 0. -1.
        -13    1    4    4    0    0  0.21273170491E+02  0.47539194046E+01 -0.15672566351E+02  0.26847287916E+02  0.00000000000E+00 0.  1.
         14    1    4    4    0    0  0.11131818314E+03 -0.40114821761E+02  0.88487864384E+02  0.14775330441E+03  0.00000000000E+00 0. -1.
         -5    1    5    5    0  502 -0.93824690739E+02  0.64274464283E+02  0.38708926667E+02  0.12022791005E+03  0.47000000000E+01 0.  1.
         13    1    6    6    0    0  0.19554652130E+02  0.16633712856E+02  0.49631507167E+02  0.55878003964E+02  0.00000000000E+00 0. -1.
        -14    1    6    6    0    0 -0.36893326005E+02 -0.40694753387E+02  0.65691759892E+02  0.85630530622E+02  0.00000000000E+00 0.  1.
</event>
<event>
12    1  0.8226261E-002  0.2153848E+03  0.7818608E-02  0.1137587E+00
         21   -1    0    0  501  502  0.00000000000E+00  0.00000000000E+00  0.99675246316E+02  0.99675246316E+02  0.00000000000E+00 0. -1.
         21   -1    0    0  502  503 -0.00000000000E+00 -0.00000000000E+00 -0.46306119209E+03  0.46306119209E+03  0.00000000000E+00 0. -1.
         -6    2    1    2    0  503 -0.12327303595E+03 -0.40752667811E+02 -0.18557714093E+03  0.28430523637E+03  0.17185334114E+03 0.  0.
        -24    2    3    3    0    0 -0.63608597305E+02 -0.13204802139E+02 -0.41688654444E+01  0.91303209025E+02  0.64019341519E+02 0.  0.
          6    2    1    2  501    0  0.12327303595E+03  0.40752667811E+02 -0.17780880484E+03  0.27843120204E+03  0.17044336850E+03 0.  0.
         24    2    5    5    0    0  0.41047568092E+02 -0.35618133488E+02 -0.11347765379E+03  0.14899351877E+03  0.79801857409E+02 0.  0.
          5    1    5    5  501    0  0.82225467854E+02  0.76370801299E+02 -0.64331151045E+02  0.12943768327E+03  0.47000000000E+01 0. -1.
        -11    1    6    6    0    0  0.16944752654E+02  0.24495161529E+02 -0.50666459523E+02  0.58772678188E+02  0.00000000000E+00 0.  1.
         12    1    6    6    0    0  0.24102815438E+02 -0.60113295017E+02 -0.62811194270E+02  0.90220840583E+02  0.00000000000E+00 0. -1.
         -5    1    3    3    0  503 -0.59664438641E+02 -0.27547865672E+02 -0.18140827549E+03  0.19300202734E+03  0.47000000000E+01 0.  1.
         11    1    4    4    0    0 -0.61815114175E+02 -0.32820900114E+02  0.37141366509E+01  0.70086479693E+02  0.00000000000E+00 0. -1.
        -12    1    4    4    0    0 -0.17934831298E+01  0.19616097975E+02 -0.78830020953E+01  0.21216729332E+02  0.00000000000E+00 0.  1.
</event>
<event>
12    1  0.8226261E-002  0.2087054E+03  0.7818608E-02  0.1143047E+00
         21   -1    0    0  501  502  0.00000000000E+00  0.00000000000E+00  0.26690964493E+03  0.26690964493E+03  0.00000000000E+00 0.  1.
         21   -1    0    0  502  503 -0.00000000000E+00 -0.00000000000E+00 -0.21123606059E+03  0.21123606059E+03  0.00000000000E+00 0.  1.
         -6    2    1    2    0  503  0.10104886172E+03  0.63222367250E+02 -0.88125831799E+02  0.22654825265E+03  0.17131844143E+03 0.  0.
        -24    2    3    3    0    0  0.43979109356E+02 -0.28812781219E+02 -0.10234857260E+02  0.93069718408E+02  0.76110983177E+02 0.  0.
          6    2    1    2  501    0 -0.10104886172E+03 -0.63222367250E+02  0.14379941614E+03  0.25159745287E+03  0.16856768976E+03 0.  0.
         24    2    5    5    0    0 -0.83219593111E+02 -0.66728399584E+02  0.30163527005E+02  0.13642201981E+03  0.79516973898E+02 0.  0.
          5    1    5    5  501    0 -0.17829268607E+02  0.35060323342E+01  0.11363588913E+03  0.11517543306E+03  0.47000000000E+01 0. -1.
        -11    1    6    6    0    0 -0.39001496259E+02 -0.24365585475E+02  0.53805931469E+02  0.70780482672E+02  0.00000000000E+00 0.  1.
         12    1    6    6    0    0 -0.44218096851E+02 -0.42362814109E+02 -0.23642404465E+02  0.65641537134E+02  0.00000000000E+00 0. -1.
         -5    1    3    3    0  503  0.57069752362E+02  0.92035148469E+02 -0.77890974540E+02  0.13347853424E+03  0.47000000000E+01 0.  1.
         11    1    4    4    0    0  0.60537635532E+02 -0.26423817802E+02  0.10009280475E+02  0.66807253788E+02  0.00000000000E+00 0. -1.
        -12    1    4    4    0    0 -0.16558526176E+02 -0.23889634168E+01 -0.20244137735E+02  0.26262464621E+02  0.00000000000E+00 0.  1.
</event>
<event>
12    1  0.8226261E-002  0.2388913E+03  0.7818608E-02  0.1120930E+00
         21   -1    0    0  503  502  0.00000000000E+00  0.00000000000E+00  0.33764171757E+03  0.33764171757E+03  0.00000000000E+00 0. -1.
         21   -1    0    0  501  503 -0.00000000000E+00 -0.00000000000E+00 -0.32979548275E+03  0.32979548275E+03  0.00000000000E+00 0. -1.
          6    2    1    2  501    0 -0.14215764156E+03  0.77885358821E+02 -0.23029048016E+03  0.33012705355E+03  0.17226503435E+03 0.  0.
         24    2    3    3    0    0 -0.12163977404E+03  0.59336368882E+02 -0.78327427414E+02  0.17559580326E+03  0.79885298624E+02 0.  0.
         -6    2    1    2    0  502  0.14215764156E+03 -0.77885358821E+02  0.23813671498E+03  0.33731014678E+03  0.17548252314E+03 0.  0.
        -24    2    5    5    0    0  0.16444910368E+03 -0.81810321894E+02  0.24130762838E+03  0.31397649489E+03  0.81335302043E+02 0.  0.
          5    1    3    3  501    0 -0.20517867512E+02  0.18548989939E+02 -0.15196305274E+03  0.15453125028E+03  0.47000000000E+01 0. -1.
        -11    1    4    4    0    0 -0.37942713847E+01  0.13623215541E+02  0.13350605766E+02  0.19448063434E+02  0.00000000000E+00 0.  1.
         12    1    4    4    0    0 -0.11784550266E+03  0.45713153341E+02 -0.91678033180E+02  0.15614773983E+03  0.00000000000E+00 0. -1.
         -5    1    5    5    0  502 -0.22291462122E+02  0.39249630732E+01 -0.31709134028E+01  0.23333651889E+02  0.47000000000E+01 0.  1.
         11    1    6    6    0    0  0.10163350270E+03 -0.42697123847E+02  0.20215650110E+03  0.23025999260E+03  0.00000000000E+00 0. -1.
        -12    1    6    6    0    0  0.62815600982E+02 -0.39113198047E+02  0.39151127285E+02  0.83716502291E+02  0.00000000000E+00 0.  1.
</event>
<event>
12    1  0.8226261E-002  0.2002212E+03  0.7818608E-02  0.1149737E+00
         21   -1    0    0  501  502  0.00000000000E+00  0.00000000000E+00  0.10720276669E+03  0.10720276669E+03  0.00000000000E+00 0.  1.
         21   -1    0    0  502  503 -0.00000000000E+00 -0.00000000000E+00 -0.73776316385E+03  0.73776316385E+03  0.00000000000E+00 0.  1.
         -6    2    1    2    0  503  0.90060822443E+02 -0.46834068057E+02 -0.61227672560E+03  0.64391166361E+03  0.17156648901E+03 0.  0.
        -24    2    3    3    0    0 -0.11338950336E+02 -0.20048467770E+02 -0.35199597125E+03  0.36325610356E+03  0.86737074782E+02 0.  0.
          6    2    1    2  501    0 -0.90060822443E+02  0.46834068057E+02 -0.18283671564E+02  0.20105426693E+03  0.17258083304E+03 0.  0.
         24    2    5    5    0    0 -0.15722686671E+02 -0.36088140422E+02 -0.17201233773E+02  0.89584482858E+02  0.78612596766E+02 0.  0.
          5    1    5    5  501    0 -0.74338135772E+02  0.82922208479E+02 -0.10824377907E+01  0.11146978407E+03  0.47000000000E+01 0. -1.
        -13    1    6    6    0    0 -0.14822945892E+02  0.18623204413E+02  0.12962086847E+02  0.27102751944E+02  0.00000000000E+00 0.  1.
         14    1    6    6    0    0 -0.89974077907E+00 -0.54711344835E+02 -0.30163320621E+02  0.62481730913E+02  0.00000000000E+00 0. -1.
         -5    1    3    3    0  503  0.10139977278E+03 -0.26785600288E+02 -0.26028075435E+03  0.28065556005E+03  0.47000000000E+01 0.  1.
         11    1    4    4    0    0 -0.32440752252E+02 -0.27228456124E+02 -0.81542314431E+02  0.91885473675E+02  0.00000000000E+00 0. -1.
        -12    1    4    4    0    0  0.21101801917E+02  0.71799883547E+01 -0.27045365682E+03  0.27137062989E+03  0.00000000000E+00 0.  1.
</event>
<event>
12    1  0.8226261E-002  0.2200086E+03  0.7818608E-02  0.1136976E+00
         21   -1    0    0  503  502  0.00000000000E+00  0.00000000000E+00  0.58163124850E+03  0.58163124850E+03  0.00000000000E+00 0.  1.
         21   -1    0    0  501  503 -0.00000000000E+00 -0.00000000000E+00 -0.79338572049E+02  0.79338572049E+02  0.00000000000E+00 0.  1.
          6    2    1    2  501    0  0.23428747620E+02  0.10835949708E+03  0.18883056736E+03  0.27800469885E+03  0.17128614244E+03 0.  0.
         24    2    3    3    0    0  0.17555267375E+02  0.12612629037E+03  0.84079945568E+02  0.17149207294E+03  0.78256407384E+02 0.  0.
         -6    2    1    2    0  502 -0.23428747620E+02 -0.10835949708E+03  0.31346210910E+03  0.38296512170E+03  0.19003448050E+03 0.  0.
        -24    2    5    5    0    0 -0.67659427338E+02 -0.24633520406E+02  0.89669307439E+02  0.13991841781E+03  0.79699250377E+02 0.  0.
          5    1    3    3  501    0  0.58734802449E+01 -0.17766793299E+02  0.10475062179E+03  0.10651262592E+03  0.47000000000E+01 0. -1.
        -11    1    4    4    0    0 -0.25656048023E+02  0.36712316793E+02  0.48463350017E+02  0.65990327316E+02  0.00000000000E+00 0.  1.
         12    1    4    4    0    0  0.43211315398E+02  0.89413973581E+02  0.35616595552E+02  0.10550174562E+03  0.00000000000E+00 0. -1.
         -5    1    5    5    0  502  0.44230679718E+02 -0.83725976670E+02  0.22379280166E+03  0.24304670389E+03  0.47000000000E+01 0.  1.
         13    1    6    6    0    0 -0.66403805587E+02 -0.36538907640E+02  0.34164119721E+02  0.83136900617E+02  0.00000000000E+00 0. -1.
        -14    1    6    6    0    0 -0.12556217510E+01  0.11905387234E+02  0.55505187717E+02  0.56781517193E+02  0.00000000000E+00 0.  1.
</event>
<event>
12    1  0.8226261E-002  0.1999904E+03  0.7818608E-02  0.1151504E+00
         21   -1    0    0  501  502  0.00000000000E+00  0.00000000000E+00  0.16660724373E+03  0.16660724373E+03  0.00000000000E+00 0. -1.
         21   -1    0    0  502  503 -0.00000000000E+00 -0.00000000000E+00 -0.29043609942E+03  0.29043609942E+03  0.00000000000E+00 0. -1.
         -6    2    1    2    0  503  0.93257592696E+02 -0.39360952020E+02  0.40960187549E+02  0.20414186624E+03  0.17248159742E+03 0.  0.
        -24    2    3    3    0    0  0.69700847039E+02 -0.84500987631E+02 -0.47567626719E+01  0.13555125013E+03  0.79705016361E+02 0.  0.
          6    2    1    2  501    0 -0.93257592696E+02  0.39360952020E+02 -0.16478904324E+03  0.25290147690E+03  0.16296461306E+03 0.  0.
         24    2    5    5    0    0 -0.75917218429E+02 -0.11663164034E+02 -0.16526827564E+03  0.19880463169E+03  0.79436925902E+02 0.  0.
          5    1    5    5  501    0 -0.17340374267E+02  0.51024116053E+02  0.47923240486E+00  0.54096845217E+02  0.47000000000E+01 0.  1.
        -11    1    6    6    0    0 -0.31489250725E+02 -0.44929281764E+02 -0.86977789163E+02  0.10283651627E+03  0.00000000000E+00 0.  1.
         12    1    6    6    0    0 -0.44427967703E+02  0.33266117731E+02 -0.78290486479E+02  0.95968115415E+02  0.00000000000E+00 0. -1.
         -5    1    3    3    0  503  0.23556745657E+02  0.45140035611E+02  0.45716950221E+02  0.68590616110E+02  0.47000000000E+01 0.  1.
         13    1    4    4    0    0  0.85083959225E+01 -0.72803472267E+01  0.29250364620E+02  0.31320601643E+02  0.00000000000E+00 0. -1.
        -14    1    4    4    0    0  0.61192451116E+02 -0.77220640404E+02 -0.34007127292E+02  0.10423064849E+03  0.00000000000E+00 0.  1.
</event>
<event>
12    1  0.8226261E-002  0.1926705E+03  0.7818608E-02  0.1156097E+00
         21   -1    0    0  501  502  0.00000000000E+00  0.00000000000E+00  0.45996297141E+03  0.45996297141E+03  0.00000000000E+00 0. -1.
         21   -1    0    0  502  503 -0.00000000000E+00 -0.00000000000E+00 -0.26413252251E+03  0.26413252251E+03  0.00000000000E+00 0. -1.
         -6    2    1    2    0  503  0.78522496599E+02  0.27639513489E+02 -0.20383519962E+03  0.28041255581E+03  0.17364529269E+03 0.  0.
        -24    2    3    3    0    0  0.97653774305E+02 -0.76579775106E+01 -0.80992159558E+02  0.15108962223E+03  0.81691124244E+02 0.  0.
          6    2    1    2  501    0 -0.78522496599E+02 -0.27639513489E+02  0.39966564852E+03  0.44368293811E+03  0.17375901066E+03 0.  0.
         24    2    5    5    0    0 -0.16099604441E+02 -0.34811407444E+02  0.35595778869E+03  0.36699838595E+03  0.80689755317E+02 0.  0.
          5    1    5    5  501    0 -0.62422892158E+02  0.71718939548E+01  0.43707859830E+02  0.76684552155E+02  0.47000000000E+01 0. -1.
        -13    1    6    6    0    0  0.65438249632E+01 -0.17647260511E+02  0.13021047567E+02  0.22886570919E+02  0.00000000000E+00 0.  1.
         14    1    6    6    0    0 -0.22643429404E+02 -0.17164146932E+02  0.34293674112E+03  0.34411181503E+03  0.00000000000E+00 0. -1.
         -5    1    3    3    0  503 -0.19131277705E+02  0.35297490999E+02 -0.12284304006E+03  0.12932293358E+03  0.47000000000E+01 0.  1.
         11    1    4    4    0    0  0.15279107747E+02  0.67022369165E+01 -0.63509539812E+02  0.65664547210E+02  0.00000000000E+00 0. -1.
        -12    1    4    4    0    0  0.82374666558E+02 -0.14360214427E+02 -0.17482619746E+02  0.85425075019E+02  0.00000000000E+00 0.  1.
</event>
<event>
12    1  0.8226261E-002  0.2809859E+03  0.7818608E-02  0.1095237E+00
         21   -1    0    0  501  502  0.00000000000E+00  0.00000000000E+00  0.36591698785E+03  0.36591698785E+03  0.00000000000E+00 0.  1.
         21   -1    0    0  502  503 -0.00000000000E+00 -0.00000000000E+00 -0.48992537984E+03  0.48992537984E+03  0.00000000000E+00 0. -1.
         -6    2    1    2    0  503  0.14457144082E+03 -0.16906309239E+03 -0.38236371035E+03  0.47413498720E+03  0.17064216474E+03 0.  0.
        -24    2    3    3    0    0  0.18443074024E+01 -0.80849606872E+02 -0.12022649358E+03  0.16286233493E+03  0.74361750770E+02 0.  0.
          6    2    1    2  501    0 -0.14457144082E+03  0.16906309239E+03  0.25835531836E+03  0.38170738050E+03  0.17166776953E+03 0.  0.
         24    2    5    5    0    0 -0.20625256757E+02  0.85783588566E+02  0.17261407167E+03  0.20945238439E+03  0.79312409536E+02 0.  0.
          5    1    5    5  501    0 -0.12394618406E+03  0.83279503821E+02  0.85741246691E+02  0.17225499611E+03  0.47000000000E+01 0. -1.
        -13    1    6    6    0    0 -0.32802979031E+02  0.90782714979E+02  0.11399472650E+03  0.14937313829E+03  0.00000000000E+00 0.  1.
         14    1    6    6    0    0  0.12177722273E+02 -0.49991264127E+01  0.58619345166E+02  0.60079246103E+02  0.00000000000E+00 0. -1.
         -5    1    3    3    0  503  0.14272713341E+03 -0.88213485514E+02 -0.26213721676E+03  0.31127265227E+03  0.47000000000E+01 0.  1.
         11    1    4    4    0    0  0.30596844402E+02 -0.22326153956E+02 -0.18802770193E+02  0.42286737930E+02  0.00000000000E+00 0. -1.
        -12    1    4    4    0    0 -0.28752536999E+02 -0.58523452916E+02 -0.10142372339E+03  0.12057559700E+03  0.00000000000E+00 0.  1.
</event>
<event>
12    1  0.8226261E-002  0.2485578E+03  0.7818608E-02  0.1114259E+00
         21   -1    0    0  503  502  0.00000000000E+00  0.00000000000E+00  0.65018216303E+03  0.65018216303E+03  0.00000000000E+00 0.  1.
         21   -1    0    0  501  503 -0.00000000000E+00 -0.00000000000E+00 -0.96100778483E+02  0.96100778483E+02  0.00000000000E+00 0.  1.
          6    2    1    2  501    0 -0.15123995188E+03 -0.94437466724E+02  0.23564639720E+03  0.34232521972E+03  0.17281601018E+03 0.  0.
         24    2    3    3    0    0 -0.95033129082E+02  0.13150110835E+02  0.99569298859E+02  0.15991535028E+03  0.80340854756E+02 0.  0.
         -6    2    1    2    0  502  0.15123995188E+03  0.94437466724E+02  0.31843498735E+03  0.40395772180E+03  0.17317344388E+03 0.  0.
        -24    2    5    5    0    0  0.32355236573E+02  0.88534339748E+02  0.12158350877E+03  0.17386857155E+03  0.81009505119E+02 0.  0.
          5    1    3    3  501    0 -0.56206822801E+02 -0.10758757756E+03  0.13607709834E+03  0.18240986944E+03  0.47000000000E+01 0. -1.
        -13    1    4    4    0    0 -0.10159299667E+03 -0.44172417854E+00  0.61004583377E+02  0.11850270581E+03  0.00000000000E+00 0.  1.
         14    1    4    4    0    0  0.65598675858E+01  0.13591835014E+02  0.38564715482E+02  0.41412644470E+02  0.00000000000E+00 0. -1.
         -5    1    5    5    0  502  0.11888471531E+03  0.59031269768E+01  0.19685147858E+03  0.23008915025E+03  0.47000000000E+01 0.  1.
         11    1    6    6    0    0 -0.12677430045E+02  0.67994124078E+02  0.95513162630E+02  0.11792659741E+03  0.00000000000E+00 0. -1.
        -12    1    6    6    0    0  0.45032666618E+02  0.20540215670E+02  0.26070346140E+02  0.55941974137E+02  0.00000000000E+00 0.  1.
</event>
<event>
12    1  0.8226261E-002  0.2296270E+03  0.7818608E-02  0.1127236E+00
         21   -1    0    0  501  502  0.00000000000E+00  0.00000000000E+00  0.29043533893E+03  0.29043533893E+03  0.00000000000E+00 0.  1.
         21   -1    0    0  502  503 -0.00000000000E+00 -0.00000000000E+00 -0.18483442740E+03  0.18483442740E+03  0.00000000000E+00 0. -1.
         -6    2    1    2    0  503  0.26651531353E+02 -0.14871365507E+03  0.14837604574E+02  0.23010589315E+03  0.17292342880E+03 0.  0.
        -24    2    3    3    0    0  0.62138943041E+02 -0.15995554312E+03  0.12853767780E+02  0.19253247111E+03  0.86351080305E+02 0.  0.
          6    2    1    2  501    0 -0.26651531353E+02  0.14871365507E+03  0.90763306954E+02  0.24516387318E+03  0.17041505655E+03 0.  0.
         24    2    5    5    0    0 -0.17991704165E+02  0.14787394763E+03  0.12441389462E+03  0.21009038226E+03  0.80428513221E+02 0.  0.
          5    1    5    5  501    0 -0.86598271882E+01  0.83970743742E+00 -0.33650587662E+02  0.35073490923E+02  0.47000000000E+01 0. -1.
        -13    1    6    6    0    0  0.62699666784E+01  0.18746330605E+02  0.61149957041E+02  0.64265501160E+02  0.00000000000E+00 0.  1.
         14    1    6    6    0    0 -0.24261670843E+02  0.12912761702E+03  0.63263937575E+02  0.14582488110E+03  0.00000000000E+00 0. -1.
         -5    1    3    3    0  503 -0.35487411688E+02  0.11241888052E+02  0.19838367938E+01  0.37573422039E+02  0.47000000000E+01 0.  1.
         11    1    4    4    0    0  0.65479028679E+02 -0.54144550847E+02  0.16733926536E+02  0.86597689810E+02  0.00000000000E+00 0. -1.
        -12    1    4    4    0    0 -0.33400856376E+01 -0.10581099227E+03 -0.38801587558E+01  0.10593478130E+03  0.00000000000E+00 0.  1.
</event>
<event>
12    1  0.8226261E-002  0.1776421E+03  0.7818608E-02  0.1170457E+00
         21   -1    0    0  501  502  0.00000000000E+00  0.00000000000E+00  0.17034050024E+04  0.17034050024E+04  0.00000000000E+00 0. -1.
         21   -1    0    0  502  503 -0.00000000000E+00 -0.00000000000E+00 -0.80874297502E+02  0.80874297502E+02  0.00000000000E+00 0. -1.
         -6    2    1    2    0  503  0.23579425722E+02  0.37039910611E+02  0.26269985116E+02  0.17816442271E+03  0.17065903171E+03 0.  0.
        -24    2    3    3    0    0  0.41910949136E+02  0.66406315667E+02 -0.25814924008E+02  0.11544793161E+03  0.80594591595E+02 0.  0.
          6    2    1    2  501    0 -0.23579425722E+02 -0.37039910611E+02  0.15962607197E+04  0.16061148772E+04  0.17213009305E+03 0.  0.
         24    2    5    5    0    0  0.45194454276E+02 -0.27766364110E+02  0.11963920181E+04  0.12002418505E+04  0.80082014102E+02 0.  0.
          5    1    5    5  501    0 -0.68773879998E+02 -0.92735465016E+01  0.39986870165E+03  0.40587302669E+03  0.47000000000E+01 0. -1.
        -11    1    6    6    0    0  0.40157527626E+02 -0.50533137958E+02  0.61402761588E+03  0.61741083415E+03  0.00000000000E+00 0.  1.
         12    1    6    6    0    0  0.50369266501E+01  0.22766773848E+02  0.58236440222E+03  0.58283101633E+03  0.00000000000E+00 0. -1.
         -5    1    3    3    0  503 -0.18331523414E+02 -0.29366405056E+02  0.52084909124E+02  0.62716491093E+02  0.47000000000E+01 0.  1.
         13    1    4    4    0    0 -0.30030015558E+01  0.39682347774E+02 -0.44726977906E+02  0.59868266183E+02  0.00000000000E+00 0. -1.
        -14    1    4    4    0    0  0.44913950692E+02  0.26723967892E+02  0.18912053898E+02  0.55579665430E+02  0.00000000000E+00 0.  1.
</event>
<event>
12    1  0.8226261E-002  0.2460545E+03  0.7818608E-02  0.1116097E+00
         21   -1    0    0  503  502  0.00000000000E+00  0.00000000000E+00  0.28914252791E+03  0.28914252791E+03  0.00000000000E+00 0. -1.
         21   -1    0    0  501  503 -0.00000000000E+00 -0.00000000000E+00 -0.21706450200E+03  0.21706450200E+03  0.00000000000E+00 0.  1.
          6    2    1    2  501    0  0.56711755310E+02  0.16758830539E+03 -0.15932638046E+02  0.24488599012E+03  0.16856226122E+03 0.  0.
         24    2    3    3    0    0  0.93852349803E+02  0.12365905597E+03 -0.45138884578E+02  0.18019984361E+03  0.79590445712E+02 0.  0.
         -6    2    1    2    0  502 -0.56711755310E+02 -0.16758830539E+03  0.88010663956E+02  0.26132103978E+03  0.17099925605E+03 0.  0.
        -24    2    5    5    0    0  0.51700744027E+01 -0.11229987565E+03  0.10160903714E+03  0.17710003846E+03  0.91662617527E+02 0.  0.
          5    1    3    3  501    0 -0.37140594494E+02  0.43929249419E+02  0.29206246532E+02  0.64686146510E+02  0.47000000000E+01 0. -1.
        -13    1    4    4    0    0  0.14525581848E+02  0.12987995824E+02 -0.39352338565E+02  0.43912266100E+02  0.00000000000E+00 0.  1.
         14    1    4    4    0    0  0.79326767956E+02  0.11067106015E+03 -0.57865460131E+01  0.13628757751E+03  0.00000000000E+00 0. -1.
         -5    1    5    5    0  502 -0.61881829712E+02 -0.55288429741E+02 -0.13598373182E+02  0.84221001330E+02  0.47000000000E+01 0.  1.
         13    1    6    6    0    0 -0.23331641575E+02 -0.11834660858E+02  0.58573050702E+02  0.64150034800E+02  0.00000000000E+00 0. -1.
        -14    1    6    6    0    0  0.28501715978E+02 -0.10046521479E+03  0.43035986436E+02  0.11295000366E+03  0.00000000000E+00 0.  1.
</event>
<event>
12    1  0.8226261E-002  0.1931262E+03  0.7818608E-02  0.1155852E+00
         21   -1    0    0  501  502  0.00000000000E+00  0.00000000000E+00  0.57602881848E+03  0.57602881848E+03  0.00000000000E+00 0. -1.
         21   -1    0    0  502  503 -0.00000000000E+00 -0.00000000000E+00 -0.79064750235E+02  0.79064750235E+02  0.00000000000E+00 0. -1.
         -6    2    1    2    0  503  0.75035420102E+02 -0.46227696911E+02  0.10821439748E+03  0.22137766505E+03  0.17184411695E+03 0.  0.
        -24    2    3    3    0    0  0.71248993890E+02 -0.93219873824E+02  0.60580466601E+02  0.15419371544E+03  0.79620003399E+02 0.  0.
          6    2    1    2  501    0 -0.75035420102E+02  0.46227696911E+02  0.38874967076E+03  0.43371590366E+03  0.17092648812E+03 0.  0.
         24    2    5    5    0    0 -0.11470837802E+03  0.22508062475E+02  0.33094295663E+03  0.35955209277E+03  0.78037439754E+02 0.  0.
          5    1    5    5  501    0  0.39672957920E+02  0.23719634436E+02  0.57806714123E+02  0.74163810889E+02  0.47000000000E+01 0. -1.
        -11    1    6    6    0    0 -0.41656497021E+02 -0.89935217028E+01  0.41912461574E+02  0.59772917043E+02  0.00000000000E+00 0.  1.
         12    1    6    6    0    0 -0.73051881001E+02  0.31501584178E+02  0.28903049506E+03  0.29977917572E+03  0.00000000000E+00 0. -1.
         -5    1    3    3    0  503  0.37864262121E+01  0.46992176912E+02  0.47633930884E+02  0.67183949615E+02  0.47000000000E+01 0.  1.
         11    1    4    4    0    0  0.56373796617E+02 -0.26883224182E+02  0.59411030026E+02  0.86199670395E+02  0.00000000000E+00 0. -1.
        -12    1    4    4    0    0  0.14875197273E+02 -0.66336649641E+02  0.11694365746E+01  0.67994045044E+02  0.00000000000E+00 0.  1.
</event>
<event>
12    1  0.8226261E-002  0.1890149E+03  0.7818608E-02  0.1159744E+00
         21   -1    0    0  503  502  0.00000000000E+00  0.00000000000E+00  0.29345971330E+03  0.29345971330E+03  0.00000000000E+00 0. -1.
         21   -1    0    0  501  503 -0.00000000000E+00 -0.00000000000E+00 -0.27148793403E+03  0.27148793403E+03  0.00000000000E+00 0. -1.
          6    2    1    2  501    0 -0.54324222364E+02  0.56256924257E+02 -0.19954935811E+03  0.27485736835E+03  0.17207749403E+03 0.  0.
         24    2    3    3    0    0 -0.71314547746E+02 -0.12301391113E+02 -0.74342267865E+02  0.13102476005E+03  0.80022659359E+02 0.  0.
         -6    2    1    2    0  502  0.54324222364E+02 -0.56256924257E+02  0.22152113738E+03  0.29009027899E+03  0.17019046094E+03 0.  0.
        -24    2    5    5    0    0  0.32777304416E+02 -0.91719092344E+02  0.94463350083E+02  0.15634572265E+03  0.77678291022E+02 0.  0.
          5    1    3    3  501    0  0.16990325382E+02  0.68558315370E+02 -0.12520709024E+03  0.14383260830E+03  0.47000000000E+01 0. -1.
        -13    1    4    4    0    0 -0.12816499849E+02 -0.31927657630E+02  0.10615198526E-01  0.34404041954E+02  0.00000000000E+00 0.  1.
         14    1    4    4    0    0 -0.58498047897E+02  0.19626266517E+02 -0.74352883064E+02  0.96620718094E+02  0.00000000000E+00 0. -1.
         -5    1    5    5    0  502  0.21546917948E+02  0.35462168087E+02  0.12705778730E+03  0.13374455634E+03  0.47000000000E+01 0.  1.
         11    1    6    6    0    0 -0.30984629496E+01  0.20579578977E+01  0.43662167694E+02  0.43820321212E+02  0.00000000000E+00 0. -1.
        -12    1    6    6    0    0  0.35875767366E+02 -0.93777050242E+02  0.50801182389E+02  0.11252540144E+03  0.00000000000E+00 0.  1.
</event>
<event>
12    1  0.8226261E-002  0.2199801E+03  0.7818608E-02  0.1133925E+00
         21   -1    0    0  501  502  0.00000000000E+00  0.00000000000E+00  0.72198336350E+02  0.72198336350E+02  0.00000000000E+00 0. -1.
         21   -1    0    0  502  503 -0.00000000000E+00 -0.00000000000E+00 -0.90145066947E+03  0.90145066947E+03  0.00000000000E+00 0. -1.
         -6    2    1    2    0  503 -0.10936330796E+03 -0.86464835061E+02 -0.66150854531E+03  0.69712611408E+03  0.17016099019E+03 0.  0.
        -24    2    3    3    0    0 -0.88097887150E+02 -0.15729224305E+01 -0.48574063952E+03  0.50072015271E+03  0.83743600662E+02 0.  0.
          6    2    1    2  501    0  0.10936330796E+03  0.86464835061E+02 -0.16774378781E+03  0.27652289174E+03  0.16997185202E+03 0.  0.
         24    2    5    5    0    0  0.33714303440E+02  0.34933761179E+02 -0.15829681682E+03  0.18438409035E+03  0.81133153732E+02 0.  0.
          5    1    5    5  501    0  0.75649004517E+02  0.51531073883E+02 -0.94469709909E+01  0.92138801386E+02  0.47000000000E+01 0. -1.
        -13    1    6    6    0    0  0.17239524394E+01  0.42862238050E+02 -0.31094126975E+02  0.52981017308E+02  0.00000000000E+00 0.  1.
         14    1    6    6    0    0  0.31990351001E+02 -0.79284768714E+01 -0.12720268984E+03  0.13140307305E+03  0.00000000000E+00 0. -1.
         -5    1    3    3    0  503 -0.21265420807E+02 -0.84891912631E+02 -0.17576790579E+03  0.19640596136E+03  0.47000000000E+01 0.  1.
         11    1    4    4    0    0 -0.47326264439E+02 -0.42441265160E+02 -0.27092792536E+03  0.27828578302E+03  0.00000000000E+00 0. -1.
        -12    1    4    4    0    0 -0.40771622711E+02  0.40868342730E+02 -0.21481271416E+03  0.22243436969E+03  0.00000000000E+00 0.  1.
</event>
<event>
12    1  0.8226261E-002  0.2264555E+03  0.7818608E-02  0.1129273E+00
         21   -1    0    0  503  502  0.00000000000E+00  0.00000000000E+00  0.17729185166E+03  0.17729185166E+03  0.00000000000E+00 0.  1.
         21   -1    0    0  501  503 -0.00000000000E+00 -0.00000000000E+00 -0.29446357761E+03  0.29446357761E+03  0.00000000000E+00 0.  1.
          6    2    1    2  501    0  0.50568447907E+02 -0.13949805142E+03 -0.24799148658E+02  0.22718480243E+03  0.17023825189E+03 0.  0.
         24    2    3    3    0    0  0.31770900125E+02 -0.23307923260E+02 -0.56079909460E+02  0.10530752940E+03  0.79950422906E+02 0.  0.
         -6    2    1    2    0  502 -0.50568447907E+02  0.13949805142E+03 -0.92372577297E+02  0.24457062684E+03  0.17107081634E+03 0.  0.
        -24    2    5    5    0    0 -0.64363525584E+02  0.20725636074E+02 -0.60606728749E+02  0.12076291323E+03  0.79613379699E+02 0.  0.
          5    1    3    3  501    0  0.18797547782E+02 -0.11619012816E+03  0.31280760802E+02  0.12187727302E+03  0.47000000000E+01 0. -1.
        -13    1    4    4    0    0  0.49806474445E+01 -0.49224984396E+02 -0.43753368051E+02  0.66047431090E+02  0.00000000000E+00 0.  1.
         14    1    4    4    0    0  0.26790252681E+02  0.25917061136E+02 -0.12326541409E+02  0.39260098315E+02  0.00000000000E+00 0. -1.
         -5    1    5    5    0  502  0.13795077676E+02  0.11877241534E+03 -0.31765848548E+02  0.12380771361E+03  0.47000000000E+01 0.  1.
         13    1    6    6    0    0 -0.38290031857E+02 -0.11555795435E+02 -0.67732301618E+02  0.78659567951E+02  0.00000000000E+00 0. -1.
        -14    1    6    6    0    0 -0.26073493727E+02  0.32281431508E+02  0.71255728694E+01  0.42103345284E+02  0.00000000000E+00 0.  1.
</event>
<event>
12    1  0.8226261E-002  0.2856979E+03  0.7818608E-02  0.1092698E+00
         21   -1    0    0  503  502  0.00000000000E+00  0.00000000000E+00  0.92285078630E+03  0.92285078630E+03  0.00000000000E+00 0. -1.
         21   -1    0    0  501  503 -0.00000000000E+00 -0.00000000000E+00 -0.12685045887E+03  0.12685045887E+03  0.00000000000E+00 0.  1.
          6    2    1    2  501    0  0.43723142845E+02 -0.22366256479E+03  0.10880181362E+03  0.30571410704E+03  0.17229806873E+03 0.  0.
         24    2    3    3    0    0 -0.41141524362E+02 -0.90098950611E+02  0.57134717102E+02  0.13918233940E+03  0.79353019939E+02 0.  0.
         -6    2    1    2    0  502 -0.43723142845E+02  0.22366256479E+03  0.68719851381E+03  0.74398713813E+03  0.17128458253E+03 0.  0.
        -24    2    5    5    0    0 -0.79319059607E+02  0.18629596621E+03  0.43127462082E+03  0.48286942333E+03  0.78532675872E+02 0.  0.
          5    1    3    3  501    0  0.84864667207E+02 -0.13356361417E+03  0.51667096520E+02  0.16653176764E+03  0.47000000000E+01 0. -1.
        -11    1    4    4    0    0 -0.49891994740E+02 -0.98494882216E+02  0.61391015361E+02  0.12633016160E+03  0.00000000000E+00 0.  1.
         12    1    4    4    0    0  0.87504703774E+01  0.83959316050E+01 -0.42562982591E+01  0.12852177800E+02  0.00000000000E+00 0. -1.
         -5    1    5    5    0  502  0.35595916762E+02  0.37366598578E+02  0.25592389299E+03  0.26111771480E+03  0.47000000000E+01 0.  1.
         13    1    6    6    0    0 -0.58868756552E+02  0.17195670254E+03  0.41500698682E+03  0.45306228839E+03  0.00000000000E+00 0. -1.
        -14    1    6    6    0    0 -0.20450303055E+02  0.14339263668E+02  0.16267633998E+02  0.29807134942E+02  0.00000000000E+00 0.  1.
</event>
<event>
12    1  0.8226261E-002  0.2083676E+03  0.7818608E-02  0.1142940E+00
         21   -1    0    0  501  502  0.00000000000E+00  0.00000000000E+00  0.20604869781E+03  0.20604869781E+03  0.00000000000E+00 0. -1.
         21   -1    0    0  502  503 -0.00000000000E+00 -0.00000000000E+00 -0.52948591336E+03  0.52948591336E+03  0.00000000000E+00 0. -1.
         -6    2    1    2    0  503 -0.11765855810E+03  0.31708779327E+01 -0.44730003119E+03  0.49345148477E+03  0.17194027787E+03 0.  0.
        -24    2    3    3    0    0 -0.70653406237E+02 -0.12355882039E+02 -0.41538445415E+03  0.43436461114E+03  0.10480362125E+03 0.  0.
          6    2    1    2  501    0  0.11765855810E+03 -0.31708779327E+01  0.12386281565E+03  0.24208312640E+03  0.17148951054E+03 0.  0.
         24    2    5    5    0    0  0.37713866591E+02  0.58825755722E+02  0.64198497368E+02  0.12453884895E+03  0.80657749560E+02 0.  0.
          5    1    5    5  501    0  0.79944691509E+02 -0.61996633655E+02  0.59664318278E+02  0.11754427745E+03  0.47000000000E+01 0. -1.
        -13    1    6    6    0    0 -0.16253445724E+02  0.25273170784E+02 -0.51404525156E+01  0.30484945653E+02  0.00000000000E+00 0.  1.
         14    1    6    6    0    0  0.53967312315E+02  0.33552584939E+02  0.69338949884E+02  0.94053903298E+02  0.00000000000E+00 0. -1.
         -5    1    3    3    0  503 -0.47005151863E+02  0.15526759972E+02 -0.31915577038E+02  0.59086873623E+02  0.47000000000E+01 0.  1.
         13    1    4    4    0    0 -0.10837088090E+02 -0.47883257713E+02 -0.10004394719E+03  0.11144074756E+03  0.00000000000E+00 0. -1.
        -14    1    4    4    0    0 -0.59816318147E+02  0.35527375674E+02 -0.31534050696E+03  0.32292386358E+03  0.00000000000E+00 0.  1.
</event>
<event>
12    1  0.8226261E-002  0.3971979E+03  0.7818608E-02  0.1044757E+00
         21   -1    0    0  501  502  0.00000000000E+00  0.00000000000E+00  0.26238916294E+03  0.26238916294E+03  0.00000000000E+00 0.  1.
         21   -1    0    0  502  503 -0.00000000000E+00 -0.00000000000E+00 -0.68178329178E+03  0.68178329178E+03  0.00000000000E+00 0. -1.
         -6    2    1    2    0  503 -0.12468892062E+03 -0.33521492939E+03 -0.47418960699E+02  0.39999261108E+03  0.17271119035E+03 0.  0.
        -24    2    3    3    0    0 -0.13574901312E+03 -0.17698598826E+03 -0.33360359920E+02  0.24068643508E+03  0.84054814339E+02 0.  0.
          6    2    1    2  501    0  0.12468892062E+03  0.33521492939E+03 -0.37197516815E+03  0.54417984364E+03  0.17277094866E+03 0.  0.
         24    2    5    5    0    0 -0.27996735782E+01  0.17792531583E+03 -0.17223976771E+03  0.25973356687E+03  0.78292604957E+02 0.  0.
          5    1    5    5  501    0  0.12748859420E+03  0.15728961355E+03 -0.19973540044E+03  0.28444627677E+03  0.47000000000E+01 0. -1.
        -13    1    6    6    0    0  0.27345659101E+02  0.43689462147E+02 -0.22065490112E+02  0.56066389471E+02  0.00000000000E+00 0.  1.
         14    1    6    6    0    0 -0.30145332679E+02  0.13423585369E+03 -0.15017427760E+03  0.20366717740E+03  0.00000000000E+00 0. -1.
         -5    1    3    3    0  503  0.11060092494E+02 -0.15822894112E+03 -0.14058600779E+02  0.15930617600E+03  0.47000000000E+01 0.  1.
         11    1    4    4    0    0 -0.29608519255E+02 -0.48301434252E+02 -0.46592992812E+02  0.73352572841E+02  0.00000000000E+00 0. -1.
        -12    1    4    4    0    0 -0.10614049386E+03 -0.12868455401E+03  0.13232632892E+02  0.16733386224E+03  0.00000000000E+00 0.  1.
</event>
<event>
12    1  0.8226261E-002  0.2766360E+03  0.7818608E-02  0.1097938E+00
         21   -1    0    0  503  502  0.00000000000E+00  0.00000000000E+00  0.16465152443E+04  0.16465152443E+04  0.00000000000E+00 0. -1.
         21   -1    0    0  501  503 -0.00000000000E+00 -0.00000000000E+00 -0.59879521497E+02  0.59879521497E+02  0.00000000000E+00 0.  1.
          6    2    1    2  501    0  0.21342571317E+02  0.21204551941E+03  0.37941652971E+03  0.46788532633E+03  0.17187486124E+03 0.  0.
         24    2    3    3    0    0  0.51389385902E+02  0.17345640930E+03  0.20012851233E+03  0.28198693026E+03  0.82080524362E+02 0.  0.
         -6    2    1    2    0  502 -0.21342571317E+02 -0.21204551941E+03  0.12072191931E+04  0.12385094395E+04  0.17637642649E+03 0.  0.
        -24    2    5    5    0    0 -0.46011841768E+02 -0.13247061477E+03  0.10076357935E+04  0.10221847721E+04  0.99329061381E+02 0.  0.
          5    1    3    3  501    0 -0.30046814584E+02  0.38589110112E+02  0.17928801738E+03  0.18589839607E+03  0.47000000000E+01 0. -1.
        -11    1    4    4    0    0 -0.10333624370E+02  0.75899230264E+02  0.45763365494E+02  0.89228709329E+02  0.00000000000E+00 0.  1.
         12    1    4    4    0    0  0.61723010272E+02  0.97557179034E+02  0.15436514684E+03  0.19275822093E+03  0.00000000000E+00 0. -1.
         -5    1    5    5    0  502  0.24669270451E+02 -0.79574904644E+02  0.19958339953E+03  0.21632466739E+03  0.47000000000E+01 0.  1.
         11    1    6    6    0    0 -0.28127376891E+02 -0.10835711035E+03  0.95539849388E+03  0.96193487035E+03  0.00000000000E+00 0. -1.
        -12    1    6    6    0    0 -0.17884464877E+02 -0.24113504416E+02  0.52237299669E+02  0.60249901708E+02  0.00000000000E+00 0.  1.
</event>
<event>
12    1  0.8226261E-002  0.1824587E+03  0.7818608E-02  0.1165498E+00
         21   -1    0    0  503  502  0.00000000000E+00  0.00000000000E+00  0.44642192280E+02  0.44642192280E+02  0.00000000000E+00 0. -1.
         21   -1    0    0  501  503 -0.00000000000E+00 -0.00000000000E+00 -0.89231351495E+03  0.89231351495E+03  0.00000000000E+00 0. -1.
          6    2    1    2  501    0  0.61648650350E+02 -0.12825736634E+01 -0.61408452785E+03  0.64055400237E+03  0.17148592225E+03 0.  0.
         24    2    3    3    0    0 -0.15130112364E+02 -0.20045986583E+01 -0.47142127422E+03  0.47847256094E+03  0.80405441743E+02 0.  0.
         -6    2    1    2    0  502 -0.61648650350E+02  0.12825736634E+01 -0.23358679482E+03  0.29640170485E+03  0.17172355354E+03 0.  0.
        -24    2    5    5    0    0 -0.89734308286E+02  0.76520197621E+01 -0.23830651839E+03  0.26684261461E+03  0.79398896549E+02 0.  0.
          5    1    3    3  501    0  0.76778762714E+02  0.72202499486E+00 -0.14266325362E+03  0.16208144144E+03  0.47000000000E+01 0. -1.
        -11    1    4    4    0    0 -0.39236707085E+02  0.10284981428E+02 -0.13492769101E+03  0.14089280261E+03  0.00000000000E+00 0.  1.
         12    1    4    4    0    0  0.24106594721E+02 -0.12289580086E+02 -0.33649358322E+03  0.33757975833E+03  0.00000000000E+00 0. -1.
         -5    1    5    5    0  502  0.28085657936E+02 -0.63694460987E+01  0.47197235764E+01  0.29559090242E+02  0.47000000000E+01 0.  1.
         11    1    6    6    0    0 -0.21606780337E+02 -0.10453110605E+01 -0.16491366807E+03  0.16632637659E+03  0.00000000000E+00 0. -1.
        -12    1    6    6    0    0 -0.68127527948E+02  0.86973308225E+01 -0.73392850320E+02  0.10051623802E+03  0.00000000000E+00 0.  1.
</event>
<event>
12    1  0.8226261E-002  0.1914582E+03  0.7818608E-02  0.1157200E+00
         21   -1    0    0  503  502  0.00000000000E+00  0.00000000000E+00  0.40752936722E+03  0.40752936722E+03  0.00000000000E+00 0. -1.
         21   -1    0    0  501  503 -0.00000000000E+00 -0.00000000000E+00 -0.15401344717E+03  0.15401344717E+03  0.00000000000E+00 0. -1.
          6    2    1    2  501    0 -0.78639104690E+02 -0.31990420696E+02 -0.54510777815E+02  0.19886294073E+03  0.17136962535E+03 0.  0.
         24    2    3    3    0    0  0.22032126081E+02  0.42404412287E+01 -0.33152968987E+02  0.89658462527E+02  0.80225461223E+02 0.  0.
         -6    2    1    2    0  502  0.78639104690E+02  0.31990420696E+02  0.30802669787E+03  0.36267987367E+03  0.17160637622E+03 0.  0.
        -24    2    5    5    0    0  0.13825298948E+02  0.36630733646E+02  0.61219976657E+02  0.10741920385E+03  0.79107839534E+02 0.  0.
          5    1    3    3  501    0 -0.10067123077E+03 -0.36230861924E+02 -0.21357808828E+02  0.10920447820E+03  0.47000000000E+01 0. -1.
        -11    1    4    4    0    0 -0.19072253250E+02 -0.99389477737E+01  0.13887287793E+02  0.25600591577E+02  0.00000000000E+00 0.  1.
         12    1    4    4    0    0  0.41104379330E+02  0.14179389002E+02 -0.47040256780E+02  0.64057870949E+02  0.00000000000E+00 0. -1.
         -5    1    5    5    0  502  0.64813805743E+02 -0.46403129503E+01  0.24680672121E+03  0.25526066981E+03  0.47000000000E+01 0.  1.
         11    1    6    6    0    0 -0.19673529249E+02 -0.90043174303E+01  0.42678896243E+02  0.47849907732E+02  0.00000000000E+00 0. -1.
        -12    1    6    6    0    0  0.33498828196E+02  0.45635051076E+02  0.18541080415E+02  0.59569296120E+02  0.00000000000E+00 0.  1.
</event>
<event>
12    1  0.8226261E-002  0.3770441E+03  0.7818608E-02  0.1052147E+00
         21   -1    0    0  503  502  0.00000000000E+00  0.00000000000E+00  0.21976865942E+03  0.21976865942E+03  0.00000000000E+00 0. -1.
         21   -1    0    0  501  503 -0.00000000000E+00 -0.00000000000E+00 -0.69295683701E+03  0.69295683701E+03  0.00000000000E+00 0. -1.
          6    2    1    2  501    0 -0.30019299762E+03 -0.14987421556E+03 -0.35730055741E+03  0.51944770175E+03  0.17200032040E+03 0.  0.
         24    2    3    3    0    0 -0.16336671827E+03 -0.13437203500E+02 -0.18657761742E+03  0.26156225971E+03  0.82063178733E+02 0.  0.
         -6    2    1    2    0  502  0.30019299762E+03  0.14987421556E+03 -0.11588762018E+03  0.39327779468E+03  0.16929077639E+03 0.  0.
        -24    2    5    5    0    0  0.11347609118E+03  0.65717614462E+01 -0.27803311321E+02  0.14192200706E+03  0.80304549369E+02 0.  0.
          5    1    3    3  501    0 -0.13682627935E+03 -0.13643701206E+03 -0.17072293999E+03  0.25788544204E+03  0.47000000000E+01 0. -1.
        -11    1    4    4    0    0  0.43780389949E+01 -0.21982118110E+00  0.49549982969E+01  0.66157051714E+01  0.00000000000E+00 0.  1.
         12    1    4    4    0    0 -0.16774475726E+03 -0.13217382319E+02 -0.19153261572E+03  0.25494655454E+03  0.00000000000E+00 0. -1.
         -5    1    5    5    0  502  0.18671690644E+03  0.14330245411E+03 -0.88084308858E+02  0.25135578763E+03  0.47000000000E+01 0.  1.
         13    1    6    6    0    0  0.75944812875E+02  0.42280158593E+02 -0.22896052096E+02  0.89885792063E+02  0.00000000000E+00 0. -1.
        -14    1    6    6    0    0  0.37531278304E+02 -0.35708397147E+02 -0.49072592247E+01  0.52036214995E+02  0.00000000000E+00 0.  1.
</event>
<event>
12    1  0.8226261E-002  0.1898588E+03  0.7818608E-02  0.1159037E+00
         21   -1    0    0  503  502  0.00000000000E+00  0.00000000000E+00  0.53298235358E+03  0.53298235358E+03  0.00000000000E+00 0.  1.
         21   -1    0    0  501  503 -0.00000000000E+00 -0.00000000000E+00 -0.83583056164E+03  0.83583056164E+03  0.00000000000E+00 0.  1.
          6    2    1    2  501    0  0.61007882158E+02  0.47802639791E+02 -0.80791921062E+03  0.82992758486E+03  0.17331846748E+03 0.  0.
         24    2    3    3    0    0  0.88217809078E+02  0.38754600938E+02 -0.36181466560E+03  0.38287769702E+03  0.80007360296E+02 0.  0.
         -6    2    1    2    0  502 -0.61007882158E+02 -0.47802639791E+02  0.50507100256E+03  0.53888533036E+03  0.17115381268E+03 0.  0.
        -24    2    5    5    0    0 -0.47502365992E+02 -0.79260472294E+02  0.21961217951E+03  0.25134259641E+03  0.80030582512E+02 0.  0.
          5    1    3    3  501    0 -0.27209926920E+02  0.90480388532E+01 -0.44610454503E+03  0.44704988785E+03  0.47000000000E+01 0. -1.
        -11    1    4    4    0    0  0.25661666285E+02 -0.17531401801E+02 -0.17831024361E+03  0.18099838160E+03  0.00000000000E+00 0.  1.
         12    1    4    4    0    0  0.62556142793E+02  0.56286002739E+02 -0.18350442199E+03  0.20187931542E+03  0.00000000000E+00 0. -1.
         -5    1    5    5    0  502 -0.13505516166E+02  0.31457832502E+02  0.28545882304E+03  0.28754273395E+03  0.47000000000E+01 0.  1.
         11    1    6    6    0    0 -0.50580491824E+02 -0.30044437057E+02  0.58952400917E+02  0.83285292370E+02  0.00000000000E+00 0. -1.
        -12    1    6    6    0    0  0.30781258322E+01 -0.49216035237E+02  0.16065977860E+03  0.16805730404E+03  0.00000000000E+00 0.  1.
</event>
<event>
12    1  0.8226261E-002  0.1830291E+03  0.7818608E-02  0.1165058E+00
         21   -1    0    0  503  502  0.00000000000E+00  0.00000000000E+00  0.18118301821E+03  0.18118301821E+03  0.00000000000E+00 0. -1.
         21   -1    0    0  501  503 -0.00000000000E+00 -0.00000000000E+00 -0.18538008276E+03  0.18538008276E+03  0.00000000000E+00 0. -1.
          6    2    1    2  501    0  0.59851714672E+02  0.18238265192E+02 -0.16500179473E+02  0.18312099001E+03  0.17130726486E+03 0.  0.
         24    2    3    3    0    0  0.70831041982E+02  0.60539806323E+02  0.23002334646E+02  0.12402357356E+03  0.78553387835E+02 0.  0.
         -6    2    1    2    0  502 -0.59851714672E+02 -0.18238265192E+02  0.12303114920E+02  0.18344211095E+03  0.17200226559E+03 0.  0.
        -24    2    5    5    0    0 -0.51046348017E+02  0.44578425972E+02  0.36125629019E+02  0.11552250150E+03  0.86298444784E+02 0.  0.
          5    1    3    3  501    0 -0.10979327311E+02 -0.42301541131E+02 -0.39502514118E+02  0.59097416458E+02  0.47000000000E+01 0. -1.
        -11    1    4    4    0    0 -0.91390524287E+01  0.22595259753E+02  0.25762330731E+02  0.35464992983E+02  0.00000000000E+00 0.  1.
         12    1    4    4    0    0  0.79970094411E+02  0.37944546571E+02 -0.27599960856E+01  0.88558580572E+02  0.00000000000E+00 0. -1.
         -5    1    5    5    0  502 -0.88053666553E+01 -0.62816691164E+02 -0.23822514098E+02  0.67919609456E+02  0.47000000000E+01 0.  1.
         11    1    6    6    0    0 -0.72252416361E+02  0.29097549262E+02  0.10082269998E+02  0.78541270752E+02  0.00000000000E+00 0. -1.
        -12    1    6    6    0    0  0.21206068344E+02  0.15480876710E+02  0.26043359020E+02  0.36981230745E+02  0.00000000000E+00 0.  1.
</event>
<event>
12    1  0.8226261E-002  0.1935564E+03  0.7818608E-02  0.1155447E+00
         21   -1    0    0  501  502  0.00000000000E+00  0.00000000000E+00  0.40729428754E+03  0.40729428754E+03  0.00000000000E+00 0.  1.
         21   -1    0    0  502  503 -0.00000000000E+00 -0.00000000000E+00 -0.17756615681E+03  0.17756615681E+03  0.00000000000E+00 0.  1.
         -6    2    1    2    0  503 -0.65410065610E+02  0.56826977731E+02 -0.88441986979E+02  0.21280524844E+03  0.17307890288E+03 0.  0.
        -24    2    3    3    0    0 -0.81254057437E+02 -0.39317462817E+01 -0.90069849218E+01  0.11144123031E+03  0.75632939626E+02 0.  0.
          6    2    1    2  501    0  0.65410065610E+02 -0.56826977731E+02  0.31817011771E+03  0.37205519590E+03  0.17229353706E+03 0.  0.
         24    2    5    5    0    0  0.10030808100E+03 -0.78948884455E+02  0.26062955732E+03  0.30106043324E+03  0.80093575558E+02 0.  0.
          5    1    5    5  501    0 -0.34898015386E+02  0.22121906724E+02  0.57540560387E+02  0.70994762656E+02  0.47000000000E+01 0. -1.
        -13    1    6    6    0    0  0.66626055048E+02 -0.37455339905E+02  0.22290172333E+03  0.23564191470E+03  0.00000000000E+00 0.  1.
         14    1    6    6    0    0  0.33682025948E+02 -0.41493544550E+02  0.37727833994E+02  0.65418518549E+02  0.00000000000E+00 0. -1.
         -5    1    3    3    0  503  0.15843991827E+02  0.60758724012E+02 -0.79435002058E+02  0.10136401814E+03  0.47000000000E+01 0.  1.
         13    1    4    4    0    0 -0.49852771711E+02  0.23401165535E+02  0.22235201983E+02  0.59391224965E+02  0.00000000000E+00 0. -1.
        -14    1    4    4    0    0 -0.31401285726E+02 -0.27332911817E+02 -0.31242186904E+02  0.52050005343E+02  0.00000000000E+00 0.  1.
</event>
<event>
12    1  0.8226261E-002  0.1813245E+03  0.7818608E-02  0.1166892E+00
         21   -1    0    0  501  502  0.00000000000E+00  0.00000000000E+00  0.35121824727E+03  0.35121824727E+03  0.00000000000E+00 0.  1.
         21   -1    0    0  502  503 -0.00000000000E+00 -0.00000000000E+00 -0.10596588262E+03  0.10596588262E+03  0.00000000000E+00 0.  1.
         -6    2    1    2    0  503 -0.42420378980E+02 -0.26632472915E+02  0.42600802864E+02  0.18626166762E+03  0.17426934112E+03 0.  0.
        -24    2    3    3    0    0 -0.53426328677E+02  0.14008697882E+02 -0.28260276927E+02  0.10370127565E+03  0.83094495053E+02 0.  0.
          6    2    1    2  501    0  0.42420378980E+02  0.26632472915E+02  0.20265156178E+03  0.27092246227E+03  0.17269206092E+03 0.  0.
         24    2    5    5    0    0 -0.34112383658E+02 -0.17942839202E+02  0.81192663557E+02  0.12052772777E+03  0.80306191224E+02 0.  0.
          5    1    5    5  501    0  0.76532762638E+02  0.44575312118E+02  0.12145889822E+03  0.15039473450E+03  0.47000000000E+01 0. -1.
        -11    1    6    6    0    0 -0.46160640962E+02  0.15181897365E+02  0.26193996711E+02  0.55203444144E+02  0.00000000000E+00 0.  1.
         12    1    6    6    0    0  0.12048257304E+02 -0.33124736567E+02  0.54998666846E+02  0.65324283628E+02  0.00000000000E+00 0. -1.
         -5    1    3    3    0  503  0.11005949697E+02 -0.40641170797E+02  0.70861079791E+02  0.82560391966E+02  0.47000000000E+01 0.  1.
         13    1    4    4    0    0 -0.52973718293E+02  0.26958005923E+02  0.12665738274E+02  0.60773101279E+02  0.00000000000E+00 0. -1.
        -14    1    4    4    0    0 -0.45261038434E+00 -0.12949308041E+02 -0.40926015201E+02  0.42928174375E+02  0.00000000000E+00 0.  1.
</event>
<event>
12    1  0.8226261E-002  0.2533193E+03  0.7818608E-02  0.1111407E+00
         21   -1    0    0  501  502  0.00000000000E+00  0.00000000000E+00  0.11490842057E+04  0.11490842057E+04  0.00000000000E+00 0. -1.
         21   -1    0    0  502  503 -0.00000000000E+00 -0.00000000000E+00 -0.62945390478E+02  0.62945390478E+02  0.00000000000E+00 0.  1.
         -6    2    1    2    0  503 -0.18408915987E+03 -0.19431910724E+02  0.33477001973E+03  0.41910732209E+03  0.17121204215E+03 0.  0.
        -24    2    3    3    0    0 -0.27599312794E+02  0.29899738325E+02  0.11214680842E+03  0.14251038058E+03  0.77952456763E+02 0.  0.
          6    2    1    2  501    0  0.18408915987E+03  0.19431910724E+02  0.75136879553E+03  0.79292227413E+03  0.17292844758E+03 0.  0.
         24    2    5    5    0    0  0.73224696972E+02 -0.44525009692E+02  0.26199093254E+03  0.28706241253E+03  0.80132685068E+02 0.  0.
          5    1    5    5  501    0  0.11086446290E+03  0.63956920416E+02  0.48937786299E+03  0.50585986161E+03  0.47000000000E+01 0. -1.
        -11    1    6    6    0    0 -0.10684236349E+02 -0.16194764162E+02  0.10532509951E+03  0.10709715159E+03  0.00000000000E+00 0.  1.
         12    1    6    6    0    0  0.83908933321E+02 -0.28330245530E+02  0.15666583303E+03  0.17996526093E+03  0.00000000000E+00 0. -1.
         -5    1    3    3    0  503 -0.15648984708E+03 -0.49331649049E+02  0.22262321131E+03  0.27659694150E+03  0.47000000000E+01 0.  1.
         11    1    4    4    0    0 -0.30632592478E+02  0.54755835191E+02  0.83844826082E+02  0.10472111568E+03  0.00000000000E+00 0. -1.
        -12    1    4    4    0    0  0.30332796843E+01 -0.24856096866E+02  0.28301982342E+02  0.37789264898E+02  0.00000000000E+00 0.  1.
</event>
<event>
12    1  0.8226261E-002  0.2584498E+03  0.7818608E-02  0.1108256E+00
         21   -1    0    0  501  502  0.00000000000E+00  0.00000000000E+00  0.32133886541E+03  0.32133886541E+03  0.00000000000E+00 0. -1.
         21   -1    0    0  502  503 -0.00000000000E+00 -0.00000000000E+00 -0.28547668322E+03  0.28547668322E+03  0.00000000000E+00 0.  1.
         -6    2    1    2    0  503  0.99358175801E+02 -0.16443363478E+03 -0.14125290503E+03  0.29350092314E+03  0.17111382573E+03 0.  0.
        -24    2    3    3    0    0 -0.11715291036E+02 -0.40213983649E+02 -0.59934280113E+02  0.10802142152E+03  0.79511615813E+02 0.  0.
          6    2    1    2  501    0 -0.99358175801E+02  0.16443363478E+03  0.17711508722E+03  0.31331462550E+03  0.17287519511E+03 0.  0.
         24    2    5    5    0    0 -0.80995566163E+02  0.10519005309E+03  0.35814156487E+02  0.15892864676E+03  0.79689597498E+02 0.  0.
          5    1    5    5  501    0 -0.18362609638E+02  0.59243581686E+02  0.14130093073E+03  0.15438597874E+03  0.47000000000E+01 0. -1.
        -11    1    6    6    0    0  0.20225260071E+01 -0.13893983143E+01 -0.14545265719E+02  0.14750789605E+02  0.00000000000E+00 0.  1.
         12    1    6    6    0    0 -0.83018092170E+02  0.10657945141E+03  0.50359422206E+02  0.14417785716E+03  0.00000000000E+00 0. -1.
         -5    1    3    3    0  503  0.11107346684E+03 -0.12421965113E+03 -0.81318624919E+02  0.18547950162E+03  0.47000000000E+01 0.  1.
         13    1    4    4    0    0 -0.50571868523E+01 -0.18726098051E+02 -0.77240600349E+02  0.79638886414E+02  0.00000000000E+00 0. -1.
        -14    1    4    4    0    0 -0.66581041839E+01 -0.21487885598E+02  0.17306320236E+02  0.28382535104E+02  0.00000000000E+00 0.  1.
</event>
<event>
12    1  0.8226261E-002  0.2313697E+03  0.7818608E-02  0.1125868E+00
         21   -1    0    0  501  502  0.00000000000E+00  0.00000000000E+00  0.32369635512E+03  0.32369635512E+03  0.00000000000E+00 0.  1.
         21   -1    0    0  502  503 -0.00000000000E+00 -0.00000000000E+00 -0.19243534928E+03  0.19243534928E+03  0.00000000000E+00 0.  1.
         -6    2    1    2    0  503  0.11054265511E+03 -0.11004970072E+03 -0.32371037856E+02  0.23362328663E+03  0.17088399790E+03 0.  0.
        -24    2    3    3    0    0  0.24110819133E+02 -0.11078097805E+03  0.55021136548E+01  0.13913803571E+03  0.80469640413E+02 0.  0.
          6    2    1    2  501    0 -0.11054265511E+03  0.11004970072E+03  0.16363204370E+03  0.28250841777E+03  0.16942533801E+03 0.  0.
         24    2    5    5    0    0 -0.42079594348E+01  0.55875823784E+02  0.13222422191E+03  0.15901583615E+03  0.68285991831E+02 0.  0.
          5    1    5    5  501    0 -0.10633469568E+03  0.54173876932E+02  0.31407821788E+02  0.12349258162E+03  0.47000000000E+01 0. -1.
        -11    1    6    6    0    0 -0.12429845652E+02 -0.89997333353E+01  0.58447872727E+02  0.60428884561E+02  0.00000000000E+00 0.  1.
         12    1    6    6    0    0  0.82218862175E+01  0.64875557119E+02  0.73776349180E+02  0.98586951585E+02  0.00000000000E+00 0. -1.
         -5    1    3    3    0  503  0.86431835980E+02  0.73127733447E+00 -0.37873151511E+02  0.94485250927E+02  0.47000000000E+01 0.  1.
         13    1    4    4    0    0 -0.17783396482E+02 -0.53762520934E+01  0.16934357586E+02  0.25138133261E+02  0.00000000000E+00 0. -1.
        -14    1    4    4    0    0  0.41894215615E+02 -0.10540472596E+03 -0.11432243931E+02  0.11399990244E+03  0.00000000000E+00 0.  1.
</event>
<event>
12    1  0.8226261E-002  0.2414987E+03  0.7818608E-02  0.1118806E+00
         21   -1    0    0  501  502  0.00000000000E+00  0.00000000000E+00  0.16885732549E+03  0.16885732549E+03  0.00000000000E+00 0. -1.
         21   -1    0    0  502  503 -0.00000000000E+00 -0.00000000000E+00 -0.97512416689E+03  0.97512416689E+03  0.00000000000E+00 0.  1.
         -6    2    1    2    0  503 -0.16072407538E+03 -0.53524515070E+02 -0.86280458841E+03  0.89595296640E+03  0.17205481129E+03 0.  0.
        -24    2    3    3    0    0 -0.18244257061E+03 -0.43337577903E+02 -0.83239980344E+03  0.85694004965E+03  0.79330818131E+02 0.  0.
          6    2    1    2  501    0  0.16072407538E+03  0.53524515070E+02  0.56537747019E+02  0.24802852598E+03  0.17211778160E+03 0.  0.
         24    2    5    5    0    0  0.17886067505E+03  0.15375915182E+02  0.61364115845E+02  0.20525428424E+03  0.78333943075E+02 0.  0.
          5    1    5    5  501    0 -0.18136599667E+02  0.38148599888E+02 -0.48263688260E+01  0.42774241746E+02  0.47000000000E+01 0. -1.
        -11    1    6    6    0    0  0.45743245552E+02 -0.24890641958E+02 -0.26727197015E+01  0.52145297021E+02  0.00000000000E+00 0.  1.
         12    1    6    6    0    0  0.13311742950E+03  0.40266557140E+02  0.64036835547E+02  0.15310898722E+03  0.00000000000E+00 0. -1.
         -5    1    3    3    0  503  0.21718495224E+02 -0.10186937167E+02 -0.30404784977E+02  0.39012916747E+02  0.47000000000E+01 0.  1.
         11    1    4    4    0    0 -0.57712765630E+02 -0.11772495949E+02 -0.12820791455E+03  0.14109083717E+03  0.00000000000E+00 0. -1.
        -12    1    4    4    0    0 -0.12472980498E+03 -0.31565081954E+02 -0.70419188888E+03  0.71584921248E+03  0.00000000000E+00 0.  1.
</event>
<event>
12    1  0.8226261E-002  0.2004516E+03  0.7818608E-02  0.1149851E+00
         21   -1    0    0  501  502  0.00000000000E+00  0.00000000000E+00  0.17962541610E+03  0.17962541610E+03  0.00000000000E+00 0. -1.
         21   -1    0    0  502  503 -0.00000000000E+00 -0.00000000000E+00 -0.26093124211E+03  0.26093124211E+03  0.00000000000E+00 0. -1.
         -6    2    1    2    0  503 -0.98361956974E+02 -0.22999441547E+02 -0.12651293086E+03  0.23507055699E+03  0.17043648729E+03 0.  0.
        -24    2    3    3    0    0 -0.24170970312E+02  0.46752457657E+02 -0.64097362716E+02  0.11554054783E+03  0.80443260642E+02 0.  0.
          6    2    1    2  501    0  0.98361956974E+02  0.22999441547E+02  0.45207104853E+02  0.20548610122E+03  0.17313811415E+03 0.  0.
         24    2    5    5    0    0  0.13276716707E+03 -0.33391139592E+01  0.21983214023E+02  0.15610111267E+03  0.79031799573E+02 0.  0.
          5    1    5    5  501    0 -0.34405210101E+02  0.26338555507E+02  0.23223890830E+02  0.49384988544E+02  0.47000000000E+01 0. -1.
        -13    1    6    6    0    0  0.12999765528E+02  0.27752421452E+02  0.72291687099E+01  0.31487325712E+02  0.00000000000E+00 0.  1.
         14    1    6    6    0    0  0.11976740155E+03 -0.31091535411E+02  0.14754045313E+02  0.12461378696E+03  0.00000000000E+00 0. -1.
         -5    1    3    3    0  503 -0.74190986663E+02 -0.69751899204E+02 -0.62415568141E+02  0.11953000916E+03  0.47000000000E+01 0.  1.
         11    1    4    4    0    0 -0.40037628476E+02  0.21613614345E+02 -0.71643704395E+02  0.84870374092E+02  0.00000000000E+00 0. -1.
        -12    1    4    4    0    0  0.15866658164E+02  0.25138843312E+02  0.75463416785E+01  0.30670173737E+02  0.00000000000E+00 0.  1.
</event>
<event>
12    1  0.8226261E-002  0.2446615E+03  0.7818608E-02  0.1117097E+00
         21   -1    0    0  501  502  0.00000000000E+00  0.00000000000E+00  0.22059541202E+03  0.22059541202E+03  0.00000000000E+00 0. -1.
         21   -1    0    0  502  503 -0.00000000000E+00 -0.00000000000E+00 -0.14772065763E+04  0.14772065763E+04  0.00000000000E+00 0.  1.
         -6    2    1    2    0  503  0.14123265264E+03 -0.10027055868E+03 -0.13966175509E+04  0.14178856936E+04  0.17279586139E+03 0.  0.
        -24    2    3    3    0    0  0.15174912296E+03 -0.11705718149E+03 -0.10346577603E+04  0.10553538097E+04  0.80776250982E+02 0.  0.
          6    2    1    2  501    0 -0.14123265264E+03  0.10027055868E+03  0.14000638663E+03  0.27991629465E+03  0.16955971397E+03 0.  0.
         24    2    5    5    0    0 -0.14575275788E+03  0.28006446159E+02  0.89583932482E+02  0.19155879812E+03  0.81493955119E+02 0.  0.
          5    1    5    5  501    0  0.45201052441E+01  0.72264112526E+02  0.50422454149E+02  0.88357496530E+02  0.47000000000E+01 0. -1.
        -13    1    6    6    0    0 -0.99435435392E+02  0.16297075745E+02  0.13420680383E+02  0.10165193137E+03  0.00000000000E+00 0.  1.
         14    1    6    6    0    0 -0.46317322493E+02  0.11709370414E+02  0.76163252100E+02  0.89906866750E+02  0.00000000000E+00 0. -1.
         -5    1    3    3    0  503 -0.10516470322E+02  0.16786622810E+02 -0.36195979058E+03  0.36253188391E+03  0.47000000000E+01 0.  1.
         11    1    4    4    0    0 -0.23385682415E+01 -0.29586401466E+02 -0.11390998285E+03  0.11771282107E+03  0.00000000000E+00 0. -1.
        -12    1    4    4    0    0  0.15408769120E+03 -0.87470780028E+02 -0.92074777744E+03  0.93764098866E+03  0.00000000000E+00 0.  1.
</event>
<event>
12    1  0.8226261E-002  0.1768602E+03  0.7818608E-02  0.1171006E+00
         21   -1    0    0  501  502  0.00000000000E+00  0.00000000000E+00  0.93950699092E+02  0.93950699092E+02  0.00000000000E+00 0. -1.
         21   -1    0    0  502  503 -0.00000000000E+00 -0.00000000000E+00 -0.35893488572E+03  0.35893488572E+03  0.00000000000E+00 0. -1.
         -6    2    1    2    0  503  0.31370946064E+02 -0.26984292015E+02 -0.19475695297E+03  0.26307755786E+03  0.17195127928E+03 0.  0.
        -24    2    3    3    0    0  0.69438791200E+02 -0.66201473404E+01 -0.19197051691E+03  0.21956073987E+03  0.80552262886E+02 0.  0.
          6    2    1    2  501    0 -0.31370946064E+02  0.26984292015E+02 -0.70227233665E+02  0.18980802696E+03  0.17141451070E+03 0.  0.
         24    2    5    5    0    0  0.14531680263E+02  0.64964623153E+02 -0.74720843801E+02  0.12987607230E+03  0.82782955167E+02 0.  0.
          5    1    5    5  501    0 -0.45902626327E+02 -0.37980331138E+02  0.44936101356E+01  0.59931954658E+02  0.47000000000E+01 0. -1.
        -11    1    6    6    0    0  0.48661672326E+02  0.46615427480E+02 -0.50032200245E+02  0.83929598438E+02  0.00000000000E+00 0.  1.
         12    1    6    6    0    0 -0.34129992063E+02  0.18349195673E+02 -0.24688643555E+02  0.45946473865E+02  0.00000000000E+00 0. -1.
         -5    1    3    3    0  503 -0.38067845136E+02 -0.20364144674E+02 -0.27864360590E+01  0.43516817985E+02  0.47000000000E+01 0.  1.
         11    1    4    4    0    0  0.48080678466E+02 -0.11218305999E+02 -0.19144298401E+03  0.19770689962E+03  0.00000000000E+00 0. -1.
        -12    1    4    4    0    0  0.21358112734E+02  0.45981586582E+01 -0.52753289719E+00  0.21853840247E+02  0.00000000000E+00 0.  1.
</event>
<event>
12    1  0.8226261E-002  0.1871949E+03  0.7818608E-02  0.1161037E+00
         21   -1    0    0  503  502  0.00000000000E+00  0.00000000000E+00  0.64516315528E+02  0.64516315528E+02  0.00000000000E+00 0. -1.
         21   -1    0    0  501  503 -0.00000000000E+00 -0.00000000000E+00 -0.57051246059E+03  0.57051246059E+03  0.00000000000E+00 0.  1.
          6    2    1    2  501    0  0.73727384382E+02 -0.46738811768E+00 -0.32293996272E+03  0.37327222516E+03  0.17206390933E+03 0.  0.
         24    2    3    3    0    0 -0.20021231113E+02 -0.26094728258E+02 -0.12046269337E+03  0.14862873411E+03  0.80606796046E+02 0.  0.
         -6    2    1    2    0  502 -0.73727384382E+02  0.46738811768E+00 -0.18305618235E+03  0.26175655097E+03  0.17196214822E+03 0.  0.
        -24    2    5    5    0    0 -0.72664230354E+02 -0.31409680605E+02 -0.44622047591E+02  0.11961796552E+03  0.77786066460E+02 0.  0.
          5    1    3    3  501    0  0.93748615495E+02  0.25627340141E+02 -0.20247726934E+03  0.22464349105E+03  0.47000000000E+01 0. -1.
        -11    1    4    4    0    0 -0.16447922362E+02 -0.23747691258E+02 -0.13262621674E+03  0.13573577405E+03  0.00000000000E+00 0.  1.
         12    1    4    4    0    0 -0.35733087505E+01 -0.23470370008E+01  0.12163523370E+02  0.12892960052E+02  0.00000000000E+00 0. -1.
         -5    1    5    5    0  502 -0.10631540277E+01  0.31877068723E+02 -0.13843413476E+03  0.14213858545E+03  0.47000000000E+01 0.  1.
         13    1    6    6    0    0  0.16201306714E+02 -0.11026845600E+02 -0.10777127794E+02  0.22365601861E+02  0.00000000000E+00 0. -1.
        -14    1    6    6    0    0 -0.88865537068E+02 -0.20382835005E+02 -0.33844919797E+02  0.97252363659E+02  0.00000000000E+00 0.  1.
</event>
<event>
12    1  0.8226261E-002  0.2112855E+03  0.7818608E-02  0.1140595E+00
         21   -1    0    0  501  502  0.00000000000E+00  0.00000000000E+00  0.64472229130E+02  0.64472229130E+02  0.00000000000E+00 0.  1.
         21   -1    0    0  502  503 -0.00000000000E+00 -0.00000000000E+00 -0.11087994796E+04  0.11087994796E+04  0.00000000000E+00 0.  1.
         -6    2    1    2    0  503 -0.75401483854E+02  0.97642643645E+02 -0.88213355138E+03  0.90708387754E+03  0.17152868210E+03 0.  0.
        -24    2    3    3    0    0 -0.56817993872E+02 -0.14081718455E+02 -0.31235009362E+03  0.32613382983E+03  0.73308353916E+02 0.  0.
          6    2    1    2  501    0  0.75401483854E+02 -0.97642643645E+02 -0.16219369911E+03  0.26618783121E+03  0.17125914817E+03 0.  0.
         24    2    5    5    0    0  0.65651580936E+02 -0.12476059782E+03 -0.82206258174E+02  0.18103781799E+03  0.78367632418E+02 0.  0.
          5    1    5    5  501    0  0.97499029183E+01  0.27117954176E+02 -0.79987440932E+02  0.85150013226E+02  0.47000000000E+01 0. -1.
        -11    1    6    6    0    0  0.50604303476E+02 -0.31120800079E+02 -0.66489211552E+01  0.59778824682E+02  0.00000000000E+00 0.  1.
         12    1    6    6    0    0  0.15047277460E+02 -0.93639797741E+02 -0.75557337019E+02  0.12125899331E+03  0.00000000000E+00 0. -1.
         -5    1    3    3    0  503 -0.18583489982E+02  0.11172436210E+03 -0.56978345776E+03  0.58095004770E+03  0.47000000000E+01 0.  1.
         13    1    4    4    0    0  0.16431425508E+02 -0.96117948639E+01 -0.89832812101E+02  0.91827623702E+02  0.00000000000E+00 0. -1.
        -14    1    4    4    0    0 -0.73249419379E+02 -0.44699235912E+01 -0.22251728152E+03  0.23430620613E+03  0.00000000000E+00 0.  1.
</event>
<event>
12    1  0.8226261E-002  0.2258034E+03  0.7818608E-02  0.1129907E+00
         21   -1    0    0  503  502  0.00000000000E+00  0.00000000000E+00  0.48246650622E+03  0.48246650622E+03  0.00000000000E+00 0.  1.
         21   -1    0    0  501  503 -0.00000000000E+00 -0.00000000000E+00 -0.27808854405E+03  0.27808854405E+03  0.00000000000E+00 0. -1.
          6    2    1    2  501    0 -0.21517222637E+02  0.14289743783E+03  0.40210508315E+03  0.46041640400E+03  0.17149955850E+03 0.  0.
         24    2    3    3    0    0 -0.28107431267E+02  0.15435912835E+03  0.40805094466E+03  0.44517683483E+03  0.84024238385E+02 0.  0.
         -6    2    1    2    0  502  0.21517222637E+02 -0.14289743783E+03 -0.19772712099E+03  0.30013864627E+03  0.17350655320E+03 0.  0.
        -24    2    5    5    0    0  0.64972659861E+02 -0.14931433764E+03 -0.15156702650E+03  0.23624501631E+03  0.79516830013E+02 0.  0.
          5    1    3    3  501    0  0.65902086301E+01 -0.11461690513E+02 -0.59458615106E+01  0.15239569164E+02  0.47000000000E+01 0. -1.
        -11    1    4    4    0    0 -0.32218317730E+01  0.10953818690E+03  0.35446078819E+03  0.37101407649E+03  0.00000000000E+00 0.  1.
         12    1    4    4    0    0 -0.24885599494E+02  0.44820941451E+02  0.53590156475E+02  0.74162758348E+02  0.00000000000E+00 0. -1.
         -5    1    5    5    0  502 -0.43455437224E+02  0.64168998025E+01 -0.46160094484E+02  0.63893629965E+02  0.47000000000E+01 0.  1.
         11    1    6    6    0    0  0.19266194663E+02 -0.89348790492E+02 -0.35956260051E+02  0.98220391244E+02  0.00000000000E+00 0. -1.
        -12    1    6    6    0    0  0.45706465198E+02 -0.59965547144E+02 -0.11561076645E+03  0.13802462507E+03  0.00000000000E+00 0.  1.
</event>
<event>
12    1  0.8226261E-002  0.1851599E+03  0.7818608E-02  0.1162975E+00
         21   -1    0    0  503  502  0.00000000000E+00  0.00000000000E+00  0.93976438496E+02  0.93976438496E+02  0.00000000000E+00 0.  1.
         21   -1    0    0  501  503 -0.00000000000E+00 -0.00000000000E+00 -0.36624230922E+03  0.36624230922E+03  0.00000000000E+00 0.  1.
          6    2    1    2  501    0 -0.61355955409E+02 -0.34469053884E+02 -0.15324420186E+03  0.24010433516E+03  0.17091997373E+03 0.  0.
         24    2    3    3    0    0 -0.90737659289E+02 -0.64187764028E+02 -0.88372315831E+02  0.16279367708E+03  0.79616099053E+02 0.  0.
         -6    2    1    2    0  502  0.61355955409E+02  0.34469053884E+02 -0.11902166886E+03  0.22011441256E+03  0.17126449724E+03 0.  0.
        -24    2    5    5    0    0  0.10725894617E+03  0.12135839049E+02 -0.82579398783E+02  0.15721778232E+03  0.79033624823E+02 0.  0.
          5    1    3    3  501    0  0.29381703881E+02  0.29718710143E+02 -0.64871886024E+02  0.77310658074E+02  0.47000000000E+01 0. -1.
        -11    1    4    4    0    0  0.13857886321E+02 -0.42266571347E+01 -0.23259016550E+01  0.14673631532E+02  0.00000000000E+00 0.  1.
         12    1    4    4    0    0 -0.10459554561E+03 -0.59961106893E+02 -0.86046414176E+02  0.14812004555E+03  0.00000000000E+00 0. -1.
         -5    1    5    5    0  502 -0.45902990762E+02  0.22333214835E+02 -0.36442270082E+02  0.62896630231E+02  0.47000000000E+01 0.  1.
         11    1    6    6    0    0  0.62633238109E+02 -0.20681105053E+02 -0.77235408122E+02  0.10156741057E+03  0.00000000000E+00 0. -1.
        -12    1    6    6    0    0  0.44625708061E+02  0.32816944102E+02 -0.53439906612E+01  0.55650371754E+02  0.00000000000E+00 0.  1.
</event>
<event>
12    1  0.8226261E-002  0.2372042E+03  0.7818608E-02  0.1121801E+00
         21   -1    0    0  501  502  0.00000000000E+00  0.00000000000E+00  0.18445590897E+03  0.18445590897E+03  0.00000000000E+00 0. -1.
         21   -1    0    0  502  503 -0.00000000000E+00 -0.00000000000E+00 -0.44628853710E+03  0.44628853710E+03  0.00000000000E+00 0.  1.
         -6    2    1    2    0  503 -0.13727613307E+03  0.89748284928E+02 -0.30881831985E+03  0.38893151492E+03  0.17029232884E+03 0.  0.
        -24    2    3    3    0    0 -0.14248742883E+03  0.51833359447E+02 -0.15790680045E+03  0.23317184149E+03  0.80281912726E+02 0.  0.
          6    2    1    2  501    0  0.13727613307E+03 -0.89748284928E+02  0.46985691726E+02  0.24181293115E+03  0.17136612002E+03 0.  0.
         24    2    5    5    0    0  0.35254689572E+02 -0.92880827308E+02 -0.25920065013E+01  0.12824257448E+03  0.81053674762E+02 0.  0.
          5    1    5    5  501    0  0.10202144349E+03  0.31325423807E+01  0.49577698228E+02  0.11357035668E+03  0.47000000000E+01 0. -1.
        -13    1    6    6    0    0  0.27934924028E+02 -0.59202282260E+02 -0.40525261592E+02  0.76990694453E+02  0.00000000000E+00 0.  1.
         14    1    6    6    0    0  0.73197655443E+01 -0.33678545048E+02  0.37933255091E+02  0.51251880024E+02  0.00000000000E+00 0. -1.
         -5    1    3    3    0  503  0.52112957604E+01  0.37914925480E+02 -0.15091151940E+03  0.15575967343E+03  0.47000000000E+01 0.  1.
         11    1    4    4    0    0 -0.34652151248E+02 -0.21203886181E+02 -0.46842178648E+02  0.62004564959E+02  0.00000000000E+00 0. -1.
        -12    1    4    4    0    0 -0.10783527758E+03  0.73037245628E+02 -0.11106462180E+03  0.17116727653E+03  0.00000000000E+00 0.  1.
</event>
<event>
12    1  0.8226261E-002  0.1965996E+03  0.7818608E-02  0.1153275E+00
         21   -1    0    0  503  502  0.00000000000E+00  0.00000000000E+00  0.48480530469E+02  0.48480530469E+02  0.00000000000E+00 0.  1.
         21   -1    0    0  501  503 -0.00000000000E+00 -0.00000000000E+00 -0.78624657897E+03  0.78624657897E+03  0.00000000000E+00 0.  1.
          6    2    1    2  501    0 -0.89626469609E+02 -0.19724930838E+02 -0.37936060782E+03  0.42594126642E+03  0.17055648543E+03 0.  0.
         24    2    3    3    0    0 -0.10406231954E+02 -0.28218260561E+02 -0.19703641463E+03  0.22691316758E+03  0.10845126573E+03 0.  0.
         -6    2    1    2    0  502  0.89626469609E+02  0.19724930838E+02 -0.35840544068E+03  0.40878584302E+03  0.17386612261E+03 0.  0.
        -24    2    5    5    0    0  0.10245452358E+03 -0.20246052652E+02 -0.33608512295E+03  0.36101006387E+03  0.80425271496E+02 0.  0.
          5    1    3    3  501    0 -0.79220237655E+02  0.84933297228E+01 -0.18232419319E+03  0.19902809884E+03  0.47000000000E+01 0. -1.
        -11    1    4    4    0    0 -0.24277300182E+02  0.25292009644E+02 -0.15087586696E+03  0.15489544954E+03  0.00000000000E+00 0.  1.
         12    1    4    4    0    0  0.13871068228E+02 -0.53510270205E+02 -0.46160547665E+02  0.72017718042E+02  0.00000000000E+00 0. -1.
         -5    1    5    5    0  502 -0.12828053976E+02  0.39970983491E+02 -0.22320317734E+02  0.47775779154E+02  0.47000000000E+01 0.  1.
         13    1    6    6    0    0  0.45023849554E+02 -0.34009748743E+02 -0.25211388979E+03  0.25835096954E+03  0.00000000000E+00 0. -1.
        -14    1    6    6    0    0  0.57430674030E+02  0.13763696090E+02 -0.83971233161E+02  0.10265909433E+03  0.00000000000E+00 0.  1.
</event>
<event>
12    1  0.8226261E-002  0.2768095E+03  0.7818608E-02  0.1097620E+00
         21   -1    0    0  503  502  0.00000000000E+00  0.00000000000E+00  0.18012511191E+03  0.18012511191E+03  0.00000000000E+00 0.  1.
         21   -1    0    0  501  503 -0.00000000000E+00 -0.00000000000E+00 -0.57830722049E+03  0.57830722049E+03  0.00000000000E+00 0.  1.
          6    2    1    2  501    0  0.20193600265E+03 -0.78736135538E+02 -0.31935492110E+01  0.27682790818E+03  0.17218003306E+03 0.  0.
         24    2    3    3    0    0  0.19527380286E+03 -0.11020481538E+03 -0.22546047333E+02  0.23899575386E+03  0.79584462674E+02 0.  0.
         -6    2    1    2    0  502 -0.20193600265E+03  0.78736135538E+02 -0.39498855937E+03  0.48160442422E+03  0.17014502986E+03 0.  0.
        -24    2    5    5    0    0 -0.77788768438E+02 -0.29274025180E+02 -0.18504697019E+03  0.21481557241E+03  0.70677350885E+02 0.  0.
          5    1    3    3  501    0  0.66621997896E+01  0.31468679838E+02  0.19352498122E+02  0.37832154318E+02  0.47000000000E+01 0. -1.
        -13    1    4    4    0    0  0.16504548015E+03 -0.11772952908E+03 -0.34468620319E+02  0.20564128554E+03  0.00000000000E+00 0.  1.
         14    1    4    4    0    0  0.30228322712E+02  0.75247136996E+01  0.11922572986E+02  0.33354468319E+02  0.00000000000E+00 0. -1.
         -5    1    5    5    0  502 -0.12414723421E+03  0.10801016072E+03 -0.20994158918E+03  0.26678885181E+03  0.47000000000E+01 0.  1.
         11    1    6    6    0    0 -0.72992148083E+02 -0.30747846559E+01 -0.89003964003E+02  0.11514779021E+03  0.00000000000E+00 0. -1.
        -12    1    6    6    0    0 -0.47966203547E+01 -0.26199240524E+02 -0.96043006189E+02  0.99667782200E+02  0.00000000000E+00 0.  1.
</event>
<event>
12    1  0.8226261E-002  0.2066756E+03  0.7818608E-02  0.1144450E+00
         21   -1    0    0  501  502  0.00000000000E+00  0.00000000000E+00  0.26860744600E+03  0.26860744600E+03  0.00000000000E+00 0. -1.
         21   -1    0    0  502  503 -0.00000000000E+00 -0.00000000000E+00 -0.60745208308E+03  0.60745208308E+03  0.00000000000E+00 0. -1.
         -6    2    1    2    0  503 -0.27682503800E+02 -0.10845108165E+03 -0.54624947366E+03  0.58404049941E+03  0.17374365987E+03 0.  0.
        -24    2    3    3    0    0  0.24322142582E+02 -0.83115087615E+02 -0.49016441475E+03  0.50333102244E+03  0.74707966477E+02 0.  0.
          6    2    1    2  501    0  0.27682503800E+02  0.10845108165E+03  0.20740483658E+03  0.29201902968E+03  0.17242502524E+03 0.  0.
         24    2    5    5    0    0  0.29142745998E+02 -0.12814197922E+02  0.10390087128E+03  0.13251178479E+03  0.75831911115E+02 0.  0.
          5    1    5    5  501    0 -0.14602421974E+01  0.12126527957E+03  0.10350396530E+03  0.15950724489E+03  0.47000000000E+01 0. -1.
        -13    1    6    6    0    0  0.16011328072E+01  0.14831837321E+02 -0.58542669079E+01  0.16025587840E+02  0.00000000000E+00 0.  1.
         14    1    6    6    0    0  0.27541613190E+02 -0.27646035243E+02  0.10975513819E+03  0.11648619695E+03  0.00000000000E+00 0. -1.
         -5    1    3    3    0  503 -0.52004646382E+02 -0.25335994038E+02 -0.56085058910E+02  0.80709476966E+02  0.47000000000E+01 0.  1.
         13    1    4    4    0    0  0.48896042945E+02 -0.43468188908E+02 -0.33408008292E+03  0.34042592185E+03  0.00000000000E+00 0. -1.
        -14    1    4    4    0    0 -0.24573900363E+02 -0.39646898707E+02 -0.15608433183E+03  0.16290510059E+03  0.00000000000E+00 0.  1.
</event>
<event>
12    1  0.8226261E-002  0.2018192E+03  0.7818608E-02  0.1149235E+00
         21   -1    0    0  501  502  0.00000000000E+00  0.00000000000E+00  0.34867300195E+03  0.34867300195E+03  0.00000000000E+00 0. -1.
         21   -1    0    0  502  503 -0.00000000000E+00 -0.00000000000E+00 -0.15139815906E+03  0.15139815906E+03  0.00000000000E+00 0. -1.
         -6    2    1    2    0  503 -0.50763747579E+02 -0.79447800608E+02 -0.26473592380E+02  0.19875015209E+03  0.17295045756E+03 0.  0.
        -24    2    3    3    0    0 -0.97310992903E+02 -0.44389895115E+02  0.21339444842E+01  0.13366417856E+03  0.80135302969E+02 0.  0.
          6    2    1    2  501    0  0.50763747579E+02  0.79447800608E+02  0.22374843527E+03  0.30132100893E+03  0.17844348419E+03 0.  0.
         24    2    5    5    0    0  0.90613477521E+02  0.99814653810E+02  0.17216436427E+03  0.23286798806E+03  0.80082233450E+02 0.  0.
          5    1    5    5  501    0 -0.39849729941E+02 -0.20366853202E+02  0.51584071001E+02  0.68453020874E+02  0.47000000000E+01 0. -1.
        -13    1    6    6    0    0  0.59566941070E+02  0.53050307047E+02  0.39906040643E+02  0.89191073691E+02  0.00000000000E+00 0.  1.
         14    1    6    6    0    0  0.31046536450E+02  0.46764346763E+02  0.13225832363E+03  0.14367691437E+03  0.00000000000E+00 0. -1.
         -5    1    3    3    0  503  0.46547245324E+02 -0.35057905492E+02 -0.28607536864E+02  0.65085973529E+02  0.47000000000E+01 0.  1.
         11    1    4    4    0    0 -0.32303049093E+01  0.80249589799E+01 -0.21701170794E+02  0.23361841756E+02  0.00000000000E+00 0. -1.
        -12    1    4    4    0    0 -0.94080687994E+02 -0.52414854095E+02  0.23835115278E+02  0.11030233680E+03  0.00000000000E+00 0.  1.
</event>
<event>
12    1  0.8226261E-002  0.1762374E+03  0.7818608E-02  0.1172721E+00
         21   -1    0    0  501  502  0.00000000000E+00  0.00000000000E+00  0.71427786293E+02  0.71427786293E+02  0.00000000000E+00 0. -1.
         21   -1    0    0  502  503 -0.00000000000E+00 -0.00000000000E+00 -0.63228816911E+03  0.63228816911E+03  0.00000000000E+00 0. -1.
         -6    2    1    2    0  503 -0.10254326161E+02 -0.21775921581E+02 -0.48549965660E+03  0.51649737179E+03  0.17458601474E+03 0.  0.
        -24    2    3    3    0    0 -0.17498501817E+02 -0.78528200628E+02 -0.26645567082E+03  0.29005608367E+03  0.81615141386E+02 0.  0.
          6    2    1    2  501    0  0.10254326161E+02  0.21775921581E+02 -0.75360726224E+02  0.18721858362E+03  0.16968269514E+03 0.  0.
         24    2    5    5    0    0 -0.58943508766E+02  0.12656162124E+02 -0.41125567165E+02  0.10933632321E+03  0.81416236911E+02 0.  0.
          5    1    5    5  501    0  0.69197834927E+02  0.91197594576E+01 -0.34235159060E+02  0.77882260413E+02  0.47000000000E+01 0. -1.
        -11    1    6    6    0    0 -0.50683919996E+02  0.14543225261E+02 -0.65177388130E+02  0.83835893689E+02  0.00000000000E+00 0.  1.
         12    1    6    6    0    0 -0.82595887693E+01 -0.18870631371E+01  0.24051820965E+02  0.25500429519E+02  0.00000000000E+00 0. -1.
         -5    1    3    3    0  503  0.72441756562E+01  0.56752279047E+02 -0.21904398578E+03  0.22644128812E+03  0.47000000000E+01 0.  1.
         11    1    4    4    0    0 -0.39476608966E+02 -0.11555764819E+02 -0.13177299842E+03  0.13804369406E+03  0.00000000000E+00 0. -1.
        -12    1    4    4    0    0  0.21978107149E+02 -0.66972435809E+02 -0.13468267240E+03  0.15201238961E+03  0.00000000000E+00 0.  1.
</event>
<event>
12    1  0.8226261E-002  0.1793428E+03  0.7818608E-02  0.1168569E+00
         21   -1    0    0  501  502  0.00000000000E+00  0.00000000000E+00  0.75435226878E+02  0.75435226878E+02  0.00000000000E+00 0. -1.
         21   -1    0    0  502  503 -0.00000000000E+00 -0.00000000000E+00 -0.43065382024E+03  0.43065382024E+03  0.00000000000E+00 0. -1.
         -6    2    1    2    0  503 -0.47598595499E+02  0.13455722852E+02 -0.20601379805E+03  0.27279545577E+03  0.17184002134E+03 0.  0.
        -24    2    3    3    0    0 -0.13361394037E+02  0.20629947338E+02 -0.21898824126E+03  0.23519117892E+03  0.82188315800E+02 0.  0.
          6    2    1    2  501    0  0.47598595499E+02 -0.13455722852E+02 -0.14920479531E+03  0.23329359134E+03  0.17238661794E+03 0.  0.
         24    2    5    5    0    0  0.78814345306E+02 -0.44071587284E+02 -0.12211999159E+03  0.18164641539E+03  0.99639962099E+02 0.  0.
          5    1    5    5  501    0 -0.31215749807E+02  0.30615864432E+02 -0.27084803718E+02  0.51647175948E+02  0.47000000000E+01 0. -1.
        -13    1    6    6    0    0 -0.18314164605E+02  0.47494680658E+01 -0.10722015605E+01  0.18950347972E+02  0.00000000000E+00 0.  1.
         14    1    6    6    0    0  0.97128509910E+02 -0.48821055350E+02 -0.12104779003E+03  0.16269606742E+03  0.00000000000E+00 0. -1.
         -5    1    3    3    0  503 -0.34237201462E+02 -0.71742244860E+01  0.12974443212E+02  0.37604276852E+02  0.47000000000E+01 0.  1.
         13    1    4    4    0    0 -0.14625910891E+02 -0.12904491542E+02 -0.18954955963E+03  0.19055046242E+03  0.00000000000E+00 0. -1.
        -14    1    4    4    0    0  0.12645168538E+01  0.33534438879E+02 -0.29438681630E+02  0.44640716504E+02  0.00000000000E+00 0.  1.
</event>
<event>
12    1  0.8226261E-002  0.1919134E+03  0.7818608E-02  0.1159874E+00
         21   -1    0    0  503  502  0.00000000000E+00  0.00000000000E+00  0.41335174824E+02  0.41335174824E+02  0.00000000000E+00 0. -1.
         21   -1    0    0  501  503 -0.00000000000E+00 -0.00000000000E+00 -0.10236069458E+04  0.10236069458E+04  0.00000000000E+00 0. -1.
          6    2    1    2  501    0 -0.45251501412E+02  0.27161375164E+02 -0.73746237724E+03  0.76202460351E+03  0.18451368465E+03 0.  0.
         24    2    3    3    0    0 -0.24157174522E+02 -0.49929352772E+02 -0.54524489711E+03  0.55379972356E+03  0.79533808172E+02 0.  0.
         -6    2    1    2    0  502  0.45251501412E+02 -0.27161375164E+02 -0.24480939378E+03  0.30291751716E+03  0.17041697169E+03 0.  0.
        -24    2    5    5    0    0 -0.72804613482E+01 -0.76039122123E+01 -0.23162798700E+03  0.24514260087E+03  0.79577294481E+02 0.  0.
          5    1    3    3  501    0 -0.21094326890E+02  0.77090727936E+02 -0.19221748013E+03  0.20822487995E+03  0.47000000000E+01 0. -1.
        -13    1    4    4    0    0  0.13771650251E+01 -0.27412503558E+01  0.21725966062E+01  0.37591505733E+01  0.00000000000E+00 0.  1.
         14    1    4    4    0    0 -0.25534339547E+02 -0.47188102416E+02 -0.54741749372E+03  0.55004057299E+03  0.00000000000E+00 0. -1.
         -5    1    5    5    0  502  0.52531962760E+02 -0.19557462952E+02 -0.13181406776E+02  0.57774916297E+02  0.47000000000E+01 0.  1.
         11    1    6    6    0    0 -0.36779538900E+02 -0.18200834929E+02 -0.75819799886E+02  0.86212800259E+02  0.00000000000E+00 0. -1.
        -12    1    6    6    0    0  0.29499077552E+02  0.10596922716E+02 -0.15580818712E+03  0.15892980061E+03  0.00000000000E+00 0.  1.
</event>
<event>
12    1  0.8226261E-002  0.4078136E+03  0.7818608E-02  0.1041231E+00
         21   -1    0    0  503  502  0.00000000000E+00  0.00000000000E+00  0.19005009671E+04  0.19005009671E+04  0.00000000000E+00 0.  1.
         21   -1    0    0  501  503 -0.00000000000E+00 -0.00000000000E+00 -0.14194027360E+03  0.14194027360E+03  0.00000000000E+00 0.  1.
          6    2    1    2  501    0 -0.23378743130E+02  0.37055270092E+03  0.24603687292E+03  0.47628364301E+03  0.16868934754E+03 0.  0.
         24    2    3    3    0    0  0.19882770602E+02  0.35089849859E+03  0.22365105582E+03  0.42354787671E+03  0.76471747855E+02 0.  0.
         -6    2    1    2    0  502  0.23378743130E+02 -0.37055270092E+03  0.15125238206E+04  0.15661575977E+04  0.16512250960E+03 0.  0.
        -24    2    5    5    0    0  0.14828865086E+02 -0.21175273790E+03  0.10836776212E+04  0.11087500317E+04  0.99550634992E+02 0.  0.
          5    1    3    3  501    0 -0.43261513732E+02  0.19654202332E+02  0.22385817102E+02  0.52735766297E+02  0.47000000000E+01 0. -1.
        -11    1    4    4    0    0 -0.19581632141E+02  0.87591051338E+02  0.31176573979E+02  0.95013742989E+02  0.00000000000E+00 0.  1.
         12    1    4    4    0    0  0.39464402743E+02  0.26330744725E+03  0.19247448184E+03  0.32853413372E+03  0.00000000000E+00 0. -1.
         -5    1    5    5    0  502  0.85498780439E+01 -0.15879996302E+03  0.42884619942E+03  0.45740756599E+03  0.47000000000E+01 0.  1.
         13    1    6    6    0    0  0.26337311722E+02 -0.18088518406E+03  0.69355260397E+03  0.71723658459E+03  0.00000000000E+00 0. -1.
        -14    1    6    6    0    0 -0.11508446636E+02 -0.30867553839E+02  0.39012501722E+03  0.39151344713E+03  0.00000000000E+00 0.  1.
</event>
<event>
12    1  0.8226261E-002  0.2277834E+03  0.7818608E-02  0.1128331E+00
         21   -1    0    0  501  502  0.00000000000E+00  0.00000000000E+00  0.39939372550E+03  0.39939372550E+03  0.00000000000E+00 0.  1.
         21   -1    0    0  502  503 -0.00000000000E+00 -0.00000000000E+00 -0.12953485921E+03  0.12953485921E+03  0.00000000000E+00 0.  1.
         -6    2    1    2    0  503 -0.13406203215E+03  0.64783798680E+02  0.13242976636E+03  0.26348231305E+03  0.17238247369E+03 0.  0.
        -24    2    3    3    0    0 -0.83933581989E+01  0.16372320639E+02  0.91741682456E+02  0.12272046811E+03  0.79405765836E+02 0.  0.
          6    2    1    2  501    0  0.13406203215E+03 -0.64783798680E+02  0.13742909992E+03  0.26544627166E+03  0.17148001806E+03 0.  0.
         24    2    5    5    0    0  0.88637701828E+02 -0.44970405993E+02  0.16504952291E+03  0.20851720983E+03  0.79743978952E+02 0.  0.
          5    1    5    5  501    0  0.45424330322E+02 -0.19813392687E+02 -0.27620422988E+02  0.56929061831E+02  0.47000000000E+01 0. -1.
        -11    1    6    6    0    0  0.69489075424E+02 -0.32929308260E+02  0.51059680955E+02  0.92304723417E+02  0.00000000000E+00 0.  1.
         12    1    6    6    0    0  0.19148626404E+02 -0.12041097733E+02  0.11398984196E+03  0.11621248641E+03  0.00000000000E+00 0. -1.
         -5    1    3    3    0  503 -0.12566867395E+03  0.48411478041E+02  0.40688083906E+02  0.14076184494E+03  0.47000000000E+01 0.  1.
         11    1    4    4    0    0  0.22167611926E+01  0.41214528984E+02  0.19608537177E+02  0.45695143722E+02  0.00000000000E+00 0. -1.
        -12    1    4    4    0    0 -0.10610119391E+02 -0.24842208345E+02  0.72133145279E+02  0.77025324386E+02  0.00000000000E+00 0.  1.
</event>
<event>
12    1  0.8226261E-002  0.1900199E+03  0.7818608E-02  0.1158872E+00
         21   -1    0    0  503  502  0.00000000000E+00  0.00000000000E+00  0.17741320045E+02  0.17741320045E+02  0.00000000000E+00 0. -1.
         21   -1    0    0  501  503 -0.00000000000E+00 -0.00000000000E+00 -0.22036916760E+04  0.22036916760E+04  0.00000000000E+00 0.  1.
          6    2    1    2  501    0  0.12847972141E+02 -0.77243414385E+02 -0.14129671250E+04  0.14254363540E+04  0.17105872511E+03 0.  0.
         24    2    3    3    0    0 -0.49863763845E+02 -0.38809841770E+02 -0.10594728415E+04  0.10643405220E+04  0.79658309833E+02 0.  0.
         -6    2    1    2    0  502 -0.12847972141E+02  0.77243414385E+02 -0.77298323093E+03  0.79599664205E+03  0.17313567917E+03 0.  0.
        -24    2    5    5    0    0 -0.16994931685E+02 -0.21321322252E+02 -0.47174528271E+03  0.47898150672E+03  0.78334191341E+02 0.  0.
          5    1    3    3  501    0  0.62711735986E+02 -0.38433572615E+02 -0.35349428358E+03  0.36109583196E+03  0.47000000000E+01 0. -1.
        -11    1    4    4    0    0 -0.45327854791E+02 -0.50402002012E+02 -0.48302220989E+03  0.48775550379E+03  0.00000000000E+00 0.  1.
         12    1    4    4    0    0 -0.45359090536E+01  0.11592160242E+02 -0.57645063156E+03  0.57658501825E+03  0.00000000000E+00 0. -1.
         -5    1    5    5    0  502  0.41469595444E+01  0.98564736637E+02 -0.30123794822E+03  0.31701513533E+03  0.47000000000E+01 0.  1.
         13    1    6    6    0    0 -0.41394940810E+02  0.69229397371E+01 -0.17835240101E+03  0.18322403544E+03  0.00000000000E+00 0. -1.
        -14    1    6    6    0    0  0.24400009125E+02 -0.28244261989E+02 -0.29339288171E+03  0.29575747128E+03  0.00000000000E+00 0.  1.
</event>
<event>
12    1  0.8226261E-002  0.2492448E+03  0.7818608E-02  0.1115556E+00
         21   -1    0    0  501  502  0.00000000000E+00  0.00000000000E+00  0.44343425173E+03  0.44343425173E+03  0.00000000000E+00 0.  1.
         21   -1    0    0  502  503 -0.00000000000E+00 -0.00000000000E+00 -0.21874198762E+03  0.21874198762E+03  0.00000000000E+00 0.  1.
         -6    2    1    2    0  503 -0.16487450287E+03 -0.10575066718E+02 -0.95205070730E+02  0.25664288819E+03  0.17177349281E+03 0.  0.
        -24    2    3    3    0    0 -0.10498856442E+03 -0.11646120790E+02  0.11543869383E+02  0.13414840261E+03  0.81879803461E+02 0.  0.
          6    2    1    2  501    0  0.16487450287E+03  0.10575066718E+02  0.31989733484E+03  0.40553335117E+03  0.18662143591E+03 0.  0.
         24    2    5    5    0    0  0.17005402477E+03 -0.21875469740E+02  0.17478325018E+03  0.25667082288E+03  0.77031287503E+02 0.  0.
          5    1    5    5  501    0 -0.51795219042E+01  0.32450536459E+02  0.14511408466E+03  0.14886252829E+03  0.47000000000E+01 0. -1.
        -13    1    6    6    0    0  0.64326359993E+02  0.23785712670E+02  0.92402337726E+02  0.11507316253E+03  0.00000000000E+00 0.  1.
         14    1    6    6    0    0  0.10572766478E+03 -0.45661182410E+02  0.82380912455E+02  0.14159766035E+03  0.00000000000E+00 0. -1.
         -5    1    3    3    0  503 -0.59885938449E+02  0.10710540719E+01 -0.10674894011E+03  0.12249448557E+03  0.47000000000E+01 0.  1.
         13    1    4    4    0    0 -0.94044246783E+01 -0.32989798287E+02  0.11593610852E+02  0.36210244505E+02  0.00000000000E+00 0. -1.
        -14    1    4    4    0    0 -0.95584139742E+02  0.21343677497E+02 -0.49741468838E-01  0.97938158108E+02  0.00000000000E+00 0.  1.
</event>
<event>
12    1  0.8226261E-002  0.2148188E+03  0.7818608E-02  0.1139857E+00
         21   -1    0    0  503  502  0.00000000000E+00  0.00000000000E+00  0.53156571322E+03  0.53156571322E+03  0.00000000000E+00 0. -1.
         21   -1    0    0  501  503 -0.00000000000E+00 -0.00000000000E+00 -0.14680601433E+03  0.14680601433E+03  0.00000000000E+00 0. -1.
          6    2    1    2  501    0 -0.10635097262E+03  0.25387863602E+02 -0.34463234880E+02  0.20731443691E+03  0.17273241791E+03 0.  0.
         24    2    3    3    0    0 -0.60019664653E+02  0.63341935053E+02 -0.70592449366E+02  0.13721085799E+03  0.78923790844E+02 0.  0.
         -6    2    1    2    0  502  0.10635097262E+03 -0.25387863602E+02  0.41922293377E+03  0.47105729065E+03  0.18491087011E+03 0.  0.
        -24    2    5    5    0    0  0.11876148016E+03  0.13341962960E+02  0.19126424363E+03  0.23945143025E+03  0.80452963972E+02 0.  0.
          5    1    3    3  501    0 -0.46331307967E+02 -0.37954071451E+02  0.36129214486E+02  0.70103578917E+02  0.47000000000E+01 0. -1.
        -13    1    4    4    0    0  0.14904050654E+02  0.33510878027E+02 -0.17318720638E+02  0.40559188312E+02  0.00000000000E+00 0.  1.
         14    1    4    4    0    0 -0.74923715307E+02  0.29831057026E+02 -0.53273728728E+02  0.96651669676E+02  0.00000000000E+00 0. -1.
         -5    1    5    5    0  502 -0.12410507540E+02 -0.38729826562E+02  0.22795869014E+03  0.23160586040E+03  0.47000000000E+01 0.  1.
         11    1    6    6    0    0  0.89038054938E+02  0.10170824663E+02  0.18936365582E+03  0.20949896192E+03  0.00000000000E+00 0. -1.
        -12    1    6    6    0    0  0.29723425222E+02  0.31711382972E+01  0.19005878146E+01  0.29952468331E+02  0.00000000000E+00 0.  1.
</event>
<event>
12    1  0.8226261E-002  0.2120625E+03  0.7818608E-02  0.1142278E+00
         21   -1    0    0  501  502  0.00000000000E+00  0.00000000000E+00  0.80416333367E+02  0.80416333367E+02  0.00000000000E+00 0.  1.
         21   -1    0    0  502  503 -0.00000000000E+00 -0.00000000000E+00 -0.14588704821E+04  0.14588704821E+04  0.00000000000E+00 0.  1.
         -6    2    1    2    0  503 -0.93277606170E+02 -0.45611654331E+02 -0.13105970513E+04  0.13276426999E+04  0.18490368555E+03 0.  0.
        -24    2    3    3    0    0  0.10678410973E+02  0.13997517106E+01 -0.31600637072E+03  0.32651851296E+03  0.81475917951E+02 0.  0.
          6    2    1    2  501    0  0.93277606170E+02  0.45611654331E+02 -0.67857097462E+02  0.21164411558E+03  0.17148618359E+03 0.  0.
         24    2    5    5    0    0  0.21879646555E+02 -0.14464737643E+01 -0.91064003171E+02  0.12291539121E+03  0.79591013955E+02 0.  0.
          5    1    5    5  501    0  0.71397959615E+02  0.47058128095E+02  0.23206905709E+02  0.88728724378E+02  0.47000000000E+01 0. -1.
        -13    1    6    6    0    0  0.25342644629E+02 -0.37686924357E+02 -0.42320917912E+02  0.62077483818E+02  0.00000000000E+00 0.  1.
         14    1    6    6    0    0 -0.34629980746E+01  0.36240450593E+02 -0.48743085259E+02  0.60837907389E+02  0.00000000000E+00 0. -1.
         -5    1    3    3    0  503 -0.10395601714E+03 -0.47011406042E+02 -0.99459068058E+03  0.10011241869E+04  0.47000000000E+01 0.  1.
         13    1    4    4    0    0  0.20370752900E+02 -0.22095480265E+01 -0.31549883364E+03  0.31616350787E+03  0.00000000000E+00 0. -1.
        -14    1    4    4    0    0 -0.96923419270E+01  0.36092997370E+01 -0.50753707489E+00  0.10355005094E+02  0.00000000000E+00 0.  1.
</event>
<event>
12    1  0.8226261E-002  0.2170729E+03  0.7818608E-02  0.1136478E+00
         21   -1    0    0  501  502  0.00000000000E+00  0.00000000000E+00  0.75695282485E+03  0.75695282485E+03  0.00000000000E+00 0.  1.
         21   -1    0    0  502  503 -0.00000000000E+00 -0.00000000000E+00 -0.28055896348E+03  0.28055896348E+03  0.00000000000E+00 0.  1.
         -6    2    1    2    0  503 -0.11526804916E+03  0.59175856462E+02 -0.22027101573E+03  0.30781144310E+03  0.17158105660E+03 0.  0.
        -24    2    3    3    0    0 -0.90972354055E+02  0.96683400897E+02 -0.11535257801E+03  0.19367527326E+03  0.81118709358E+02 0.  0.
          6    2    1    2  501    0  0.11526804916E+03 -0.59175856462E+02  0.69666487711E+03  0.72970034524E+03  0.17416124054E+03 0.  0.
         24    2    5    5    0    0  0.62577372256E+01  0.25523557520E+02  0.25775807304E+03  0.26957154643E+03  0.74424345250E+02 0.  0.
          5    1    5    5  501    0  0.10901031193E+03 -0.84699413982E+02  0.43890680407E+03  0.46012879881E+03  0.47000000000E+01 0. -1.
        -13    1    6    6    0    0 -0.28317785882E+02  0.16870284106E+01  0.16918581377E+03  0.17154761043E+03  0.00000000000E+00 0.  1.
         14    1    6    6    0    0  0.34575523107E+02  0.23836529109E+02  0.88572259268E+02  0.98023936006E+02  0.00000000000E+00 0. -1.
         -5    1    3    3    0  503 -0.24295695103E+02 -0.37507544435E+02 -0.10491843773E+03  0.11413616984E+03  0.47000000000E+01 0.  1.
         11    1    4    4    0    0 -0.82598935306E+02  0.10583656884E+03 -0.12035105510E+03  0.18030069296E+03  0.00000000000E+00 0. -1.
        -12    1    4    4    0    0 -0.83734187482E+01 -0.91531679468E+01  0.49984770901E+01  0.13374580301E+02  0.00000000000E+00 0.  1.
</event>
<event>
12    1  0.8226261E-002  0.1781774E+03  0.7818608E-02  0.1170240E+00
         21   -1    0    0  501  502  0.00000000000E+00  0.00000000000E+00  0.69331129096E+02  0.69331129096E+02  0.00000000000E+00 0. -1.
         21   -1    0    0  502  503 -0.00000000000E+00 -0.00000000000E+00 -0.13939606521E+04  0.13939606521E+04  0.00000000000E+00 0. -1.
         -6    2    1    2    0  503 -0.22663575275E+02  0.31685758873E+02 -0.12624290474E+04  0.12745694969E+04  0.17112182142E+03 0.  0.
        -24    2    3    3    0    0 -0.56946673162E+02  0.63565611093E+02 -0.65821962650E+03  0.66853090896E+03  0.79981179193E+02 0.  0.
          6    2    1    2  501    0  0.22663575275E+02 -0.31685758873E+02 -0.62200475606E+02  0.18872228429E+03  0.17386654785E+03 0.  0.
         24    2    5    5    0    0 -0.76157858831E+01 -0.59425939046E+02 -0.96345627895E+02  0.13510942452E+03  0.73366437512E+02 0.  0.
          5    1    5    5  501    0  0.30279361158E+02  0.27740180173E+02  0.34145152289E+02  0.53612859773E+02  0.47000000000E+01 0. -1.
        -13    1    6    6    0    0 -0.17256045181E+02 -0.72059258299E+02 -0.59659008421E+02  0.95128886715E+02  0.00000000000E+00 0.  1.
         14    1    6    6    0    0  0.96402592974E+01  0.12633319253E+02 -0.36686619473E+02  0.39980537803E+02  0.00000000000E+00 0. -1.
         -5    1    3    3    0  503  0.34283097887E+02 -0.31879852220E+02 -0.60420942093E+03  0.60603858798E+03  0.47000000000E+01 0.  1.
         13    1    4    4    0    0  0.30753358698E+01  0.50463630420E+02 -0.39579846026E+03  0.39901435667E+03  0.00000000000E+00 0. -1.
        -14    1    4    4    0    0 -0.60022009032E+02  0.13101980673E+02 -0.26242116624E+03  0.26951655229E+03  0.00000000000E+00 0.  1.
</event>
<event>
12    1  0.8226261E-002  0.3414099E+03  0.7818608E-02  0.1066219E+00
         21   -1    0    0  503  502  0.00000000000E+00  0.00000000000E+00  0.10887880145E+04  0.10887880145E+04  0.00000000000E+00 0.  1.
         21   -1    0    0  501  503 -0.00000000000E+00 -0.00000000000E+00 -0.10800170568E+03  0.10800170568E+03  0.00000000000E+00 0. -1.
          6    2    1    2  501    0 -0.44129092894E+02  0.29172695295E+03  0.43262102314E+03  0.55110949696E+03  0.17178107014E+03 0.  0.
         24    2    3    3    0    0 -0.85842376700E+01  0.81067184456E+02  0.23054208413E+03  0.25700243756E+03  0.79088702266E+02 0.  0.
         -6    2    1    2    0  502  0.44129092894E+02 -0.29172695295E+03  0.54816528571E+03  0.64568022325E+03  0.17136446050E+03 0.  0.
        -24    2    5    5    0    0  0.61208607334E+02 -0.95785979789E+02  0.28857846012E+03  0.31996257743E+03  0.78594374966E+02 0.  0.
          5    1    3    3  501    0 -0.35544855224E+02  0.21065976850E+03  0.20207893901E+03  0.29410705940E+03  0.47000000000E+01 0. -1.
        -11    1    4    4    0    0 -0.46288968776E+00  0.96135483585E+02  0.18823953842E+03  0.21136785303E+03  0.00000000000E+00 0.  1.
         12    1    4    4    0    0 -0.81213479822E+01 -0.15068299129E+02  0.42302545710E+02  0.45634584530E+02  0.00000000000E+00 0. -1.
         -5    1    5    5    0  502 -0.17079514440E+02 -0.19594097316E+03  0.25958682559E+03  0.32571764582E+03  0.47000000000E+01 0.  1.
         13    1    6    6    0    0  0.31662022758E+02 -0.39234484962E+02  0.43102363132E+02  0.66329798755E+02  0.00000000000E+00 0. -1.
        -14    1    6    6    0    0  0.29546584576E+02 -0.56551494827E+02  0.24547609698E+03  0.25363277867E+03  0.00000000000E+00 0.  1.
</event>
<event>
12    1  0.8226261E-002  0.1759459E+03  0.7818608E-02  0.1171967E+00
         21   -1    0    0  503  502  0.00000000000E+00  0.00000000000E+00  0.81139578945E+03  0.81139578945E+03  0.00000000000E+00 0.  1.
         21   -1    0    0  501  503 -0.00000000000E+00 -0.00000000000E+00 -0.75209992345E+02  0.75209992345E+02  0.00000000000E+00 0.  1.
          6    2    1    2  501    0 -0.26164740769E+02  0.23272175815E+02  0.55876831232E+02  0.18391293382E+03  0.17168447551E+03 0.  0.
         24    2    3    3    0    0 -0.49794630292E+02 -0.31226084420E+02  0.71335257651E+02  0.12235414083E+03  0.80170089434E+02 0.  0.
         -6    2    1    2    0  502  0.26164740769E+02 -0.23272175815E+02  0.68030896587E+03  0.70269284797E+03  0.17242610509E+03 0.  0.
        -24    2    5    5    0    0  0.31249613272E+02  0.36145085821E+02  0.23960949513E+03  0.25795204658E+03  0.82725707133E+02 0.  0.
          5    1    3    3  501    0  0.23629889523E+02  0.54498260234E+02 -0.15458426418E+02  0.61558792993E+02  0.47000000000E+01 0. -1.
        -13    1    4    4    0    0 -0.26952240155E+02 -0.40363359047E+02  0.17703938786E+01  0.48567049503E+02  0.00000000000E+00 0.  1.
         14    1    4    4    0    0 -0.22842390137E+02  0.91372746276E+01  0.69564863772E+02  0.73787091326E+02  0.00000000000E+00 0. -1.
         -5    1    5    5    0  502 -0.50848725030E+01 -0.59417261635E+02  0.44069947075E+03  0.44474080140E+03  0.47000000000E+01 0.  1.
         13    1    6    6    0    0  0.45474334693E+02  0.11254643816E+02  0.21538097565E+03  0.22041675707E+03  0.00000000000E+00 0. -1.
        -14    1    6    6    0    0 -0.14224721421E+02  0.24890442005E+02  0.24228519473E+02  0.37535289510E+02  0.00000000000E+00 0.  1.
</event>
<event>
12    1  0.8226261E-002  0.2147273E+03  0.7818608E-02  0.1138025E+00
         21   -1    0    0  503  502  0.00000000000E+00  0.00000000000E+00  0.87213140095E+02  0.87213140095E+02  0.00000000000E+00 0.  1.
         21   -1    0    0  501  503 -0.00000000000E+00 -0.00000000000E+00 -0.80182726206E+03  0.80182726206E+03  0.00000000000E+00 0. -1.
          6    2    1    2  501    0  0.67471147465E+02 -0.10880062319E+03 -0.61807737030E+03  0.65431449673E+03  0.17238878621E+03 0.  0.
         24    2    3    3    0    0 -0.16724843405E+02 -0.46453361916E+02 -0.16922642196E+03  0.19337479385E+03  0.79489582884E+02 0.  0.
         -6    2    1    2    0  502 -0.67471147465E+02  0.10880062319E+03 -0.96536751666E+02  0.23472590542E+03  0.17142629585E+03 0.  0.
        -24    2    5    5    0    0  0.78175459357E+01  0.11331827096E+03 -0.57077248808E+02  0.14947369806E+03  0.78628426932E+02 0.  0.
          5    1    3    3  501    0  0.84195990869E+02 -0.62347261272E+02 -0.44885094834E+03  0.46093970288E+03  0.47000000000E+01 0. -1.
        -13    1    4    4    0    0 -0.12183019070E+02 -0.68769215539E+02 -0.11478739346E+03  0.13436434295E+03  0.00000000000E+00 0.  1.
         14    1    4    4    0    0 -0.45418243342E+01  0.22315853623E+02 -0.54439028505E+02  0.59010450903E+02  0.00000000000E+00 0. -1.
         -5    1    5    5    0  502 -0.75288693400E+02 -0.45176477700E+01 -0.39459502858E+02  0.85252207368E+02  0.47000000000E+01 0.  1.
         11    1    6    6    0    0 -0.17943232249E+02  0.76932858153E+02 -0.67250523908E+02  0.10374611903E+03  0.00000000000E+00 0. -1.
        -12    1    6    6    0    0  0.25760778185E+02  0.36385412805E+02  0.10173275100E+02  0.45727579030E+02  0.00000000000E+00 0.  1.
</event>
<event>
12    1  0.8226261E-002  0.2661886E+03  0.7818608E-02  0.1104159E+00
         21   -1    0    0  501  502  0.00000000000E+00  0.00000000000E+00  0.23123565931E+03  0.23123565931E+03  0.00000000000E+00 0. -1.
         21   -1    0    0  502  503 -0.00000000000E+00 -0.00000000000E+00 -0.30114551389E+03  0.30114551389E+03  0.00000000000E+00 0. -1.
         -6    2    1    2    0  503 -0.73784072694E+02 -0.18767454351E+03 -0.33545598289E+02  0.26372020423E+03  0.16660496777E+03 0.  0.
        -24    2    3    3    0    0 -0.25693028068E+02 -0.17663670541E+03  0.13653682832E+02  0.19527720180E+03  0.78013493052E+02 0.  0.
          6    2    1    2  501    0  0.73784072694E+02  0.18767454351E+03 -0.36364256284E+02  0.26866096897E+03  0.17375423290E+03 0.  0.
         24    2    5    5    0    0  0.11465768723E+03  0.11105243411E+03 -0.13420065963E+02  0.17871584190E+03  0.79247874504E+02 0.  0.
          5    1    5    5  501    0 -0.40873614537E+02  0.76622109399E+02 -0.22944190321E+02  0.89945127070E+02  0.47000000000E+01 0. -1.
        -11    1    6    6    0    0  0.21679333030E+02 -0.78383904062E+01 -0.15485752469E+02  0.27771250860E+02  0.00000000000E+00 0.  1.
         12    1    6    6    0    0  0.92978354201E+02  0.11889082452E+03  0.20656865058E+01  0.15094459104E+03  0.00000000000E+00 0. -1.
         -5    1    3    3    0  503 -0.48091044626E+02 -0.11037838105E+02 -0.47199281121E+02  0.68443002430E+02  0.47000000000E+01 0.  1.
         13    1    4    4    0    0 -0.50134444516E+02 -0.15213737415E+03  0.11899900568E+02  0.16062643237E+03  0.00000000000E+00 0. -1.
        -14    1    4    4    0    0  0.24441416448E+02 -0.24499331254E+02  0.17537822632E+01  0.34650769430E+02  0.00000000000E+00 0.  1.
</event>
<event>
12    1  0.8226261E-002  0.2885639E+03  0.7818608E-02  0.1091368E+00
         21   -1    0    0  501  502  0.00000000000E+00  0.00000000000E+00  0.32180383203E+03  0.32180383203E+03  0.00000000000E+00 0.  1.
         21   -1    0    0  502  503 -0.00000000000E+00 -0.00000000000E+00 -0.26990850565E+03  0.26990850565E+03  0.00000000000E+00 0. -1.
         -6    2    1    2    0  503 -0.70640544166E+02 -0.21979346919E+03 -0.38979902604E+02  0.28917729201E+03  0.16971982154E+03 0.  0.
        -24    2    3    3    0    0 -0.86929591048E+02 -0.14890069349E+03 -0.79628541214E+02  0.20571759804E+03  0.79062350380E+02 0.  0.
          6    2    1    2  501    0  0.70640544166E+02  0.21979346919E+03  0.90875228976E+02  0.30253504567E+03  0.17311814186E+03 0.  0.
         24    2    5    5    0    0  0.77857342121E+02  0.22275823469E+03  0.11683769247E+03  0.27502120337E+03  0.79389036246E+02 0.  0.
          5    1    5    5  501    0 -0.72167979552E+01 -0.29647655015E+01 -0.25962463498E+02  0.27513842300E+02  0.47000000000E+01 0. -1.
        -13    1    6    6    0    0 -0.55603855264E+01  0.55193683968E+02  0.21809233443E+01  0.55515917211E+02  0.00000000000E+00 0.  1.
         14    1    6    6    0    0  0.83417727648E+02  0.16756455073E+03  0.11465676913E+03  0.21950528616E+03  0.00000000000E+00 0. -1.
         -5    1    3    3    0  503  0.16289046882E+02 -0.70892775706E+02  0.40648638610E+02  0.83459693964E+02  0.47000000000E+01 0.  1.
         11    1    4    4    0    0 -0.13369454656E+02 -0.72461601914E+02 -0.65701330255E+02  0.98722291641E+02  0.00000000000E+00 0. -1.
        -12    1    4    4    0    0 -0.73560136392E+02 -0.76439091573E+02 -0.13927210959E+02  0.10699530640E+03  0.00000000000E+00 0.  1.
</event>
<event>
12    1  0.8226261E-002  0.1981213E+03  0.7818608E-02  0.1151408E+00
         21   -1    0    0  501  502  0.00000000000E+00  0.00000000000E+00  0.56396912717E+02  0.56396912717E+02  0.00000000000E+00 0.  1.
         21   -1    0    0  502  503 -0.00000000000E+00 -0.00000000000E+00 -0.84579886851E+03  0.84579886851E+03  0.00000000000E+00 0.  1.
         -6    2    1    2    0  503 -0.48854468766E+02  0.86201529808E+02 -0.58503341236E+03  0.61755823502E+03  0.17116254612E+03 0.  0.
        -24    2    3    3    0    0 -0.38193431791E+02  0.85493592702E+02 -0.21939019655E+03  0.25172875267E+03  0.80420233479E+02 0.  0.
          6    2    1    2  501    0  0.48854468766E+02 -0.86201529808E+02 -0.20436854343E+03  0.28463754621E+03  0.17156505562E+03 0.  0.
         24    2    5    5    0    0  0.53072378697E+02 -0.97128163728E+02 -0.77936466818E+02  0.15757715864E+03  0.80659224492E+02 0.  0.
          5    1    5    5  501    0 -0.42179099310E+01  0.10926633920E+02 -0.12643207661E+03  0.12706038757E+03  0.47000000000E+01 0. -1.
        -13    1    6    6    0    0  0.40127489708E+02 -0.90882884164E+02 -0.93475993742E+02  0.13640995371E+03  0.00000000000E+00 0.  1.
         14    1    6    6    0    0  0.12944888988E+02 -0.62452795638E+01  0.15539526923E+02  0.21167204935E+02  0.00000000000E+00 0. -1.
         -5    1    3    3    0  503 -0.10661036974E+02  0.70793710637E+00 -0.36564321582E+03  0.36582948235E+03  0.47000000000E+01 0.  1.
         13    1    4    4    0    0  0.20567849620E+02  0.47832035567E+02 -0.11394490187E+03  0.12527721551E+03  0.00000000000E+00 0. -1.
        -14    1    4    4    0    0 -0.58761281411E+02  0.37661557135E+02 -0.10544529468E+03  0.12645153715E+03  0.00000000000E+00 0.  1.
</event>
<event>
12    1  0.8226261E-002  0.2500389E+03  0.7818608E-02  0.1113471E+00
         21   -1    0    0  501  502  0.00000000000E+00  0.00000000000E+00  0.21896461423E+03  0.21896461423E+03  0.00000000000E+00 0. -1.
         21   -1    0    0  502  503 -0.00000000000E+00 -0.00000000000E+00 -0.32153842495E+03  0.32153842495E+03  0.00000000000E+00 0. -1.
         -6    2    1    2    0  503 -0.39679856860E+02 -0.17707153488E+03 -0.14333634081E+03  0.28716323680E+03  0.17026038431E+03 0.  0.
        -24    2    3    3    0    0  0.19786538803E+02 -0.34008331744E+02 -0.81663316450E+02  0.12034302148E+03  0.79154733399E+02 0.  0.
          6    2    1    2  501    0  0.39679856860E+02  0.17707153488E+03  0.40762530092E+02  0.25333980238E+03  0.17201933643E+03 0.  0.
         24    2    5    5    0    0  0.47185086069E+02  0.15219983873E+03 -0.27148210768E+02  0.18047768287E+03  0.80274188947E+02 0.  0.
          5    1    5    5  501    0 -0.75052292092E+01  0.24871696155E+02  0.67910740860E+02  0.72862119508E+02  0.47000000000E+01 0. -1.
        -13    1    6    6    0    0  0.12788021007E+02 -0.89717370734E-01  0.14059207755E+02  0.19005337491E+02  0.00000000000E+00 0.  1.
         14    1    6    6    0    0  0.34397065063E+02  0.15228955610E+03 -0.41207418522E+02  0.16147234538E+03  0.00000000000E+00 0. -1.
         -5    1    3    3    0  503 -0.59466395663E+02 -0.14306320314E+03 -0.61673024358E+02  0.16682021532E+03  0.47000000000E+01 0.  1.
         13    1    4    4    0    0  0.35255454660E+02 -0.51666110064E+02 -0.70812279095E+02  0.94481283242E+02  0.00000000000E+00 0. -1.
        -14    1    4    4    0    0 -0.15468915857E+02  0.17657778321E+02 -0.10851037356E+02  0.25861738238E+02  0.00000000000E+00 0.  1.
</event>
<event>
12    1  0.8226261E-002  0.2643357E+03  0.7818608E-02  0.1104772E+00
         21   -1    0    0  503  502  0.00000000000E+00  0.00000000000E+00  0.93593462583E+02  0.93593462583E+02  0.00000000000E+00 0. -1.
         21   -1    0    0  501  503 -0.00000000000E+00 -0.00000000000E+00 -0.10981132863E+04  0.10981132863E+04  0.00000000000E+00 0. -1.
          6    2    1    2  501    0  0.24942115869E+02 -0.19783540834E+03 -0.84217902335E+03  0.88268844174E+03  0.17352930555E+03 0.  0.
         24    2    3    3    0    0 -0.40165825468E+02 -0.14364303650E+03 -0.43287126022E+03  0.46468031725E+03  0.79395553031E+02 0.  0.
         -6    2    1    2    0  502 -0.24942115869E+02  0.19783540834E+03 -0.16234080041E+03  0.30901830718E+03  0.17139667661E+03 0.  0.
        -24    2    5    5    0    0 -0.52211466541E+02  0.18779274319E+03 -0.87423746375E+02  0.22852527894E+03  0.81171054282E+02 0.  0.
          5    1    3    3  501    0  0.65107941338E+02 -0.54192371845E+02 -0.40930776312E+03  0.41800812450E+03  0.47000000000E+01 0. -1.
        -13    1    4    4    0    0 -0.40927920590E+01 -0.92373550309E+02 -0.34203300298E+03  0.35431087885E+03  0.00000000000E+00 0.  1.
         14    1    4    4    0    0 -0.36073033409E+02 -0.51269486190E+02 -0.90838257240E+02  0.11036943840E+03  0.00000000000E+00 0. -1.
         -5    1    5    5    0  502  0.27269350671E+02  0.10042665160E+02 -0.74917054034E+02  0.80493028236E+02  0.47000000000E+01 0.  1.
         11    1    6    6    0    0 -0.11038378573E+02 -0.29010102678E+01  0.52282078863E+01  0.12553717370E+02  0.00000000000E+00 0. -1.
        -12    1    6    6    0    0 -0.41173087968E+02  0.19069375345E+03 -0.92651954261E+02  0.21597156157E+03  0.00000000000E+00 0.  1.
</event>
<event>
12    1  0.8226261E-002  0.1920672E+03  0.7818608E-02  0.1156688E+00
         21   -1    0    0  501  502  0.00000000000E+00  0.00000000000E+00  0.16576138385E+03  0.16576138385E+03  0.00000000000E+00 0. -1.
         21   -1    0    0  502  503 -0.00000000000E+00 -0.00000000000E+00 -0.22471022943E+03  0.22471022943E+03  0.00000000000E+00 0. -1.
         -6    2    1    2    0  503  0.24183300850E+02 -0.81415572065E+02 -0.86236928935E+01  0.19226070098E+03  0.17226863223E+03 0.  0.
        -24    2    3    3    0    0  0.45630611760E+01 -0.63420213755E+02 -0.69026646966E+02  0.12608371415E+03  0.84199049537E+02 0.  0.
          6    2    1    2  501    0 -0.24183300850E+02  0.81415572065E+02 -0.50325152687E+02  0.19821091229E+03  0.17187675044E+03 0.  0.
         24    2    5    5    0    0 -0.21916477162E+02  0.90143255738E+02  0.21670429526E+02  0.12550076987E+03  0.81698820044E+02 0.  0.
          5    1    5    5  501    0 -0.22668236876E+01 -0.87276836724E+01 -0.71995582213E+02  0.72710142415E+02  0.47000000000E+01 0. -1.
        -11    1    6    6    0    0 -0.16736375084E+02  0.46592558753E+02 -0.29874221768E+02  0.57822503477E+02  0.00000000000E+00 0.  1.
         12    1    6    6    0    0 -0.51801020788E+01  0.43550696984E+02  0.51544651293E+02  0.67678266395E+02  0.00000000000E+00 0. -1.
         -5    1    3    3    0  503  0.19620239674E+02 -0.17995358311E+02  0.60402954072E+02  0.66176986833E+02  0.47000000000E+01 0.  1.
         11    1    4    4    0    0  0.24518156134E+02 -0.58669677689E+02 -0.10991046733E+02  0.64529637909E+02  0.00000000000E+00 0. -1.
        -12    1    4    4    0    0 -0.19955094958E+02 -0.47505360652E+01 -0.58035600233E+02  0.61554076242E+02  0.00000000000E+00 0.  1.
</event>
<event>
12    1  0.8226261E-002  0.2105392E+03  0.7818608E-02  0.1141176E+00
         21   -1    0    0  501  502  0.00000000000E+00  0.00000000000E+00  0.52792990460E+03  0.52792990460E+03  0.00000000000E+00 0. -1.
         21   -1    0    0  502  503 -0.00000000000E+00 -0.00000000000E+00 -0.86539853938E+02  0.86539853938E+02  0.00000000000E+00 0. -1.
         -6    2    1    2    0  503  0.47602806884E+02 -0.11231886184E+03  0.16684222723E+03  0.26848813648E+03  0.17137093306E+03 0.  0.
        -24    2    3    3    0    0  0.13416678731E+02 -0.29312512604E+01  0.12248004874E+03  0.14550670054E+03  0.77344929119E+02 0.  0.
          6    2    1    2  501    0 -0.47602806884E+02  0.11231886184E+03  0.27454782343E+03  0.34598162205E+03  0.17159609990E+03 0.  0.
         24    2    5    5    0    0 -0.76542216205E+02  0.19782658688E+02  0.13008974998E+03  0.17193949126E+03  0.79936106731E+02 0.  0.
          5    1    5    5  501    0  0.28939409320E+02  0.92536203151E+02  0.14445807345E+03  0.17404213079E+03  0.47000000000E+01 0. -1.
        -13    1    6    6    0    0  0.52957928731E+01  0.11789528196E+02 -0.49458732283E+01  0.13838354643E+02  0.00000000000E+00 0.  1.
         14    1    6    6    0    0 -0.81838009078E+02  0.79931304913E+01  0.13503562321E+03  0.15810113662E+03  0.00000000000E+00 0. -1.
         -5    1    3    3    0  503  0.34186128154E+02 -0.10938761058E+03  0.44362178489E+02  0.12298143594E+03  0.47000000000E+01 0.  1.
         13    1    4    4    0    0  0.42073240401E+02 -0.10380639633E+02  0.97762919941E+02  0.10693691483E+03  0.00000000000E+00 0. -1.
        -14    1    4    4    0    0 -0.28656561671E+02  0.74493883726E+01  0.24717128796E+02  0.38569785712E+02  0.00000000000E+00 0.  1.
</event>
<event>
12    1  0.8226261E-002  0.3142756E+03  0.7818608E-02  0.1078443E+00
         21   -1    0    0  501  502  0.00000000000E+00  0.00000000000E+00  0.50995108090E+03  0.50995108090E+03  0.00000000000E+00 0.  1.
         21   -1    0    0  502  503 -0.00000000000E+00 -0.00000000000E+00 -0.22042809139E+03  0.22042809139E+03  0.00000000000E+00 0.  1.
         -6    2    1    2    0  503 -0.11206466151E+03  0.23667274661E+03  0.15751280722E+02  0.31358170722E+03  0.17179320974E+03 0.  0.
        -24    2    3    3    0    0 -0.13127592600E+03  0.22343678407E+03  0.47563740111E+02  0.27385280137E+03  0.74670490979E+02 0.  0.
          6    2    1    2  501    0  0.11206466151E+03 -0.23667274661E+03  0.27377170879E+03  0.41679746507E+03  0.17377197993E+03 0.  0.
         24    2    5    5    0    0  0.38203126444E+02 -0.19495323269E+03  0.24908697254E+03  0.32832447254E+03  0.79286805800E+02 0.  0.
          5    1    5    5  501    0  0.73861535062E+02 -0.41719513916E+02  0.24684736253E+02  0.88472992529E+02  0.47000000000E+01 0. -1.
        -11    1    6    6    0    0  0.51996409556E+02 -0.15353390671E+03  0.15352328750E+03  0.22326147657E+03  0.00000000000E+00 0.  1.
         12    1    6    6    0    0 -0.13793283112E+02 -0.41419325983E+02  0.95563685040E+02  0.10506299597E+03  0.00000000000E+00 0. -1.
         -5    1    3    3    0  503  0.19211264491E+02  0.13235962541E+02 -0.31812459389E+02  0.39728905851E+02  0.47000000000E+01 0.  1.
         13    1    4    4    0    0 -0.22179976398E+02  0.23830116089E+02 -0.17892325352E+02  0.37147827559E+02  0.00000000000E+00 0. -1.
        -14    1    4    4    0    0 -0.10909594960E+03  0.19960666798E+03  0.65456065462E+02  0.23670497381E+03  0.00000000000E+00 0.  1.
</event>
<event>
12    1  0.8226261E-002  0.1838217E+03  0.7818608E-02  0.1164362E+00
         21   -1    0    0  501  502  0.00000000000E+00  0.00000000000E+00  0.24141907954E+03  0.24141907954E+03  0.00000000000E+00 0.  1.
         21   -1    0    0  502  503 -0.00000000000E+00 -0.00000000000E+00 -0.13953813582E+03  0.13953813582E+03  0.00000000000E+00 0. -1.
         -6    2    1    2    0  503  0.20895819250E+02 -0.60608506498E+02  0.42931744243E+02  0.18791469546E+03  0.17134401590E+03 0.  0.
        -24    2    3    3    0    0 -0.58748939313E+02 -0.46678419951E+02  0.13251069676E+02  0.10165713162E+03  0.67292412657E+02 0.  0.
          6    2    1    2  501    0 -0.20895819250E+02  0.60608506498E+02  0.58949199477E+02  0.19304251991E+03  0.17227994675E+03 0.  0.
         24    2    5    5    0    0 -0.24519449017E+02 -0.32955710175E+02 -0.78513809269E-01  0.82255542918E+02  0.71264899937E+02 0.  0.
          5    1    5    5  501    0  0.36236297671E+01  0.93564216673E+02  0.59027713286E+02  0.11078697699E+03  0.47000000000E+01 0. -1.
        -13    1    6    6    0    0  0.76432163205E+00 -0.18699023740E+02  0.33191112830E+02  0.38103643491E+02  0.00000000000E+00 0.  1.
         14    1    6    6    0    0 -0.25283770649E+02 -0.14256686434E+02 -0.33269626639E+02  0.44151899427E+02  0.00000000000E+00 0. -1.
         -5    1    3    3    0  503  0.79644758563E+02 -0.13930086547E+02  0.29680674567E+02  0.86257563845E+02  0.47000000000E+01 0.  1.
         13    1    4    4    0    0 -0.27853265275E+02 -0.60713249514E+02  0.71509177985E+01  0.67179153599E+02  0.00000000000E+00 0. -1.
        -14    1    4    4    0    0 -0.30895674039E+02  0.14034829563E+02  0.61001518771E+01  0.34477978016E+02  0.00000000000E+00 0.  1.
</event>
<event>
12    1  0.8226261E-002  0.2041220E+03  0.7818608E-02  0.1146527E+00
         21   -1    0    0  503  502  0.00000000000E+00  0.00000000000E+00  0.15368935974E+04  0.15368935974E+04  0.00000000000E+00 0.  1.
         21   -1    0    0  501  503 -0.00000000000E+00 -0.00000000000E+00 -0.27023006769E+02  0.27023006769E+02  0.00000000000E+00 0. -1.
          6    2    1    2  501    0  0.95348460702E+02  0.51507713205E+02  0.78803989774E+03  0.81377973180E+03  0.17171545643E+03 0.  0.
         24    2    3    3    0    0  0.14258301779E+02 -0.23966116478E+02  0.44105220521E+03  0.44950722171E+03  0.82170680521E+02 0.  0.
         -6    2    1    2    0  502 -0.95348460702E+02 -0.51507713205E+02  0.72183069293E+03  0.75013687241E+03  0.17297804663E+03 0.  0.
        -24    2    5    5    0    0 -0.11552541811E+03 -0.19573942285E+02  0.37560849812E+03  0.40182842646E+03  0.81578667622E+02 0.  0.
          5    1    3    3  501    0  0.81090158923E+02  0.75473829684E+02  0.34698769254E+03  0.36427251010E+03  0.47000000000E+01 0. -1.
        -11    1    4    4    0    0  0.47078037393E+02 -0.16575818720E+02  0.31993294219E+03  0.32380269744E+03  0.00000000000E+00 0.  1.
         12    1    4    4    0    0 -0.32819735613E+02 -0.73902977580E+01  0.12111926302E+03  0.12570452427E+03  0.00000000000E+00 0. -1.
         -5    1    5    5    0  502  0.20176957410E+02 -0.31933770920E+02  0.34622219482E+03  0.34830844595E+03  0.47000000000E+01 0.  1.
         11    1    6    6    0    0 -0.92525400533E+02 -0.23056852466E+02  0.17007112437E+03  0.19497885920E+03  0.00000000000E+00 0. -1.
        -12    1    6    6    0    0 -0.23000017579E+02  0.34829101807E+01  0.20553737374E+03  0.20684956727E+03  0.00000000000E+00 0.  1.
</event>
<event>
12    1  0.8226261E-002  0.2162704E+03  0.7818608E-02  0.1137727E+00
         21   -1    0    0  503  502  0.00000000000E+00  0.00000000000E+00  0.17994756575E+04  0.17994756575E+04  0.00000000000E+00 0.  1.
         21   -1    0    0  501  503 -0.00000000000E+00 -0.00000000000E+00 -0.39361850948E+02  0.39361850948E+02  0.00000000000E+00 0.  1.
          6    2    1    2  501    0 -0.12115387069E+03  0.10472595998E+02  0.32451861320E+03  0.38704328642E+03  0.17234337702E+03 0.  0.
         24    2    3    3    0    0 -0.20633454768E+02 -0.10483434354E+02  0.57580229080E+02  0.10099835964E+03  0.79684026107E+02 0.  0.
         -6    2    1    2    0  502  0.12115387069E+03 -0.10472595998E+02  0.14355951933E+04  0.14517942220E+04  0.17884341833E+03 0.  0.
        -24    2    5    5    0    0  0.40063943568E+02  0.56851794350E+01  0.30896628355E+03  0.32212549165E+03  0.81653090329E+02 0.  0.
          5    1    3    3  501    0 -0.10052041592E+03  0.20956030352E+02  0.26693838412E+03  0.28604492679E+03  0.47000000000E+01 0. -1.
        -13    1    4    4    0    0 -0.25079911513E+02  0.31409564582E+02  0.34453487229E+02  0.52939640072E+02  0.00000000000E+00 0.  1.
         14    1    4    4    0    0  0.44464567453E+01 -0.41892998936E+02  0.23126741852E+02  0.48058719564E+02  0.00000000000E+00 0. -1.
         -5    1    5    5    0  502  0.81089927119E+02 -0.16157775433E+02  0.11266289097E+04  0.11296687303E+04  0.47000000000E+01 0.  1.
         13    1    6    6    0    0  0.15664713587E+02 -0.20532433081E+02  0.25115965946E+02  0.36024655521E+02  0.00000000000E+00 0. -1.
        -14    1    6    6    0    0  0.24399229981E+02  0.26217612516E+02  0.28385031760E+03  0.28610083613E+03  0.00000000000E+00 0.  1.
</event>
<event>
12    1  0.8226261E-002  0.1858910E+03  0.7818608E-02  0.1162437E+00
         21   -1    0    0  501  502  0.00000000000E+00  0.00000000000E+00  0.29893108608E+03  0.29893108608E+03  0.00000000000E+00 0. -1.
         21   -1    0    0  502  503 -0.00000000000E+00 -0.00000000000E+00 -0.29492818869E+03  0.29492818869E+03  0.00000000000E+00 0. -1.
         -6    2    1    2    0  503  0.56211665323E+02  0.40423491251E+02 -0.22991097271E+03  0.29507650332E+03  0.17151465674E+03 0.  0.
        -24    2    3    3    0    0  0.20743076684E+02 -0.31432608181E+02 -0.17958891950E+03  0.20033623287E+03  0.80399888723E+02 0.  0.
          6    2    1    2  501    0 -0.56211665323E+02 -0.40423491251E+02  0.23391387009E+03  0.29878277145E+03  0.17251561068E+03 0.  0.
         24    2    5    5    0    0  0.32806061876E+02 -0.13104418794E+02  0.80093674724E+02  0.11891273509E+03  0.80481540420E+02 0.  0.
          5    1    5    5  501    0 -0.89017727199E+02 -0.27319072457E+02  0.15382019537E+03  0.17987003636E+03  0.47000000000E+01 0. -1.
        -11    1    6    6    0    0  0.29561610587E+02 -0.39034955517E+02  0.19104091176E+02  0.52560278466E+02  0.00000000000E+00 0.  1.
         12    1    6    6    0    0  0.32444512891E+01  0.25930536723E+02  0.60989583548E+02  0.66352456626E+02  0.00000000000E+00 0. -1.
         -5    1    3    3    0  503  0.35468588639E+02  0.71856099432E+02 -0.50322053206E+02  0.94740270448E+02  0.47000000000E+01 0.  1.
         11    1    4    4    0    0  0.49588575802E+02 -0.59823082593E+01 -0.11037932108E+03  0.12115448562E+03  0.00000000000E+00 0. -1.
        -12    1    4    4    0    0 -0.28845499117E+02 -0.25450299922E+02 -0.69209598416E+02  0.79181747255E+02  0.00000000000E+00 0.  1.
</event>
<event>
12    1  0.8226261E-002  0.1956079E+03  0.7818608E-02  0.1153552E+00
         21   -1    0    0  501  502  0.00000000000E+00  0.00000000000E+00  0.29789163080E+03  0.29789163080E+03  0.00000000000E+00 0. -1.
         21   -1    0    0  502  503 -0.00000000000E+00 -0.00000000000E+00 -0.18677617175E+03  0.18677617175E+03  0.00000000000E+00 0. -1.
         -6    2    1    2    0  503  0.37020215082E+02  0.85010754554E+02 -0.80034636790E+02  0.21134804617E+03  0.17223567812E+03 0.  0.
        -24    2    3    3    0    0  0.21811970850E+02  0.90800898245E+02 -0.11742182042E+03  0.17030285209E+03  0.80589157613E+02 0.  0.
          6    2    1    2  501    0 -0.37020215082E+02 -0.85010754554E+02  0.19115009584E+03  0.27331975639E+03  0.17195349772E+03 0.  0.
         24    2    5    5    0    0 -0.51292473351E+02 -0.11971667458E+03  0.12611986338E+03  0.19809197313E+03  0.79819858947E+02 0.  0.
          5    1    5    5  501    0  0.14272258269E+02  0.34705920029E+02  0.65030232456E+02  0.75227783261E+02  0.47000000000E+01 0. -1.
        -13    1    6    6    0    0 -0.19307453413E+02 -0.39043111110E+02 -0.17070024853E+01  0.43589633400E+02  0.00000000000E+00 0.  1.
         14    1    6    6    0    0 -0.31985019938E+02 -0.80673563474E+02  0.12782686587E+03  0.15450233973E+03  0.00000000000E+00 0. -1.
         -5    1    3    3    0  503  0.15208244232E+02 -0.57901436902E+01  0.37387183634E+02  0.41045194075E+02  0.47000000000E+01 0.  1.
         11    1    4    4    0    0  0.67157778633E+01  0.50449721216E+02 -0.11658754323E+03  0.12721215067E+03  0.00000000000E+00 0. -1.
        -12    1    4    4    0    0  0.15096192987E+02  0.40351177029E+02 -0.83427719543E+00  0.43090701419E+02  0.00000000000E+00 0.  1.
</event>
<event>
12    1  0.8226261E-002  0.1776923E+03  0.7818608E-02  0.1170221E+00
         21   -1    0    0  503  502  0.00000000000E+00  0.00000000000E+00  0.29167059488E+03  0.29167059488E+03  0.00000000000E+00 0. -1.
         21   -1    0    0  501  503 -0.00000000000E+00 -0.00000000000E+00 -0.24724723433E+03  0.24724723433E+03  0.00000000000E+00 0. -1.
          6    2    1    2  501    0 -0.16742517572E+02  0.35512511025E+02 -0.18010045185E+03  0.25300339513E+03  0.17330059104E+03 0.  0.
         24    2    3    3    0    0 -0.95719339561E+01  0.90286400948E+02 -0.13668587148E+03  0.18258669203E+03  0.80072570384E+02 0.  0.
         -6    2    1    2    0  502  0.16742517572E+02 -0.35512511025E+02  0.22452381240E+03  0.28591443409E+03  0.17261132915E+03 0.  0.
        -24    2    5    5    0    0 -0.96558708459E+01 -0.37055761776E+02  0.23909661105E+03  0.25535771642E+03  0.81080260219E+02 0.  0.
          5    1    3    3  501    0 -0.71705836155E+01 -0.54773889923E+02 -0.43414580365E+02  0.70416703096E+02  0.47000000000E+01 0. -1.
        -11    1    4    4    0    0 -0.63088564824E+01 -0.11950202027E+02 -0.23112950710E+01  0.13709525284E+02  0.00000000000E+00 0.  1.
         12    1    4    4    0    0 -0.32630774737E+01  0.10223660298E+03 -0.13437457641E+03  0.16887716675E+03  0.00000000000E+00 0. -1.
         -5    1    5    5    0  502  0.26398388417E+02  0.15432507507E+01 -0.14572798654E+02  0.30556717666E+02  0.47000000000E+01 0.  1.
         11    1    6    6    0    0  0.57434103914E+01  0.23088255596E+02  0.37435442524E+02  0.44356134484E+02  0.00000000000E+00 0. -1.
        -12    1    6    6    0    0 -0.15399281237E+02 -0.60144017372E+02  0.20166116853E+03  0.21100158194E+03  0.00000000000E+00 0.  1.
</event>
<event>
12    1  0.8226261E-002  0.3553811E+03  0.7818608E-02  0.1060433E+00
         21   -1    0    0  501  502  0.00000000000E+00  0.00000000000E+00  0.83511362566E+03  0.83511362566E+03  0.00000000000E+00 0. -1.
         21   -1    0    0  502  503 -0.00000000000E+00 -0.00000000000E+00 -0.35253801874E+03  0.35253801874E+03  0.00000000000E+00 0.  1.
         -6    2    1    2    0  503  0.31067960847E+03 -0.13871475301E+02 -0.20747655585E+03  0.41146371883E+03  0.17187679814E+03 0.  0.
        -24    2    3    3    0    0  0.12516509213E+03 -0.65500010931E+02 -0.90324135384E+02  0.18601323406E+03  0.80535222674E+02 0.  0.
          6    2    1    2  501    0 -0.31067960847E+03  0.13871475301E+02  0.69005216278E+03  0.77618792557E+03  0.17199264952E+03 0.  0.
         24    2    5    5    0    0 -0.14341965954E+03 -0.57169538709E+02  0.32819761237E+03  0.37123913641E+03  0.79166083244E+02 0.  0.
          5    1    5    5  501    0 -0.16725994893E+03  0.71041014010E+02  0.36185455041E+03  0.40494878916E+03  0.47000000000E+01 0. -1.
        -13    1    6    6    0    0 -0.91245709759E+02 -0.51288616737E+02  0.13381502882E+03  0.16989044615E+03  0.00000000000E+00 0.  1.
         14    1    6    6    0    0 -0.52173949778E+02 -0.58809219723E+01  0.19438258355E+03  0.20134869025E+03  0.00000000000E+00 0. -1.
         -5    1    3    3    0  503  0.18551451634E+03  0.51628535630E+02 -0.11715242047E+03  0.22545048477E+03  0.47000000000E+01 0.  1.
         11    1    4    4    0    0  0.76473194641E+02 -0.50239160820E+01 -0.15509445569E+02  0.78191637233E+02  0.00000000000E+00 0. -1.
        -12    1    4    4    0    0  0.48691897492E+02 -0.60476094849E+02 -0.74814689816E+02  0.10782159682E+03  0.00000000000E+00 0.  1.
</event>
<event>
12    1  0.8226261E-002  0.2583414E+03  0.7818608E-02  0.1108181E+00
         21   -1    0    0  503  502  0.00000000000E+00  0.00000000000E+00  0.34079400705E+03  0.34079400705E+03  0.00000000000E+00 0.  1.
         21   -1    0    0  501  503 -0.00000000000E+00 -0.00000000000E+00 -0.30327725744E+03  0.30327725744E+03  0.00000000000E+00 0. -1.
          6    2    1    2  501    0  0.17158726961E+03  0.87397883299E+02  0.21060348593E+03  0.33330783671E+03  0.17221993100E+03 0.  0.
         24    2    3    3    0    0  0.19595286821E+03  0.73814015729E+02  0.15760591711E+03  0.27323258263E+03  0.77268257556E+02 0.  0.
         -6    2    1    2    0  502 -0.17158726961E+03 -0.87397883299E+02 -0.17308673632E+03  0.31076342777E+03  0.17185548770E+03 0.  0.
        -24    2    5    5    0    0 -0.15750299760E+03 -0.11683844439E+03 -0.17982882879E+03  0.27710842567E+03  0.77409660721E+02 0.  0.
          5    1    3    3  501    0 -0.24365598595E+02  0.13583867570E+02  0.52997568815E+02  0.60075254085E+02  0.47000000000E+01 0. -1.
        -11    1    4    4    0    0  0.81930927105E+01  0.18052910491E+02  0.40336477887E+02  0.44945142048E+02  0.00000000000E+00 0.  1.
         12    1    4    4    0    0  0.18775977549E+03  0.55761105238E+02  0.11726943922E+03  0.22828744058E+03  0.00000000000E+00 0. -1.
         -5    1    5    5    0  502 -0.14084272012E+02  0.29440561087E+02  0.67420924766E+01  0.33655002098E+02  0.47000000000E+01 0.  1.
         11    1    6    6    0    0 -0.15968140993E+03 -0.92242523811E+02 -0.14590163826E+03  0.23514702618E+03  0.00000000000E+00 0. -1.
        -12    1    6    6    0    0  0.21784123331E+01 -0.24595920575E+02 -0.33927190534E+02  0.41961399485E+02  0.00000000000E+00 0.  1.
</event>
<event>
12    1  0.8226261E-002  0.1985565E+03  0.7818608E-02  0.1151025E+00
         21   -1    0    0  503  502  0.00000000000E+00  0.00000000000E+00  0.19426378814E+03  0.19426378814E+03  0.00000000000E+00 0. -1.
         21   -1    0    0  501  503 -0.00000000000E+00 -0.00000000000E+00 -0.34678862806E+03  0.34678862806E+03  0.00000000000E+00 0.  1.
          6    2    1    2  501    0  0.97828508331E+02  0.21550586049E+02 -0.25070765047E+03  0.31981089755E+03  0.17143465049E+03 0.  0.
         24    2    3    3    0    0  0.13685236773E+03  0.17346640953E+02 -0.19791585153E+03  0.25385940938E+03  0.79021762426E+02 0.  0.
         -6    2    1    2    0  502 -0.97828508331E+02 -0.21550586049E+02  0.98182810550E+02  0.22124151865E+03  0.17109383533E+03 0.  0.
        -24    2    5    5    0    0 -0.10807336148E+03  0.22286509278E+01  0.12527624058E+03  0.18347178106E+03  0.79264996324E+02 0.  0.
          5    1    3    3  501    0 -0.39023859403E+02  0.42039450958E+01 -0.52791798937E+02  0.65951488172E+02  0.47000000000E+01 0. -1.
        -11    1    4    4    0    0  0.78963796364E+02 -0.27547968015E+02 -0.84863159210E+02  0.11914666369E+03  0.00000000000E+00 0.  1.
         12    1    4    4    0    0  0.57888571369E+02  0.44894608968E+02 -0.11305269232E+03  0.13471274569E+03  0.00000000000E+00 0. -1.
         -5    1    5    5    0  502  0.10244853154E+02 -0.23779236977E+02 -0.27093430030E+02  0.37769737597E+02  0.47000000000E+01 0.  1.
         13    1    6    6    0    0 -0.48783135287E+02  0.33512441686E+02  0.90007481820E+02  0.10772290759E+03  0.00000000000E+00 0. -1.
        -14    1    6    6    0    0 -0.59290226197E+02 -0.31283790758E+02  0.35268758760E+02  0.75748873464E+02  0.00000000000E+00 0.  1.
</event>
<event>
12    1  0.8226261E-002  0.2874423E+03  0.7818608E-02  0.1092264E+00
         21   -1    0    0  501  502  0.00000000000E+00  0.00000000000E+00  0.10607930178E+03  0.10607930178E+03  0.00000000000E+00 0. -1.
         21   -1    0    0  502  503 -0.00000000000E+00 -0.00000000000E+00 -0.85041521386E+03  0.85041521386E+03  0.00000000000E+00 0.  1.
         -6    2    1    2    0  503  0.11645600938E+03 -0.19185921292E+03 -0.52422951730E+03  0.59786260213E+03  0.17958603652E+03 0.  0.
        -24    2    3    3    0    0  0.27562343767E+02 -0.20666819457E+02 -0.22890135254E+03  0.24508826311E+03  0.80533392460E+02 0.  0.
          6    2    1    2  501    0 -0.11645600938E+03  0.19185921292E+03 -0.22010639479E+03  0.35863191351E+03  0.17262115936E+03 0.  0.
         24    2    5    5    0    0 -0.12701852920E+03  0.18574549968E+03 -0.13863414274E+03  0.27611668965E+03  0.79911847422E+02 0.  0.
          5    1    5    5  501    0  0.10562519819E+02  0.61137132431E+01 -0.81472252056E+02  0.82515223866E+02  0.47000000000E+01 0. -1.
        -13    1    6    6    0    0 -0.95359627886E+01  0.80261785977E+02 -0.50235781142E+02  0.95165763705E+02  0.00000000000E+00 0.  1.
         14    1    6    6    0    0 -0.11748256641E+03  0.10548371370E+03 -0.88398361594E+02  0.18095092594E+03  0.00000000000E+00 0. -1.
         -5    1    3    3    0  503  0.88893665614E+02 -0.17119239347E+03 -0.29532816476E+03  0.35277433901E+03  0.47000000000E+01 0.  1.
         11    1    4    4    0    0 -0.10512904002E+02  0.17849769504E+02 -0.18321580291E+02  0.27655301956E+02  0.00000000000E+00 0. -1.
        -12    1    4    4    0    0  0.38075247769E+02 -0.38516588960E+02 -0.21057977225E+03  0.21743296116E+03  0.00000000000E+00 0.  1.
</event>
<event>
12    1  0.8226261E-002  0.3843962E+03  0.7818608E-02  0.1049352E+00
         21   -1    0    0  501  502  0.00000000000E+00  0.00000000000E+00  0.49673103215E+03  0.49673103215E+03  0.00000000000E+00 0.  1.
         21   -1    0    0  502  503 -0.00000000000E+00 -0.00000000000E+00 -0.57481104372E+03  0.57481104372E+03  0.00000000000E+00 0. -1.
         -6    2    1    2    0  503  0.33552619494E+03 -0.72638140531E+02 -0.41138461384E+03  0.56302552177E+03  0.17293441157E+03 0.  0.
        -24    2    3    3    0    0  0.97699940895E+02  0.21365855677E+02 -0.12013221295E+03  0.17540698578E+03  0.79586957680E+02 0.  0.
          6    2    1    2  501    0 -0.33552619494E+03  0.72638140531E+02  0.33330460226E+03  0.50851655410E+03  0.17217142897E+03 0.  0.
         24    2    5    5    0    0 -0.19898865986E+03  0.10648747850E+03  0.24528382314E+03  0.34251045866E+03  0.78823794419E+02 0.  0.
          5    1    5    5  501    0 -0.13653753508E+03 -0.33849337968E+02  0.88020779121E+02  0.16600609544E+03  0.47000000000E+01 0. -1.
        -13    1    6    6    0    0 -0.13585588281E+03  0.31398713478E+02  0.16270157199E+03  0.21427669409E+03  0.00000000000E+00 0.  1.
         14    1    6    6    0    0 -0.63132777049E+02  0.75088765020E+02  0.82582251147E+02  0.12823376457E+03  0.00000000000E+00 0. -1.
         -5    1    3    3    0  503  0.23782625404E+03 -0.94003996208E+02 -0.29125240088E+03  0.38761853598E+03  0.47000000000E+01 0.  1.
         13    1    4    4    0    0  0.10215459782E+03  0.34414723571E+01 -0.11904581856E+03  0.15690542535E+03  0.00000000000E+00 0. -1.
        -14    1    4    4    0    0 -0.44546569262E+01  0.17924383320E+02 -0.10863943970E+01  0.18501560435E+02  0.00000000000E+00 0.  1.
</event>
<event>
12    1  0.8226261E-002  0.1791173E+03  0.7818608E-02  0.1169330E+00
         21   -1    0    0  501  502  0.00000000000E+00  0.00000000000E+00  0.51856414502E+03  0.51856414502E+03  0.00000000000E+00 0. -1.
         21   -1    0    0  502  503 -0.00000000000E+00 -0.00000000000E+00 -0.70339082260E+02  0.70339082260E+02  0.00000000000E+00 0. -1.
         -6    2    1    2    0  503 -0.38719926373E+02 -0.43470916660E+00  0.33328941365E+03  0.37837128479E+03  0.17488160060E+03 0.  0.
        -24    2    3    3    0    0  0.17253561030E+02  0.42405550465E+02  0.10697167046E+03  0.14128452847E+03  0.80140274681E+02 0.  0.
          6    2    1    2  501    0  0.38719926373E+02  0.43470916660E+00  0.11493564911E+03  0.21053194249E+03  0.17208740135E+03 0.  0.
         24    2    5    5    0    0 -0.30533577418E+02 -0.41564796648E+02  0.51966623983E+02  0.10783240792E+03  0.79166700825E+02 0.  0.
          5    1    5    5  501    0  0.69253503791E+02  0.41999505815E+02  0.62969025125E+02  0.10269953457E+03  0.47000000000E+01 0. -1.
        -11    1    6    6    0    0 -0.23427407184E+02 -0.24736404816E+02 -0.15866293134E+02  0.37582873605E+02  0.00000000000E+00 0.  1.
         12    1    6    6    0    0 -0.71061702334E+01 -0.16828391832E+02  0.67832917117E+02  0.70249534316E+02  0.00000000000E+00 0. -1.
         -5    1    3    3    0  503 -0.55973487403E+02 -0.42840259631E+02  0.22631774319E+03  0.23708675631E+03  0.47000000000E+01 0.  1.
         13    1    4    4    0    0 -0.29664278784E+02  0.17909028409E+02  0.21584509295E+02  0.40823936310E+02  0.00000000000E+00 0. -1.
        -14    1    4    4    0    0  0.46917839814E+02  0.24496522056E+02  0.85387161169E+02  0.10046059216E+03  0.00000000000E+00 0.  1.
</event>
<event>
12    1  0.8226261E-002  0.1782530E+03  0.7818608E-02  0.1170493E+00
         21   -1    0    0  501  502  0.00000000000E+00  0.00000000000E+00  0.81102158811E+02  0.81102158811E+02  0.00000000000E+00 0. -1.
         21   -1    0    0  502  503 -0.00000000000E+00 -0.00000000000E+00 -0.41580024846E+03  0.41580024846E+03  0.00000000000E+00 0. -1.
         -6    2    1    2    0  503 -0.61807149860E+01 -0.33271554158E+02 -0.23879925626E+03  0.29799195216E+03  0.17501120310E+03 0.  0.
        -24    2    3    3    0    0 -0.52294241667E+01 -0.82622762949E+02 -0.10444404351E+03  0.15477931321E+03  0.78703301953E+02 0.  0.
          6    2    1    2  501    0  0.61807149860E+01  0.33271554158E+02 -0.95898833394E+02  0.19891045511E+03  0.17094907239E+03 0.  0.
         24    2    5    5    0    0 -0.41845450448E+01  0.85613442990E+02 -0.48368804916E+02  0.12729826656E+03  0.80734969760E+02 0.  0.
          5    1    5    5  501    0  0.10365260031E+02 -0.52341888833E+02 -0.47530028478E+02  0.71612188552E+02  0.47000000000E+01 0. -1.
        -13    1    6    6    0    0 -0.78128824406E+01  0.36811563973E+02 -0.65424104076E+02  0.75474802208E+02  0.00000000000E+00 0.  1.
         14    1    6    6    0    0  0.36283373958E+01  0.48801879018E+02  0.17055299161E+02  0.51823464351E+02  0.00000000000E+00 0. -1.
         -5    1    3    3    0  503 -0.95129081923E+00  0.49351208792E+02 -0.13435521275E+03  0.14321263896E+03  0.47000000000E+01 0.  1.
         11    1    4    4    0    0 -0.49534022604E+01  0.11644619869E+02 -0.36350756898E+02  0.38490400010E+02  0.00000000000E+00 0. -1.
        -12    1    4    4    0    0 -0.27602190635E+00 -0.94267382818E+02 -0.68093286609E+02  0.11628891320E+03  0.00000000000E+00 0.  1.
</event>
<event>
12    1  0.8226261E-002  0.2079279E+03  0.7818608E-02  0.1143289E+00
         21   -1    0    0  503  502  0.00000000000E+00  0.00000000000E+00  0.46428361808E+02  0.46428361808E+02  0.00000000000E+00 0. -1.
         21   -1    0    0  501  503 -0.00000000000E+00 -0.00000000000E+00 -0.96341478787E+03  0.96341478787E+03  0.00000000000E+00 0. -1.
          6    2    1    2  501    0 -0.35083128012E+02  0.11160848168E+03 -0.55269814773E+03  0.59039116632E+03  0.17146197162E+03 0.  0.
         24    2    3    3    0    0 -0.83383817341E+02  0.55797315174E+02 -0.28258193121E+03  0.31033277362E+03  0.79922970161E+02 0.  0.
         -6    2    1    2    0  502  0.35083128012E+02 -0.11160848168E+03 -0.36428827833E+03  0.41945198335E+03  0.17189164482E+03 0.  0.
        -24    2    5    5    0    0 -0.54320902155E+01 -0.11915777767E+03 -0.34629353527E+03  0.37423721192E+03  0.76851770512E+02 0.  0.
          5    1    3    3  501    0  0.48300689329E+02  0.55811166505E+02 -0.27011621652E+03  0.28005839270E+03  0.47000000000E+01 0. -1.
        -11    1    4    4    0    0 -0.45935393447E+02  0.65359825128E+02 -0.23941381273E+03  0.25239045315E+03  0.00000000000E+00 0.  1.
         12    1    4    4    0    0 -0.37448423894E+02 -0.95625099542E+01 -0.43168118480E+02  0.57942320474E+02  0.00000000000E+00 0. -1.
         -5    1    5    5    0  502  0.40515218228E+02  0.75492959942E+01 -0.17994743055E+02  0.45214771432E+02  0.47000000000E+01 0.  1.
         13    1    6    6    0    0  0.32879647090E+02 -0.45155275550E+02 -0.10457973544E+03  0.11856218270E+03  0.00000000000E+00 0. -1.
        -14    1    6    6    0    0 -0.38311737305E+02 -0.74002502122E+02 -0.24171379983E+03  0.25567502922E+03  0.00000000000E+00 0.  1.
</event>
<event>
12    1  0.8226261E-002  0.2792183E+03  0.7818608E-02  0.1096259E+00
         21   -1    0    0  501  502  0.00000000000E+00  0.00000000000E+00  0.15767110595E+04  0.15767110595E+04  0.00000000000E+00 0. -1.
         21   -1    0    0  502  503 -0.00000000000E+00 -0.00000000000E+00 -0.50311362296E+02  0.50311362296E+02  0.00000000000E+00 0. -1.
         -6    2    1    2    0  503  0.11289154934E+02 -0.21948130839E+03  0.88198941772E+03  0.92513143566E+03  0.17223051567E+03 0.  0.
        -24    2    3    3    0    0  0.71364372643E+02 -0.16216189808E+03  0.56287550945E+03  0.59535829692E+03  0.78951299590E+02 0.  0.
          6    2    1    2  501    0 -0.11289154934E+02  0.21948130839E+03  0.64441027952E+03  0.70189098616E+03  0.17054869792E+03 0.  0.
         24    2    5    5    0    0  0.30827406327E+02  0.14264745929E+03  0.54244509141E+03  0.56736874010E+03  0.79762042524E+02 0.  0.
          5    1    5    5  501    0 -0.42116561260E+02  0.76833849105E+02  0.10196518811E+03  0.13452224606E+03  0.47000000000E+01 0. -1.
        -13    1    6    6    0    0  0.24268237652E+01  0.12383492194E+03  0.33538311377E+03  0.35752316060E+03  0.00000000000E+00 0.  1.
         14    1    6    6    0    0  0.28400582561E+02  0.18812537350E+02  0.20706197764E+03  0.20984557950E+03  0.00000000000E+00 0. -1.
         -5    1    3    3    0  503 -0.60075217709E+02 -0.57319410308E+02  0.31911390828E+03  0.32977313874E+03  0.47000000000E+01 0.  1.
         13    1    4    4    0    0  0.44233127670E+02 -0.15552433713E+03  0.42581852053E+03  0.45548413962E+03  0.00000000000E+00 0. -1.
        -14    1    4    4    0    0  0.27131244973E+02 -0.66375609570E+01  0.13705698892E+03  0.13987415730E+03  0.00000000000E+00 0.  1.
</event>
<event>
12    1  0.8226261E-002  0.2477910E+03  0.7818608E-02  0.1114809E+00
         21   -1    0    0  501  502  0.00000000000E+00  0.00000000000E+00  0.51966147482E+03  0.51966147482E+03  0.00000000000E+00 0. -1.
         21   -1    0    0  502  503 -0.00000000000E+00 -0.00000000000E+00 -0.21014556763E+03  0.21014556763E+03  0.00000000000E+00 0.  1.
         -6    2    1    2    0  503 -0.76333381391E+02 -0.16125466802E+03 -0.86952373120E+02  0.26260441653E+03  0.17196078423E+03 0.  0.
        -24    2    3    3    0    0 -0.39183363057E+02 -0.36533272638E+02 -0.92403093217E+02  0.13226888538E+03  0.78017372774E+02 0.  0.
          6    2    1    2  501    0  0.76333381391E+02  0.16125466802E+03  0.39646828032E+03  0.46720262592E+03  0.17105947299E+03 0.  0.
         24    2    5    5    0    0 -0.10629025970E+02  0.84873562182E+02  0.28038171281E+03  0.30320654432E+03  0.77484229972E+02 0.  0.
          5    1    5    5  501    0  0.86962407361E+02  0.76381105839E+02  0.11608656751E+03  0.16399608160E+03  0.47000000000E+01 0. -1.
        -13    1    6    6    0    0 -0.10725254196E+02  0.23374308304E+01  0.13947611364E+03  0.13990740129E+03  0.00000000000E+00 0.  1.
         14    1    6    6    0    0  0.96228225693E-01  0.82536131352E+02  0.14090559917E+03  0.16329914303E+03  0.00000000000E+00 0. -1.
         -5    1    3    3    0  503 -0.37150018333E+02 -0.12472139538E+03  0.54507200969E+01  0.13033553114E+03  0.47000000000E+01 0.  1.
         13    1    4    4    0    0 -0.84347907572E+01 -0.25046714008E+02 -0.95697577831E+02  0.99279957597E+02  0.00000000000E+00 0. -1.
        -14    1    4    4    0    0 -0.30748572300E+02 -0.11486558630E+02  0.32944846142E+01  0.32988927787E+02  0.00000000000E+00 0.  1.
</event>
<event>
12    1  0.8226261E-002  0.1849573E+03  0.7818608E-02  0.1163221E+00
         21   -1    0    0  503  502  0.00000000000E+00  0.00000000000E+00  0.16645837211E+03  0.16645837211E+03  0.00000000000E+00 0. -1.
         21   -1    0    0  501  503 -0.00000000000E+00 -0.00000000000E+00 -0.34722342194E+03  0.34722342194E+03  0.00000000000E+00 0. -1.
          6    2    1    2  501    0  0.57907161339E+02 -0.33705308465E+02 -0.25474388847E+03  0.31447824266E+03  0.17179298369E+03 0.  0.
         24    2    3    3    0    0 -0.30486907026E+02 -0.40217584347E+02 -0.12549375663E+03  0.15768663689E+03  0.81052371413E+02 0.  0.
         -6    2    1    2    0  502 -0.57907161339E+02  0.33705308465E+02  0.73978838635E+02  0.19920355139E+03  0.17239460307E+03 0.  0.
        -24    2    5    5    0    0 -0.16084980196E+02 -0.13207984769E+01  0.10774190400E+03  0.13487659292E+03  0.79516704808E+02 0.  0.
          5    1    3    3  501    0  0.88394068365E+02  0.65122758826E+01 -0.12925013184E+03  0.15679160577E+03  0.47000000000E+01 0. -1.
        -13    1    4    4    0    0 -0.19190851890E+02 -0.43097462150E+02 -0.19491101807E+02  0.51044912477E+02  0.00000000000E+00 0.  1.
         14    1    4    4    0    0 -0.11296055136E+02  0.28798778031E+01 -0.10600265482E+03  0.10664172442E+03  0.00000000000E+00 0. -1.
         -5    1    5    5    0  502 -0.41822181142E+02  0.35026106942E+02 -0.33763065369E+02  0.64326958471E+02  0.47000000000E+01 0.  1.
         13    1    6    6    0    0 -0.46837608727E+02 -0.43685448793E+01  0.45803118709E+02  0.65656465478E+02  0.00000000000E+00 0. -1.
        -14    1    6    6    0    0  0.30752628530E+02  0.30477464024E+01  0.61938785295E+02  0.69220127445E+02  0.00000000000E+00 0.  1.
</event>
<event>
12    1  0.8226261E-002  0.2077763E+03  0.7818608E-02  0.1143360E+00
         21   -1    0    0  503  502  0.00000000000E+00  0.00000000000E+00  0.92202114884E+03  0.92202114884E+03  0.00000000000E+00 0.  1.
         21   -1    0    0  501  503 -0.00000000000E+00 -0.00000000000E+00 -0.48927114089E+02  0.48927114089E+02  0.00000000000E+00 0.  1.
          6    2    1    2  501    0 -0.11310180825E+03  0.70787515554E+01  0.53789536400E+03  0.57663021697E+03  0.17415182098E+03 0.  0.
         24    2    3    3    0    0 -0.14074091422E+03  0.30218011770E+02  0.37239900417E+03  0.40718854364E+03  0.80002241164E+02 0.  0.
         -6    2    1    2    0  502  0.11310180825E+03 -0.70787515554E+01  0.33519867075E+03  0.39431804596E+03  0.17403001106E+03 0.  0.
        -24    2    5    5    0    0  0.11992355865E+03  0.42239227397E+02  0.29090033242E+03  0.32751062044E+03  0.80463599519E+02 0.  0.
          5    1    3    3  501    0  0.27639105979E+02 -0.23139260214E+02  0.16549635983E+03  0.16944167333E+03  0.47000000000E+01 0. -1.
        -11    1    4    4    0    0 -0.34662272048E+02  0.44783611948E+02  0.10838090056E+03  0.12228435963E+03  0.00000000000E+00 0.  1.
         12    1    4    4    0    0 -0.10607864218E+03 -0.14565600178E+02  0.26401810361E+03  0.28490418401E+03  0.00000000000E+00 0. -1.
         -5    1    5    5    0  502 -0.68217504023E+01 -0.49317978953E+02  0.44298338326E+02  0.66807425523E+02  0.47000000000E+01 0.  1.
         13    1    6    6    0    0  0.47508476462E+02 -0.89365996966E+00  0.37719367997E+02  0.60667987324E+02  0.00000000000E+00 0. -1.
        -14    1    6    6    0    0  0.72415082185E+02  0.43132887367E+02  0.25318096442E+03  0.26684263311E+03  0.00000000000E+00 0.  1.
</event>
<event>
12    1  0.8226261E-002  0.1761529E+03  0.7818608E-02  0.1171647E+00
         21   -1    0    0  503  502  0.00000000000E+00  0.00000000000E+00  0.13470486835E+03  0.13470486835E+03  0.00000000000E+00 0.  1.
         21   -1    0    0  501  503 -0.00000000000E+00 -0.00000000000E+00 -0.64422219438E+03  0.64422219438E+03  0.00000000000E+00 0.  1.
          6    2    1    2  501    0 -0.36647168649E+02 -0.23539149052E+02 -0.56698467113E+03  0.59363720470E+03  0.17040072477E+03 0.  0.
         24    2    3    3    0    0 -0.62235052303E+02 -0.50276437511E+02 -0.24963528410E+03  0.27410262781E+03  0.80084665193E+02 0.  0.
         -6    2    1    2    0  502  0.36647168649E+02  0.23539149052E+02  0.57467345102E+02  0.18528985803E+03  0.17068312520E+03 0.  0.
        -24    2    5    5    0    0 -0.23144912133E+02  0.63051807327E+02  0.34097199077E+02  0.10976107667E+03  0.79835190246E+02 0.  0.
          5    1    3    3  501    0  0.25587883654E+02  0.26737288459E+02 -0.31734938703E+03  0.31953457689E+03  0.47000000000E+01 0. -1.
        -13    1    4    4    0    0 -0.31144878468E+02 -0.67131334779E+02 -0.19921277310E+03  0.21251434900E+03  0.00000000000E+00 0.  1.
         14    1    4    4    0    0 -0.31090173835E+02  0.16854897268E+02 -0.50422510996E+02  0.61588278805E+02  0.00000000000E+00 0. -1.
         -5    1    5    5    0  502  0.59792080783E+02 -0.39512658275E+02  0.23370146025E+02  0.75528781359E+02  0.47000000000E+01 0.  1.
         13    1    6    6    0    0 -0.10573057677E+02  0.26500203475E+00 -0.22141401001E+02  0.24537754849E+02  0.00000000000E+00 0. -1.
        -14    1    6    6    0    0 -0.12571854456E+02  0.62786805292E+02  0.56238600078E+02  0.85223321820E+02  0.00000000000E+00 0.  1.
</event>
<event>
12    1  0.8226261E-002  0.2190871E+03  0.7818608E-02  0.1136304E+00
         21   -1    0    0  501  502  0.00000000000E+00  0.00000000000E+00  0.12760826598E+03  0.12760826598E+03  0.00000000000E+00 0. -1.
         21   -1    0    0  502  503 -0.00000000000E+00 -0.00000000000E+00 -0.37972435714E+03  0.37972435714E+03  0.00000000000E+00 0. -1.
         -6    2    1    2    0  503  0.64636491100E+02  0.10713525089E+03 -0.66804354444E+02  0.22038386994E+03  0.16867243518E+03 0.  0.
        -24    2    3    3    0    0  0.11921299839E+02  0.11403058871E+02  0.18030312071E+02  0.81954990647E+02  0.78226473761E+02 0.  0.
          6    2    1    2  501    0 -0.64636491100E+02 -0.10713525089E+03 -0.18531173672E+03  0.28694875317E+03  0.17984245666E+03 0.  0.
         24    2    5    5    0    0  0.19972486161E+02 -0.10239011575E+03 -0.12957947930E+03  0.18541368604E+03  0.81882583678E+02 0.  0.
          5    1    5    5  501    0 -0.84608977261E+02 -0.47451351432E+01 -0.55732257418E+02  0.10153506713E+03  0.47000000000E+01 0. -1.
        -13    1    6    6    0    0  0.20003817542E+02  0.77000202447E+01 -0.30666818187E+02  0.37415194316E+02  0.00000000000E+00 0.  1.
         14    1    6    6    0    0 -0.31331381371E-01 -0.11009013599E+03 -0.98912661112E+02  0.14799849173E+03  0.00000000000E+00 0. -1.
         -5    1    3    3    0  503  0.52715191261E+02  0.95732192022E+02 -0.84834666516E+02  0.13842887929E+03  0.47000000000E+01 0.  1.
         11    1    4    4    0    0 -0.49656264268E+01  0.35960840869E+02  0.32590412318E+02  0.48784982288E+02  0.00000000000E+00 0. -1.
        -12    1    4    4    0    0  0.16886926266E+02 -0.24557781998E+02 -0.14560100246E+02  0.33170008359E+02  0.00000000000E+00 0.  1.
</event>
<event>
12    1  0.8226261E-002  0.1789781E+03  0.7818608E-02  0.1168930E+00
         21   -1    0    0  501  502  0.00000000000E+00  0.00000000000E+00  0.20418855708E+03  0.20418855708E+03  0.00000000000E+00 0.  1.
         21   -1    0    0  502  503 -0.00000000000E+00 -0.00000000000E+00 -0.15870437135E+03  0.15870437135E+03  0.00000000000E+00 0.  1.
         -6    2    1    2    0  503  0.62006917502E+00  0.48051245923E+02  0.82844910345E+00  0.17842804516E+03  0.17183298360E+03 0.  0.
        -24    2    3    3    0    0 -0.37916421238E+02 -0.25932477419E+02 -0.17706070857E+02  0.92846091205E+02  0.78719396100E+02 0.  0.
          6    2    1    2  501    0 -0.62006917502E+00 -0.48051245923E+02  0.44655736628E+02  0.18446488327E+03  0.17240606609E+03 0.  0.
         24    2    5    5    0    0 -0.98129723148E+00 -0.98669553005E+02  0.47656566028E+02  0.13353906982E+03  0.76320975160E+02 0.  0.
          5    1    5    5  501    0  0.36122805646E+00  0.50618307083E+02 -0.30008294004E+01  0.50925813442E+02  0.47000000000E+01 0. -1.
        -13    1    6    6    0    0  0.25512931360E+02 -0.91830610593E+02  0.46760498412E+02  0.10616173944E+03  0.00000000000E+00 0.  1.
         14    1    6    6    0    0 -0.26494228592E+02 -0.68389424126E+01  0.89606761642E+00  0.27377330388E+02  0.00000000000E+00 0. -1.
         -5    1    3    3    0  503  0.38536490413E+02  0.73983723342E+02  0.18534519961E+02  0.85581953956E+02  0.47000000000E+01 0.  1.
         11    1    4    4    0    0  0.24428050721E+02 -0.62114274750E+01 -0.95336230990E+01  0.26948125402E+02  0.00000000000E+00 0. -1.
        -12    1    4    4    0    0 -0.62344471958E+02 -0.19721049944E+02 -0.81724477585E+01  0.65897965803E+02  0.00000000000E+00 0.  1.
</event>
<event>
12    1  0.8226261E-002  0.2183877E+03  0.7818608E-02  0.1135127E+00
         21   -1    0    0  501  502  0.00000000000E+00  0.00000000000E+00  0.74071161331E+03  0.74071161331E+03  0.00000000000E+00 0. -1.
         21   -1    0    0  502  503 -0.00000000000E+00 -0.00000000000E+00 -0.80677434675E+02  0.80677434675E+02  0.00000000000E+00 0.  1.
         -6    2    1    2    0  503 -0.13200994316E+03  0.21195870721E+02  0.14527188013E+03  0.26229202333E+03  0.17267685519E+03 0.  0.
        -24    2    3    3    0    0 -0.67520670904E+02 -0.22814360257E+02  0.14868686663E+03  0.18400077989E+03  0.81663741378E+02 0.  0.
          6    2    1    2  501    0  0.13200994316E+03 -0.21195870721E+02  0.51476229851E+03  0.55909702465E+03  0.17243366546E+03 0.  0.
         24    2    5    5    0    0  0.13585005915E+03 -0.66255249279E+02  0.43376149930E+03  0.46620830866E+03  0.79725479993E+02 0.  0.
          5    1    5    5  501    0 -0.38401159874E+01  0.45059378558E+02  0.81000799204E+02  0.92888715991E+02  0.47000000000E+01 0. -1.
        -11    1    6    6    0    0  0.46915866429E+02 -0.50742637395E+02  0.27523673693E+03  0.28378015281E+03  0.00000000000E+00 0.  1.
         12    1    6    6    0    0  0.88934192721E+02 -0.15512611884E+02  0.15852476237E+03  0.18242815585E+03  0.00000000000E+00 0. -1.
         -5    1    3    3    0  503 -0.64489272258E+02  0.44010230978E+02 -0.34149865091E+01  0.78291243444E+02  0.47000000000E+01 0.  1.
         11    1    4    4    0    0 -0.67560890139E+02 -0.35549959478E+02  0.67756813339E+02  0.10207477283E+03  0.00000000000E+00 0. -1.
        -12    1    4    4    0    0  0.40219234681E-01  0.12735599221E+02  0.80930053295E+02  0.81926007052E+02  0.00000000000E+00 0.  1.
</event>
<event>
12    1  0.8226261E-002  0.2235319E+03  0.7818608E-02  0.1131512E+00
         21   -1    0    0  503  502  0.00000000000E+00  0.00000000000E+00  0.35884933070E+02  0.35884933070E+02  0.00000000000E+00 0.  1.
         21   -1    0    0  501  503 -0.00000000000E+00 -0.00000000000E+00 -0.19695435042E+04  0.19695435042E+04  0.00000000000E+00 0. -1.
          6    2    1    2  501    0  0.13634382774E+03  0.31008017454E+02 -0.41835248136E+03  0.47372380828E+03  0.17275506176E+03 0.  0.
         24    2    3    3    0    0  0.98701170673E+02  0.15069019027E+02 -0.12608715108E+03  0.17857615949E+03  0.77604630305E+02 0.  0.
         -6    2    1    2    0  502 -0.13634382774E+03 -0.31008017454E+02 -0.15153060897E+04  0.15317046290E+04  0.17440008104E+03 0.  0.
        -24    2    5    5    0    0 -0.11999984481E+03  0.19363537942E+02 -0.13565809763E+04  0.13643123621E+04  0.79128798460E+02 0.  0.
          5    1    3    3  501    0  0.37642657065E+02  0.15938998427E+02 -0.29226533028E+03  0.29514764879E+03  0.47000000000E+01 0. -1.
        -11    1    4    4    0    0  0.64887553481E+02 -0.18738970504E+02 -0.35876236893E+02  0.76476453801E+02  0.00000000000E+00 0.  1.
         12    1    4    4    0    0  0.33813617192E+02  0.33807989531E+02 -0.90210914189E+02  0.10209970569E+03  0.00000000000E+00 0. -1.
         -5    1    5    5    0  502 -0.16343982923E+02 -0.50371555396E+02 -0.15872511348E+03  0.16739226691E+03  0.47000000000E+01 0.  1.
         11    1    6    6    0    0 -0.99485484674E+02 -0.18810159791E+02 -0.89882351572E+03  0.90450809625E+03  0.00000000000E+00 0. -1.
        -12    1    6    6    0    0 -0.20514360140E+02  0.38173697734E+02 -0.45775746054E+03  0.45980426580E+03  0.00000000000E+00 0.  1.
</event>
<event>
12    1  0.8226261E-002  0.2167963E+03  0.7818608E-02  0.1136662E+00
         21   -1    0    0  501  502  0.00000000000E+00  0.00000000000E+00  0.79177067648E+02  0.79177067648E+02  0.00000000000E+00 0. -1.
         21   -1    0    0  502  503 -0.00000000000E+00 -0.00000000000E+00 -0.74596066622E+03  0.74596066622E+03  0.00000000000E+00 0.  1.
         -6    2    1    2    0  503 -0.98035202783E+01 -0.13029541183E+03 -0.52185787057E+03  0.56436180166E+03  0.17057433202E+03 0.  0.
        -24    2    3    3    0    0  0.27373349018E+02 -0.63421919961E+02 -0.14221542912E+03  0.17705745509E+03  0.79702408711E+02 0.  0.
          6    2    1    2  501    0  0.98035202783E+01  0.13029541183E+03 -0.14492572800E+03  0.26077593220E+03  0.17299600234E+03 0.  0.
         24    2    5    5    0    0 -0.13926823247E+02  0.12142533517E+03 -0.17038004697E+03  0.22455687895E+03  0.80363941240E+02 0.  0.
          5    1    5    5  501    0  0.23730343525E+02  0.88700766575E+01  0.25454318974E+02  0.36219053248E+02  0.47000000000E+01 0. -1.
        -13    1    6    6    0    0  0.29718204280E+02  0.76974138945E+02 -0.81133895550E+02  0.11571905089E+03  0.00000000000E+00 0.  1.
         14    1    6    6    0    0 -0.43645027526E+02  0.44451196230E+02 -0.89246151421E+02  0.10883782806E+03  0.00000000000E+00 0. -1.
         -5    1    3    3    0  503 -0.37176869296E+02 -0.66873491871E+02 -0.37964244145E+03  0.38730434658E+03  0.47000000000E+01 0.  1.
         13    1    4    4    0    0  0.31483526244E+02 -0.30862515351E+02 -0.13688492064E+03  0.14380955732E+03  0.00000000000E+00 0. -1.
        -14    1    4    4    0    0 -0.41101772266E+01 -0.32559404610E+02 -0.53305084846E+01  0.33247897769E+02  0.00000000000E+00 0.  1.
</event>
<event>
12    1  0.8226261E-002  0.2378590E+03  0.7818608E-02  0.1121807E+00
         21   -1    0    0  503  502  0.00000000000E+00  0.00000000000E+00  0.17492470115E+03  0.17492470115E+03  0.00000000000E+00 0.  1.
         21   -1    0    0  501  503 -0.00000000000E+00 -0.00000000000E+00 -0.60852845837E+03  0.60852845837E+03  0.00000000000E+00 0.  1.
          6    2    1    2  501    0 -0.10219835243E+02  0.16245424982E+03 -0.48626729391E+03  0.53983385011E+03  0.16872722447E+03 0.  0.
         24    2    3    3    0    0  0.32030001668E+02  0.16242697657E+03 -0.44042149420E+03  0.47731203941E+03  0.80294748789E+02 0.  0.
         -6    2    1    2    0  502  0.10219835243E+02 -0.16245424982E+03  0.52663536691E+02  0.24361930940E+03  0.17343901377E+03 0.  0.
        -24    2    5    5    0    0  0.97476546546E+01 -0.18821922670E+03  0.26248192561E+02  0.20641826918E+03  0.79987750099E+02 0.  0.
          5    1    3    3  501    0 -0.42249836911E+02  0.27273258140E-01 -0.45845799708E+02  0.62521810704E+02  0.47000000000E+01 0. -1.
        -13    1    4    4    0    0 -0.22824931976E+02  0.26322725730E+02 -0.11864297435E+03  0.12365281547E+03  0.00000000000E+00 0.  1.
         14    1    4    4    0    0  0.54854933644E+02  0.13610425084E+03 -0.32177851985E+03  0.35365922394E+03  0.00000000000E+00 0. -1.
         -5    1    5    5    0  502  0.47218058841E+00  0.25764976880E+02  0.26415344130E+02  0.37201040223E+02  0.47000000000E+01 0.  1.
         13    1    6    6    0    0  0.18839380463E+02 -0.17421179573E+02  0.24340495630E+02  0.35367774619E+02  0.00000000000E+00 0. -1.
        -14    1    6    6    0    0 -0.90917258081E+01 -0.17079804713E+03  0.19076969307E+01  0.17105049456E+03  0.00000000000E+00 0.  1.
</event>
<event>
12    1  0.8226261E-002  0.2142192E+03  0.7818608E-02  0.1138582E+00
         21   -1    0    0  503  502  0.00000000000E+00  0.00000000000E+00  0.23581005775E+03  0.23581005775E+03  0.00000000000E+00 0.  1.
         21   -1    0    0  501  503 -0.00000000000E+00 -0.00000000000E+00 -0.24051167745E+03  0.24051167745E+03  0.00000000000E+00 0.  1.
          6    2    1    2  501    0  0.12334410891E+03  0.28085574787E+02 -0.10805831566E+03  0.23993013246E+03  0.17287943824E+03 0.  0.
         24    2    3    3    0    0  0.12865878153E+03 -0.26249207357E+02 -0.55152548985E+02  0.16376173716E+03  0.80833161174E+02 0.  0.
         -6    2    1    2    0  502 -0.12334410891E+03 -0.28085574787E+02  0.10335669595E+03  0.23639160274E+03  0.17086782767E+03 0.  0.
        -24    2    5    5    0    0  0.33641866922E+01 -0.19836952275E+02  0.20291117278E+02  0.84585765208E+02  0.79612811832E+02 0.  0.
          5    1    3    3  501    0 -0.53146726210E+01  0.54334782144E+02 -0.52905766671E+02  0.76168395301E+02  0.47000000000E+01 0. -1.
        -13    1    4    4    0    0  0.78446821348E+02 -0.37145833769E+02 -0.68619866969E+02  0.11064539253E+03  0.00000000000E+00 0.  1.
         14    1    4    4    0    0  0.50211960181E+02  0.10896626411E+02  0.13467317985E+02  0.53116344622E+02  0.00000000000E+00 0. -1.
         -5    1    5    5    0  502 -0.12670829560E+03 -0.82486225121E+01  0.83065578676E+02  0.15180583753E+03  0.47000000000E+01 0.  1.
         13    1    6    6    0    0  0.11210284403E+01  0.21395127507E+02  0.34759156043E+02  0.40831447618E+02  0.00000000000E+00 0. -1.
        -14    1    6    6    0    0  0.22431582519E+01 -0.41232079782E+02 -0.14468038764E+02  0.43754317590E+02  0.00000000000E+00 0.  1.
</event>
<event>
12    1  0.8226261E-002  0.1965324E+03  0.7818608E-02  0.1152867E+00
         21   -1    0    0  503  502  0.00000000000E+00  0.00000000000E+00  0.25751566969E+03  0.25751566969E+03  0.00000000000E+00 0.  1.
         21   -1    0    0  501  503 -0.00000000000E+00 -0.00000000000E+00 -0.25923518943E+03  0.25923518943E+03  0.00000000000E+00 0. -1.
          6    2    1    2  501    0  0.80339159446E+02  0.49622089515E+02 -0.16904293216E+03  0.25863830418E+03  0.17146873524E+03 0.  0.
         24    2    3    3    0    0  0.26775015608E+02  0.21410711161E+02 -0.76653641179E+01  0.86214962248E+02  0.78733359481E+02 0.  0.
         -6    2    1    2    0  502 -0.80339159446E+02 -0.49622089515E+02  0.16732341242E+03  0.25811255495E+03  0.17236076806E+03 0.  0.
        -24    2    5    5    0    0 -0.82935458986E+02  0.26157839148E+02  0.82759854796E+02  0.14443571633E+03  0.80311640993E+02 0.  0.
          5    1    3    3  501    0  0.53564143839E+02  0.28211378354E+02 -0.16137756805E+03  0.17242334193E+03  0.47000000000E+01 0. -1.
        -13    1    4    4    0    0  0.44990974316E+02  0.21384907510E+01  0.18746625008E+02  0.48787261266E+02  0.00000000000E+00 0.  1.
         14    1    4    4    0    0 -0.18215958708E+02  0.19272220410E+02 -0.26411989126E+02  0.37427700982E+02  0.00000000000E+00 0. -1.
         -5    1    5    5    0  502  0.25962995401E+01 -0.75779928664E+02  0.84563557628E+02  0.11367683862E+03  0.47000000000E+01 0.  1.
         11    1    6    6    0    0 -0.15704550997E+01  0.31981571672E+02  0.63060417161E+01  0.32635156166E+02  0.00000000000E+00 0. -1.
        -12    1    6    6    0    0 -0.81365003887E+02 -0.58237325237E+01  0.76453813080E+02  0.11180056016E+03  0.00000000000E+00 0.  1.
</event>
<event>
12    1  0.8226261E-002  0.1780121E+03  0.7818608E-02  0.1170092E+00
         21   -1    0    0  501  502  0.00000000000E+00  0.00000000000E+00  0.17464615059E+02  0.17464615059E+02  0.00000000000E+00 0. -1.
         21   -1    0    0  502  503 -0.00000000000E+00 -0.00000000000E+00 -0.22462556550E+04  0.22462556550E+04  0.00000000000E+00 0. -1.
         -6    2    1    2    0  503  0.25033068733E+02 -0.37738693412E+02 -0.16153286076E+04  0.16249523483E+04  0.17068321623E+03 0.  0.
        -24    2    3    3    0    0 -0.31440144753E+02 -0.25816702137E+02 -0.13760846223E+04  0.13787996880E+04  0.76319767476E+02 0.  0.
          6    2    1    2  501    0 -0.25033068733E+02  0.37738693412E+02 -0.61346243235E+03  0.63876792174E+03  0.17215527417E+03 0.  0.
         24    2    5    5    0    0 -0.19192165703E+02 -0.30098959806E+02 -0.18026052697E+03  0.20022254875E+03  0.79504244160E+02 0.  0.
          5    1    5    5  501    0 -0.58409030301E+01  0.67837653218E+02 -0.43320190538E+03  0.43854537299E+03  0.47000000000E+01 0. -1.
        -13    1    6    6    0    0 -0.62919266677E-01 -0.23631978947E+02 -0.17838418030E+03  0.17994274137E+03  0.00000000000E+00 0.  1.
         14    1    6    6    0    0 -0.19129246436E+02 -0.64669808586E+01 -0.18763466623E+01  0.20279807382E+02  0.00000000000E+00 0. -1.
         -5    1    3    3    0  503  0.56473213486E+02 -0.11921991275E+02 -0.23924398528E+03  0.24615266037E+03  0.47000000000E+01 0.  1.
         13    1    4    4    0    0 -0.26305232128E+02  0.10145789351E+02 -0.10968093538E+04  0.10971716642E+04  0.00000000000E+00 0. -1.
        -14    1    4    4    0    0 -0.51349126248E+01 -0.35962491488E+02 -0.27927526855E+03  0.28162802372E+03  0.00000000000E+00 0.  1.
</event>
<event>
12    1  0.8226261E-002  0.2407952E+03  0.7818608E-02  0.1119302E+00
         21   -1    0    0  501  502  0.00000000000E+00  0.00000000000E+00  0.13035423057E+04  0.13035423057E+04  0.00000000000E+00 0. -1.
         21   -1    0    0  502  503 -0.00000000000E+00 -0.00000000000E+00 -0.46077038127E+02  0.46077038127E+02  0.00000000000E+00 0. -1.
         -6    2    1    2    0  503 -0.80776995324E+02 -0.14825072737E+03  0.75624991115E+03  0.79366002777E+03  0.17169481769E+03 0.  0.
        -24    2    3    3    0    0 -0.13380886807E+02 -0.13748003644E+03  0.62487812905E+03  0.64554224235E+03  0.84689444056E+02 0.  0.
          6    2    1    2  501    0  0.80776995324E+02  0.14825072737E+03  0.50121535645E+03  0.55595931609E+03  0.17137889737E+03 0.  0.
         24    2    5    5    0    0 -0.88678201894E+01  0.44215763867E+02  0.29313278473E+03  0.30660031137E+03  0.77738339575E+02 0.  0.
          5    1    5    5  501    0  0.89644815513E+02  0.10403496350E+03  0.20808257172E+03  0.24935900472E+03  0.47000000000E+01 0. -1.
        -13    1    6    6    0    0 -0.19065084079E+02  0.21574286219E+01  0.13074431330E+02  0.23217938836E+02  0.00000000000E+00 0.  1.
         14    1    6    6    0    0  0.10197263889E+02  0.42058335246E+02  0.28005835340E+03  0.28338237253E+03  0.00000000000E+00 0. -1.
         -5    1    3    3    0  503 -0.67396108517E+02 -0.10770690935E+02  0.13137178210E+03  0.14811778542E+03  0.47000000000E+01 0.  1.
         13    1    4    4    0    0  0.65499664121E+01 -0.12592528773E+03  0.39799931845E+03  0.41749675165E+03  0.00000000000E+00 0. -1.
        -14    1    4    4    0    0 -0.19930853219E+02 -0.11554748710E+02  0.22687881060E+03  0.22804549069E+03  0.00000000000E+00 0.  1.
</event>
<event>
12    1  0.8226261E-002  0.1824233E+03  0.7818608E-02  0.1165537E+00
         21   -1    0    0  503  502  0.00000000000E+00  0.00000000000E+00  0.20596255709E+04  0.20596255709E+04  0.00000000000E+00 0.  1.
         21   -1    0    0  501  503 -0.00000000000E+00 -0.00000000000E+00 -0.35758658341E+02  0.35758658341E+02  0.00000000000E+00 0.  1.
          6    2    1    2  501    0 -0.40674936616E+02  0.45035716980E+02  0.23612633302E+03  0.29838552265E+03  0.17203374294E+03 0.  0.
         24    2    3    3    0    0 -0.82917623380E+01  0.35808861970E+02  0.37265057946E+02  0.96638895530E+02  0.81236467595E+02 0.  0.
         -6    2    1    2    0  502  0.40674936616E+02 -0.45035716980E+02  0.17877405795E+04  0.17969987066E+04  0.17177108456E+03 0.  0.
        -24    2    5    5    0    0  0.11567601726E+02  0.32437903598E+02  0.11955242841E+04  0.11990090500E+04  0.84607098188E+02 0.  0.
          5    1    3    3  501    0 -0.32383174278E+02  0.92268550097E+01  0.19886127508E+03  0.20174662712E+03  0.47000000000E+01 0. -1.
        -11    1    4    4    0    0  0.29315912819E+02  0.39299810676E+02  0.99542552276E+01  0.50029841702E+02  0.00000000000E+00 0.  1.
         12    1    4    4    0    0 -0.37607675157E+02 -0.34909487063E+01  0.27310802719E+02  0.46609053828E+02  0.00000000000E+00 0. -1.
         -5    1    5    5    0  502  0.29107334889E+02 -0.77473620577E+02  0.59221629540E+03  0.59798965657E+03  0.47000000000E+01 0.  1.
         13    1    6    6    0    0  0.70130116413E-01 -0.16921629206E+02  0.80891990876E+03  0.80909688248E+03  0.00000000000E+00 0. -1.
        -14    1    6    6    0    0  0.11497471610E+02  0.49359532804E+02  0.38660437536E+03  0.38991216752E+03  0.00000000000E+00 0.  1.
</event>
<event>
12    1  0.8226261E-002  0.2018902E+03  0.7818608E-02  0.1148391E+00
         21   -1    0    0  503  502  0.00000000000E+00  0.00000000000E+00  0.60504884097E+03  0.60504884097E+03  0.00000000000E+00 0. -1.
         21   -1    0    0  501  503 -0.00000000000E+00 -0.00000000000E+00 -0.66998781894E+02  0.66998781894E+02  0.00000000000E+00 0. -1.
          6    2    1    2  501    0  0.10303586175E+03 -0.18773460551E+02  0.27244279165E+03  0.33842078432E+03  0.17127381851E+03 0.  0.
         24    2    3    3    0    0  0.13805767555E+03 -0.19499936636E+02  0.24966300250E+03  0.29637243116E+03  0.77877043022E+02 0.  0.
         -6    2    1    2    0  502 -0.10303586175E+03  0.18773460551E+02  0.26560726742E+03  0.33362683854E+03  0.17260016009E+03 0.  0.
        -24    2    5    5    0    0 -0.90296038131E+02  0.75790756108E+02  0.17529599932E+03  0.22596305520E+03  0.80205995557E+02 0.  0.
          5    1    3    3  501    0 -0.35021813798E+02  0.72647608535E+00  0.22779789154E+02  0.42048353155E+02  0.47000000000E+01 0. -1.
        -13    1    4    4    0    0  0.26335848527E+02  0.62838617780E+01  0.69703107154E+01  0.27957987552E+02  0.00000000000E+00 0.  1.
         14    1    4    4    0    0  0.11172182702E+03 -0.25783798414E+02  0.24269269178E+03  0.26841444361E+03  0.00000000000E+00 0. -1.
         -5    1    5    5    0  502 -0.12739823617E+02 -0.57017295557E+02  0.90311268102E+02  0.10766378335E+03  0.47000000000E+01 0.  1.
         13    1    6    6    0    0 -0.59962275084E+02  0.89468756969E+02  0.14730979071E+03  0.18248371803E+03  0.00000000000E+00 0. -1.
        -14    1    6    6    0    0 -0.30333763047E+02 -0.13678000862E+02  0.27986208605E+02  0.43479337164E+02  0.00000000000E+00 0.  1.
</event>
<event>
12    1  0.8226261E-002  0.2065207E+03  0.7818608E-02  0.1144426E+00
         21   -1    0    0  503  502  0.00000000000E+00  0.00000000000E+00  0.36845126912E+03  0.36845126912E+03  0.00000000000E+00 0. -1.
         21   -1    0    0  501  503 -0.00000000000E+00 -0.00000000000E+00 -0.12016890389E+03  0.12016890389E+03  0.00000000000E+00 0.  1.
          6    2    1    2  501    0  0.11258784770E+03  0.65317071087E+01  0.17214716057E+03  0.26885952710E+03  0.17300899911E+03 0.  0.
         24    2    3    3    0    0  0.42741470371E+02 -0.73391092575E+01  0.17514140254E+03  0.19743144118E+03  0.80149655454E+02 0.  0.
         -6    2    1    2    0  502 -0.11258784770E+03 -0.65317071087E+01  0.76135204667E+02  0.21976064592E+03  0.17256733601E+03 0.  0.
        -24    2    5    5    0    0 -0.82786752087E+02 -0.67610124064E+02  0.71515364629E+02  0.15148099126E+03  0.80045412982E+02 0.  0.
          5    1    3    3  501    0  0.69846377329E+02  0.13870816366E+02 -0.29942419708E+01  0.71428085916E+02  0.47000000000E+01 0. -1.
        -11    1    4    4    0    0  0.55880005947E+02  0.15699535048E+02  0.81161686688E+02  0.99781109692E+02  0.00000000000E+00 0.  1.
         12    1    4    4    0    0 -0.13138535575E+02 -0.23038644306E+02  0.93979715850E+02  0.97650331488E+02  0.00000000000E+00 0. -1.
         -5    1    5    5    0  502 -0.29801095614E+02  0.61078416956E+02  0.46198400387E+01  0.68279654653E+02  0.47000000000E+01 0.  1.
         13    1    6    6    0    0 -0.26158066107E+02 -0.28994465680E+02  0.73148885030E+02  0.82919737359E+02  0.00000000000E+00 0. -1.
        -14    1    6    6    0    0 -0.56628685979E+02 -0.38615658385E+02 -0.16335204013E+01  0.68561253906E+02  0.00000000000E+00 0.  1.
</event>
<event>
12    1  0.8226261E-002  0.2008747E+03  0.7818608E-02  0.1149025E+00
         21   -1    0    0  503  502  0.00000000000E+00  0.00000000000E+00  0.12133223822E+03  0.12133223822E+03  0.00000000000E+00 0.  1.
         21   -1    0    0  501  503 -0.00000000000E+00 -0.00000000000E+00 -0.57643966162E+03  0.57643966162E+03  0.00000000000E+00 0.  1.
          6    2    1    2  501    0 -0.87327155547E+02 -0.57512904471E+02 -0.51130235736E+00  0.20077261724E+03  0.17139316242E+03 0.  0.
         24    2    3    3    0    0 -0.84934193118E+02 -0.78802279820E+02 -0.48302158154E+02  0.14818916290E+03  0.78761113843E+02 0.  0.
         -6    2    1    2    0  502  0.87327155547E+02  0.57512904471E+02 -0.45459612104E+03  0.49699928261E+03  0.17151351951E+03 0.  0.
        -24    2    5    5    0    0  0.38447837856E+02  0.79913054833E+02 -0.40951145325E+03  0.42667381280E+03  0.80539304804E+02 0.  0.
          5    1    3    3  501    0 -0.23929624284E+01  0.21289375349E+02  0.47790855797E+02  0.52583454334E+02  0.47000000000E+01 0. -1.
        -11    1    4    4    0    0 -0.19334513362E+02 -0.47323478548E+02  0.13333424780E+02  0.52831006475E+02  0.00000000000E+00 0.  1.
         12    1    4    4    0    0 -0.65599679756E+02 -0.31478801272E+02 -0.61635582934E+02  0.95358156427E+02  0.00000000000E+00 0. -1.
         -5    1    5    5    0  502  0.48879317691E+02 -0.22400150362E+02 -0.45084667788E+02  0.70325469808E+02  0.47000000000E+01 0.  1.
         11    1    6    6    0    0  0.36184075163E+02  0.80244847079E+02 -0.21734668696E+03  0.23449542663E+03  0.00000000000E+00 0. -1.
        -12    1    6    6    0    0  0.22637626934E+01 -0.33179224646E+00 -0.19216476629E+03  0.19217838617E+03  0.00000000000E+00 0.  1.
</event>
<event>
12    1  0.8226261E-002  0.2590142E+03  0.7818608E-02  0.1107769E+00
         21   -1    0    0  501  502  0.00000000000E+00  0.00000000000E+00  0.75420301488E+02  0.75420301488E+02  0.00000000000E+00 0.  1.
         21   -1    0    0  502  503 -0.00000000000E+00 -0.00000000000E+00 -0.90488071150E+03  0.90488071150E+03  0.00000000000E+00 0.  1.
         -6    2    1    2    0  503  0.15437496612E+03 -0.11620449406E+03 -0.34956658117E+03  0.43506910794E+03  0.17249121544E+03 0.  0.
        -24    2    3    3    0    0  0.24956554106E+02 -0.45745166880E+01 -0.15720599389E+03  0.17770737271E+03  0.78882380839E+02 0.  0.
          6    2    1    2  501    0 -0.15437496612E+03  0.11620449406E+03 -0.47989382884E+03  0.54523190505E+03  0.17217615607E+03 0.  0.
         24    2    5    5    0    0 -0.11143597969E+03  0.14604744547E+03 -0.32525167461E+03  0.38192041075E+03  0.79540646309E+02 0.  0.
          5    1    5    5  501    0 -0.42938986434E+02 -0.29842951405E+02 -0.15464215423E+03  0.16331149430E+03  0.47000000000E+01 0. -1.
        -11    1    6    6    0    0 -0.25610306525E+02  0.52707618352E+02 -0.17903107828E+03  0.18837756720E+03  0.00000000000E+00 0.  1.
         12    1    6    6    0    0 -0.85825673165E+02  0.93339827115E+02 -0.14622059632E+03  0.19354284355E+03  0.00000000000E+00 0. -1.
         -5    1    3    3    0  503  0.12941841202E+03 -0.11162997737E+03 -0.19236058728E+03  0.25736173523E+03  0.47000000000E+01 0.  1.
         13    1    4    4    0    0  0.44758870205E+02  0.35422805798E+01 -0.45327579526E+02  0.63800420683E+02  0.00000000000E+00 0. -1.
        -14    1    4    4    0    0 -0.19802316098E+02 -0.81167972678E+01 -0.11187841436E+03  0.11390695203E+03  0.00000000000E+00 0.  1.
</event>
<event>
12    1  0.8226261E-002  0.2069737E+03  0.7818608E-02  0.1144410E+00
         21   -1    0    0  503  502  0.00000000000E+00  0.00000000000E+00  0.10199210808E+03  0.10199210808E+03  0.00000000000E+00 0. -1.
         21   -1    0    0  501  503 -0.00000000000E+00 -0.00000000000E+00 -0.48728361260E+03  0.48728361260E+03  0.00000000000E+00 0. -1.
          6    2    1    2  501    0 -0.10953415729E+03 -0.34068018181E+02 -0.30634799368E+03  0.36971231180E+03  0.17227808565E+03 0.  0.
         24    2    3    3    0    0 -0.14514023008E+03 -0.39220875349E+02 -0.26021074960E+03  0.31101751094E+03  0.80114258769E+02 0.  0.
         -6    2    1    2    0  502  0.10953415729E+03  0.34068018181E+02 -0.78943510846E+02  0.21956340887E+03  0.16975762467E+03 0.  0.
        -24    2    5    5    0    0  0.15940597934E+02  0.49106877429E+02  0.22541104293E+01  0.94659184197E+02  0.79307578867E+02 0.  0.
          5    1    3    3  501    0  0.35606072791E+02  0.51528571683E+01 -0.46137244081E+02  0.58694800860E+02  0.47000000000E+01 0. -1.
        -11    1    4    4    0    0 -0.58838223319E+02 -0.57304481360E+02 -0.12170774980E+03  0.14682818690E+03  0.00000000000E+00 0.  1.
         12    1    4    4    0    0 -0.86302006761E+02  0.18083606012E+02 -0.13850299980E+03  0.16418932404E+03  0.00000000000E+00 0. -1.
         -5    1    5    5    0  502  0.93593559355E+02 -0.15038859248E+02 -0.81197621275E+02  0.12490422467E+03  0.47000000000E+01 0.  1.
         13    1    6    6    0    0  0.66467066983E+00 -0.21852128650E+02 -0.19760192661E+01  0.21951354531E+02  0.00000000000E+00 0. -1.
        -14    1    6    6    0    0  0.15275927264E+02  0.70959006078E+02  0.42301296954E+01  0.72707829665E+02  0.00000000000E+00 0.  1.
</event>
<event>
12    1  0.8226261E-002  0.1842925E+03  0.7818608E-02  0.1163740E+00
         21   -1    0    0  503  502  0.00000000000E+00  0.00000000000E+00  0.10717123801E+04  0.10717123801E+04  0.00000000000E+00 0. -1.
         21   -1    0    0  501  503 -0.00000000000E+00 -0.00000000000E+00 -0.33717230272E+02  0.33717230272E+02  0.00000000000E+00 0. -1.
          6    2    1    2  501    0 -0.20621838630E+02  0.59479053239E+02  0.38297592141E+03  0.42501092552E+03  0.17320713734E+03 0.  0.
         24    2    3    3    0    0 -0.67546977363E+02  0.64423455828E+02  0.18800965676E+03  0.22436110589E+03  0.79229407368E+02 0.  0.
         -6    2    1    2    0  502  0.20621838630E+02 -0.59479053239E+02  0.65501922847E+03  0.68041868490E+03  0.17307911227E+03 0.  0.
        -24    2    5    5    0    0 -0.27973384747E+02 -0.64804166918E+02  0.58727474024E+03  0.59674516307E+03  0.78937182763E+02 0.  0.
          5    1    3    3  501    0  0.46925138732E+02 -0.49444025887E+01  0.19496626465E+03  0.20064981962E+03  0.47000000000E+01 0. -1.
        -13    1    4    4    0    0 -0.48275121984E+02  0.46147498205E+01  0.13034896995E+03  0.13907781018E+03  0.00000000000E+00 0.  1.
         14    1    4    4    0    0 -0.19271855379E+02  0.59808706007E+02  0.57660686809E+02  0.85283295711E+02  0.00000000000E+00 0. -1.
         -5    1    5    5    0  502  0.48595223377E+02  0.53251136793E+01  0.67744488228E+02  0.83673521834E+02  0.47000000000E+01 0.  1.
         11    1    6    6    0    0  0.23384130724E+02 -0.21768239383E+02  0.30303763143E+03  0.30471704888E+03  0.00000000000E+00 0. -1.
        -12    1    6    6    0    0 -0.51357515471E+02 -0.43035927535E+02  0.28423710881E+03  0.29202811419E+03  0.00000000000E+00 0.  1.
</event>
<event>
12    1  0.8226261E-002  0.2505804E+03  0.7818608E-02  0.1112993E+00
         21   -1    0    0  503  502  0.00000000000E+00  0.00000000000E+00  0.38729551997E+03  0.38729551997E+03  0.00000000000E+00 0. -1.
         21   -1    0    0  501  503 -0.00000000000E+00 -0.00000000000E+00 -0.16942572166E+03  0.16942572166E+03  0.00000000000E+00 0.  1.
          6    2    1    2  501    0 -0.16394885740E+03 -0.79396572435E+02  0.50346115908E+02  0.25558809779E+03  0.17206830268E+03 0.  0.
         24    2    3    3    0    0 -0.17376655291E+03 -0.56545519031E+02 -0.97540483452E+00  0.19836444640E+03  0.77170535485E+02 0.  0.
         -6    2    1    2    0  502  0.16394885740E+03  0.79396572435E+02  0.16752368240E+03  0.30113314384E+03  0.17156323207E+03 0.  0.
        -24    2    5    5    0    0  0.10399781345E+03  0.47567704151E+01  0.15916493945E+03  0.20491887100E+03  0.76289538424E+02 0.  0.
          5    1    3    3  501    0  0.98176955142E+01 -0.22851053404E+02  0.51321520743E+02  0.57223651389E+02  0.47000000000E+01 0. -1.
        -13    1    4    4    0    0 -0.11988018671E+03 -0.56639228603E+02 -0.31714438627E+02  0.13632705894E+03  0.00000000000E+00 0.  1.
         14    1    4    4    0    0 -0.53886366198E+02  0.93709572287E-01  0.30739033792E+02  0.62037387453E+02  0.00000000000E+00 0. -1.
         -5    1    5    5    0  502  0.59951043945E+02  0.74639802020E+02  0.83587429511E+01  0.96214272847E+02  0.47000000000E+01 0.  1.
         11    1    6    6    0    0  0.69252019277E+02  0.13524010991E+02  0.41369888998E+02  0.81793696352E+02  0.00000000000E+00 0. -1.
        -12    1    6    6    0    0  0.34745794173E+02 -0.87672405758E+01  0.11779505045E+03  0.12312517464E+03  0.00000000000E+00 0.  1.
</event>
<event>
12    1  0.8226261E-002  0.2254834E+03  0.7818608E-02  0.1131022E+00
         21   -1    0    0  501  502  0.00000000000E+00  0.00000000000E+00  0.63253133797E+03  0.63253133797E+03  0.00000000000E+00 0.  1.
         21   -1    0    0  502  503 -0.00000000000E+00 -0.00000000000E+00 -0.23497458714E+04  0.23497458714E+04  0.00000000000E+00 0.  1.
         -6    2    1    2    0  503  0.14550392408E+02 -0.14186979949E+03 -0.23251462137E+04  0.23360538648E+04  0.17465391496E+03 0.  0.
        -24    2    3    3    0    0  0.57135002104E+02 -0.11948655003E+03 -0.12270494947E+04  0.12368937521E+04  0.81940512438E+02 0.  0.
          6    2    1    2  501    0 -0.14550392408E+02  0.14186979949E+03  0.60793168027E+03  0.64622334462E+03  0.16638788818E+03 0.  0.
         24    2    5    5    0    0  0.57230843086E+02  0.10482967942E+03  0.45440568600E+03  0.47268131173E+03  0.51753878131E+02 0.  0.
          5    1    5    5  501    0 -0.71781235494E+02  0.37040120073E+02  0.15352599426E+03  0.17354203289E+03  0.47000000000E+01 0. -1.
        -11    1    6    6    0    0  0.56719266292E+02  0.87925182496E+02  0.43266599729E+03  0.44513793154E+03  0.00000000000E+00 0.  1.
         12    1    6    6    0    0  0.51157679357E+00  0.16904496923E+02  0.21739688715E+02  0.27543380193E+02  0.00000000000E+00 0. -1.
         -5    1    3    3    0  503 -0.42584609696E+02 -0.22383249463E+02 -0.10980967190E+04  0.10991601126E+04  0.47000000000E+01 0.  1.
         11    1    4    4    0    0  0.22092238892E+02 -0.36988651595E+01 -0.69048886065E+02  0.72591303126E+02  0.00000000000E+00 0. -1.
        -12    1    4    4    0    0  0.35042763213E+02 -0.11578768487E+03 -0.11580006086E+04  0.11643024490E+04  0.00000000000E+00 0.  1.
</event>
<event>
12    1  0.8226261E-002  0.2023986E+03  0.7818608E-02  0.1147803E+00
         21   -1    0    0  501  502  0.00000000000E+00  0.00000000000E+00  0.45704259722E+03  0.45704259722E+03  0.00000000000E+00 0. -1.
         21   -1    0    0  502  503 -0.00000000000E+00 -0.00000000000E+00 -0.21503310787E+03  0.21503310787E+03  0.00000000000E+00 0.  1.
         -6    2    1    2    0  503 -0.25011259035E+02 -0.10570422460E+03 -0.13581381177E+03  0.24345505775E+03  0.17037026588E+03 0.  0.
        -24    2    3    3    0    0  0.22452523540E+02 -0.65148596189E+01 -0.31094853735E+02  0.91535700997E+02  0.82857319647E+02 0.  0.
          6    2    1    2  501    0  0.25011259035E+02  0.10570422460E+03  0.37782330112E+03  0.42862064734E+03  0.17078134056E+03 0.  0.
         24    2    5    5    0    0  0.30191729929E+02  0.39169126963E+01  0.96650277778E+02  0.12950887359E+03  0.80649794686E+02 0.  0.
          5    1    5    5  501    0 -0.51804708945E+01  0.10178731191E+03  0.28117302334E+03  0.29911177375E+03  0.47000000000E+01 0. -1.
        -11    1    6    6    0    0  0.15797116186E+02  0.50026571365E+01  0.10915793795E+03  0.11040847284E+03  0.00000000000E+00 0.  1.
         12    1    6    6    0    0  0.14394613743E+02 -0.10857444402E+01 -0.12507660170E+02  0.19100400748E+02  0.00000000000E+00 0. -1.
         -5    1    3    3    0  503 -0.47463782575E+02 -0.99189364983E+02 -0.10471895804E+03  0.15191935675E+03  0.47000000000E+01 0.  1.
         11    1    4    4    0    0  0.44514091724E+02 -0.37575492975E+01 -0.46504176288E+02  0.64484586926E+02  0.00000000000E+00 0. -1.
        -12    1    4    4    0    0 -0.22061568185E+02 -0.27573103214E+01  0.15409322553E+02  0.27051114071E+02  0.00000000000E+00 0.  1.
</event>
<event>
12    1  0.8226261E-002  0.2321057E+03  0.7818608E-02  0.1125214E+00
         21   -1    0    0  501  502  0.00000000000E+00  0.00000000000E+00  0.13177504120E+04  0.13177504120E+04  0.00000000000E+00 0.  1.
         21   -1    0    0  502  503 -0.00000000000E+00 -0.00000000000E+00 -0.52887112011E+02  0.52887112011E+02  0.00000000000E+00 0.  1.
         -6    2    1    2    0  503 -0.14596034060E+02  0.15543343285E+03  0.95988153301E+03  0.98754525158E+03  0.17175700933E+03 0.  0.
        -24    2    3    3    0    0  0.21032551278E+01  0.10288282796E+03  0.88383737870E+03  0.89349613815E+03  0.81102015517E+02 0.  0.
          6    2    1    2  501    0  0.14596034060E+02 -0.15543343285E+03  0.30498176695E+03  0.38309227239E+03  0.17138615679E+03 0.  0.
         24    2    5    5    0    0 -0.19243425369E+02 -0.16933860813E+03  0.28322321897E+03  0.34026719418E+03  0.80749600924E+02 0.  0.
          5    1    5    5  501    0  0.33839459429E+02  0.13905175273E+02  0.21758547975E+02  0.42825078211E+02  0.47000000000E+01 0. -1.
        -11    1    6    6    0    0 -0.27741595639E+02 -0.14323830948E+03  0.17122857369E+03  0.22495784912E+03  0.00000000000E+00 0.  1.
         12    1    6    6    0    0  0.84981702700E+01 -0.26100298643E+02  0.11199464528E+03  0.11530934506E+03  0.00000000000E+00 0. -1.
         -5    1    3    3    0  503 -0.16699289188E+02  0.52550604893E+02  0.76044154307E+02  0.94049113437E+02  0.47000000000E+01 0.  1.
         11    1    4    4    0    0  0.25863922273E+02  0.93979414421E+01  0.98992301271E+02  0.10274599501E+03  0.00000000000E+00 0. -1.
        -12    1    4    4    0    0 -0.23760667145E+02  0.93484886519E+02  0.78484507743E+03  0.79075014314E+03  0.00000000000E+00 0.  1.
</event>
<event>
12    1  0.8226261E-002  0.2006032E+03  0.7818608E-02  0.1149270E+00
         21   -1    0    0  501  502  0.00000000000E+00  0.00000000000E+00  0.73150216639E+03  0.73150216639E+03  0.00000000000E+00 0. -1.
         21   -1    0    0  502  503 -0.00000000000E+00 -0.00000000000E+00 -0.78977257114E+02  0.78977257114E+02  0.00000000000E+00 0. -1.
         -6    2    1    2    0  503  0.18202988641E+02  0.10156473234E+03  0.10290256754E+03  0.22545637349E+03  0.17203166653E+03 0.  0.
        -24    2    3    3    0    0  0.73490109244E+02  0.94056770720E+02  0.83017471462E+02  0.16603800732E+03  0.80182585592E+02 0.  0.
          6    2    1    2  501    0 -0.18202988641E+02 -0.10156473234E+03  0.54962234174E+03  0.58502305001E+03  0.17181532777E+03 0.  0.
         24    2    5    5    0    0 -0.46024350989E+02 -0.60440507094E+01  0.18226137919E+03  0.20439935707E+03  0.80031964828E+02 0.  0.
          5    1    5    5  501    0  0.27821362348E+02 -0.95520681635E+02  0.36736096255E+03  0.38062369294E+03  0.47000000000E+01 0. -1.
        -11    1    6    6    0    0  0.57270110452E+00 -0.17453052760E+00 -0.82056324872E+01  0.82274450454E+01  0.00000000000E+00 0.  1.
         12    1    6    6    0    0 -0.46597052093E+02 -0.58695201818E+01  0.19046701168E+03  0.19617191203E+03  0.00000000000E+00 0. -1.
         -5    1    3    3    0  503 -0.55287120603E+02  0.75079616239E+01  0.19885096075E+02  0.59418366169E+02  0.47000000000E+01 0.  1.
         13    1    4    4    0    0  0.65037937760E+01  0.59602417165E+02  0.93590762838E+01  0.60682285506E+02  0.00000000000E+00 0. -1.
        -14    1    4    4    0    0  0.66986315468E+02  0.34454353555E+02  0.73658395178E+02  0.10535572182E+03  0.00000000000E+00 0.  1.
</event>
<event>
12    1  0.8226261E-002  0.2120166E+03  0.7818608E-02  0.1140011E+00
         21   -1    0    0  501  502  0.00000000000E+00  0.00000000000E+00  0.16413304464E+03  0.16413304464E+03  0.00000000000E+00 0.  1.
         21   -1    0    0  502  503 -0.00000000000E+00 -0.00000000000E+00 -0.50821970879E+03  0.50821970879E+03  0.00000000000E+00 0.  1.
         -6    2    1    2    0  503 -0.55972804792E+02 -0.11019091110E+03 -0.40046543786E+03  0.45312646036E+03  0.17226732247E+03 0.  0.
        -24    2    3    3    0    0 -0.63816096590E+01 -0.13014163221E+03 -0.24045875626E+03  0.28436169489E+03  0.77869061134E+02 0.  0.
          6    2    1    2  501    0  0.55972804792E+02  0.11019091110E+03  0.56378773710E+02  0.21922629306E+03  0.17206571326E+03 0.  0.
         24    2    5    5    0    0  0.61022320946E+02  0.14028012366E+03  0.22498526380E+02  0.17339159568E+03  0.78461614919E+02 0.  0.
          5    1    5    5  501    0 -0.50495161541E+01 -0.30089212553E+02  0.33880247330E+02  0.45834697387E+02  0.47000000000E+01 0. -1.
        -11    1    6    6    0    0  0.48261385494E+02  0.40569301493E+02  0.34970275151E+02  0.72096807818E+02  0.00000000000E+00 0.  1.
         12    1    6    6    0    0  0.12760935453E+02  0.99710822163E+02 -0.12471748771E+02  0.10129478786E+03  0.00000000000E+00 0. -1.
         -5    1    3    3    0  503 -0.49591195133E+02  0.19950721110E+02 -0.16000668160E+03  0.16876476547E+03  0.47000000000E+01 0.  1.
         13    1    4    4    0    0 -0.84230358383E+01  0.14278302590E+01  0.17470500069E+01  0.87200009007E+01  0.00000000000E+00 0. -1.
        -14    1    4    4    0    0  0.20414261793E+01 -0.13156946247E+03 -0.24220580627E+03  0.27564169399E+03  0.00000000000E+00 0.  1.
</event>
<event>
12    1  0.8226261E-002  0.2236486E+03  0.7818608E-02  0.1134408E+00
         21   -1    0    0  501  502  0.00000000000E+00  0.00000000000E+00  0.71348132177E+03  0.71348132177E+03  0.00000000000E+00 0.  1.
         21   -1    0    0  502  503 -0.00000000000E+00 -0.00000000000E+00 -0.68451649726E+02  0.68451649726E+02  0.00000000000E+00 0.  1.
         -6    2    1    2    0  503 -0.18942305968E+02 -0.11154599412E+03  0.24561440401E+03  0.33218237495E+03  0.19291805259E+03 0.  0.
        -24    2    3    3    0    0  0.58971188904E+02 -0.16167541286E+02  0.11581829320E+03  0.15319443589E+03  0.79471174882E+02 0.  0.
          6    2    1    2  501    0  0.18942305968E+02  0.11154599412E+03  0.39941526803E+03  0.44975059654E+03  0.17303676773E+03 0.  0.
         24    2    5    5    0    0  0.38774500372E+02  0.12935985095E+03  0.39131544773E+03  0.42149557010E+03  0.79330341393E+02 0.  0.
          5    1    5    5  501    0 -0.19832194404E+02 -0.17813856830E+02  0.80998203060E+01  0.28255026438E+02  0.47000000000E+01 0. -1.
        -13    1    6    6    0    0 -0.12096314921E+00  0.31286415041E+02  0.24295436455E+02  0.39612152564E+02  0.00000000000E+00 0.  1.
         14    1    6    6    0    0  0.38895463521E+02  0.98073435911E+02  0.36702001127E+03  0.38188341753E+03  0.00000000000E+00 0. -1.
         -5    1    3    3    0  503 -0.77913494872E+02 -0.95378452836E+02  0.12979611081E+03  0.17898793906E+03  0.47000000000E+01 0.  1.
         11    1    4    4    0    0  0.38022433638E+02  0.16139089277E+02  0.10555018530E+03  0.11334468350E+03  0.00000000000E+00 0. -1.
        -12    1    4    4    0    0  0.20948755267E+02 -0.32306630562E+02  0.10268107900E+02  0.39849752388E+02  0.00000000000E+00 0.  1.
</event>
<event>
12    1  0.8226261E-002  0.2584073E+03  0.7818608E-02  0.1108581E+00
         21   -1    0    0  501  502  0.00000000000E+00  0.00000000000E+00  0.28868542930E+03  0.28868542930E+03  0.00000000000E+00 0.  1.
         21   -1    0    0  502  503 -0.00000000000E+00 -0.00000000000E+00 -0.23881695142E+03  0.23881695142E+03  0.00000000000E+00 0.  1.
         -6    2    1    2    0  503  0.15648918886E+03 -0.11453623581E+03 -0.29996029655E+02  0.25703491197E+03  0.16601135091E+03 0.  0.
        -24    2    3    3    0    0  0.25283320699E+02 -0.52866377202E+02  0.24390978612E+02  0.10212142653E+03  0.79998536081E+02 0.  0.
          6    2    1    2  501    0 -0.15648918886E+03  0.11453623581E+03  0.79864507538E+02  0.27046746875E+03  0.17078318577E+03 0.  0.
         24    2    5    5    0    0 -0.13864944591E+03  0.34031846226E+02  0.89282144624E+02  0.18734108870E+03  0.82119101059E+02 0.  0.
          5    1    5    5  501    0 -0.17839742952E+02  0.80504389586E+02 -0.94176370866E+01  0.83126380046E+02  0.47000000000E+01 0. -1.
        -13    1    6    6    0    0 -0.14460192961E+03  0.29833395461E+02  0.97053728348E+02  0.17668948955E+03  0.00000000000E+00 0.  1.
         14    1    6    6    0    0  0.59524836959E+01  0.41984507653E+01 -0.77715837232E+01  0.10651599154E+02  0.00000000000E+00 0. -1.
         -5    1    3    3    0  503  0.13120586816E+03 -0.61669858610E+02 -0.54387008267E+02  0.15491348544E+03  0.47000000000E+01 0.  1.
         13    1    4    4    0    0 -0.52217560715E+01 -0.49524715910E+02  0.43371600821E+02  0.66038322058E+02  0.00000000000E+00 0. -1.
        -14    1    4    4    0    0  0.30505076770E+02 -0.33416612918E+01 -0.18980622209E+02  0.36083104473E+02  0.00000000000E+00 0.  1.
</event>
<event>
12    1  0.8226261E-002  0.1843809E+03  0.7818608E-02  0.1169108E+00
         21   -1    0    0  501  502  0.00000000000E+00  0.00000000000E+00  0.16259804490E+03  0.16259804490E+03  0.00000000000E+00 0. -1.
         21   -1    0    0  502  503 -0.00000000000E+00 -0.00000000000E+00 -0.31395823616E+03  0.31395823616E+03  0.00000000000E+00 0. -1.
         -6    2    1    2    0  503 -0.13089799574E+02 -0.61895238334E+02 -0.23099824616E+03  0.29556131739E+03  0.17318758394E+03 0.  0.
        -24    2    3    3    0    0  0.21771743162E+02 -0.10184689909E+03 -0.16252579994E+03  0.20883169010E+03  0.79682115252E+02 0.  0.
          6    2    1    2  501    0  0.13089799574E+02  0.61895238334E+02  0.79638054901E+02  0.18099496367E+03  0.14971504168E+03 0.  0.
         24    2    5    5    0    0 -0.16090651998E+02  0.72337437281E+02  0.56309297369E+02  0.14191991792E+03  0.10713968554E+03 0.  0.
          5    1    5    5  501    0  0.29180451572E+02 -0.10442198947E+02  0.23328757531E+02  0.39075045755E+02  0.47000000000E+01 0. -1.
        -11    1    6    6    0    0  0.38560642918E+02  0.37679926106E+01  0.33743636810E+02  0.51378536138E+02  0.00000000000E+00 0.  1.
         12    1    6    6    0    0 -0.54651294916E+02  0.68569444671E+02  0.22565660560E+02  0.90541381782E+02  0.00000000000E+00 0. -1.
         -5    1    3    3    0  503 -0.34861542735E+02  0.39951660753E+02 -0.68472446220E+02  0.86729627292E+02  0.47000000000E+01 0.  1.
         13    1    4    4    0    0  0.23970283127E+02 -0.23708258740E+01 -0.86596971436E+01  0.25596594366E+02  0.00000000000E+00 0. -1.
        -14    1    4    4    0    0 -0.21985399652E+01 -0.99476073213E+02 -0.15386610279E+03  0.18323509574E+03  0.00000000000E+00 0.  1.
</event>
<event>
12    1  0.8226261E-002  0.1748133E+03  0.7818608E-02  0.1173265E+00
         21   -1    0    0  501  502  0.00000000000E+00  0.00000000000E+00  0.10804705727E+03  0.10804705727E+03  0.00000000000E+00 0. -1.
         21   -1    0    0  502  503 -0.00000000000E+00 -0.00000000000E+00 -0.68273228680E+03  0.68273228680E+03  0.00000000000E+00 0.  1.
         -6    2    1    2    0  503 -0.77668563391E+00 -0.18760340286E+02 -0.59031592569E+03  0.61526863899E+03  0.17242404819E+03 0.  0.
        -24    2    3    3    0    0  0.21978839725E+02 -0.39566832527E+02 -0.16266422573E+03  0.18648105692E+03  0.79163947780E+02 0.  0.
          6    2    1    2  501    0  0.77668563391E+00  0.18760340286E+02  0.15630696164E+02  0.17551070508E+03  0.17380200035E+03 0.  0.
         24    2    5    5    0    0  0.42164833576E+01 -0.43863835897E+02  0.51166748821E+02  0.10327137583E+03  0.78135306043E+02 0.  0.
          5    1    5    5  501    0 -0.34397977237E+01  0.62624176183E+02 -0.35536052656E+02  0.72239329243E+02  0.47000000000E+01 0. -1.
        -11    1    6    6    0    0 -0.36018179265E+02 -0.17245995734E+02  0.13804691694E+02  0.42252847468E+02  0.00000000000E+00 0.  1.
         12    1    6    6    0    0  0.40234662622E+02 -0.26617840163E+02  0.37362057126E+02  0.61018528366E+02  0.00000000000E+00 0. -1.
         -5    1    3    3    0  503 -0.22755525359E+02  0.20806492240E+02 -0.42765169996E+03  0.42878758207E+03  0.47000000000E+01 0.  1.
         11    1    4    4    0    0  0.37709387024E+02 -0.60648471971E+01 -0.13492991921E+03  0.14023146344E+03  0.00000000000E+00 0. -1.
        -12    1    4    4    0    0 -0.15730547298E+02 -0.33501985330E+02 -0.27734306522E+02  0.46249593485E+02  0.00000000000E+00 0.  1.
</event>
<event>
12    1  0.8226261E-002  0.2147382E+03  0.7818608E-02  0.1138108E+00
         21   -1    0    0  501  502  0.00000000000E+00  0.00000000000E+00  0.16513230636E+03  0.16513230636E+03  0.00000000000E+00 0. -1.
         21   -1    0    0  502  503 -0.00000000000E+00 -0.00000000000E+00 -0.27776803513E+03  0.27776803513E+03  0.00000000000E+00 0. -1.
         -6    2    1    2    0  503  0.24510393384E+02  0.12461043863E+03 -0.51577861655E+02  0.22084557156E+03  0.17315879956E+03 0.  0.
        -24    2    3    3    0    0  0.29379049015E+02  0.85734593674E+02  0.35541732948E+02  0.12520588894E+03  0.78738496110E+02 0.  0.
          6    2    1    2  501    0 -0.24510393384E+02 -0.12461043863E+03 -0.61057867112E+02  0.22205476993E+03  0.17161508358E+03 0.  0.
         24    2    5    5    0    0  0.56680886701E+01 -0.36599322033E+02  0.27696519891E+02  0.93384149213E+02  0.81128691026E+02 0.  0.
          5    1    5    5  501    0 -0.30178482054E+02 -0.88011116592E+02 -0.88754387003E+02  0.12867062071E+03  0.47000000000E+01 0. -1.
        -11    1    6    6    0    0  0.48219830195E+01 -0.78787562582E+01 -0.28667475861E+02  0.30118939102E+02  0.00000000000E+00 0.  1.
         12    1    6    6    0    0  0.84610565060E+00 -0.28720565775E+02  0.56363995752E+02  0.63265210110E+02  0.00000000000E+00 0. -1.
         -5    1    3    3    0  503 -0.48686556309E+01  0.38875844951E+02 -0.87119594603E+02  0.95639682623E+02  0.47000000000E+01 0.  1.
         13    1    4    4    0    0  0.20614284884E+02  0.88437636645E+02  0.24231976146E+01  0.90840718862E+02  0.00000000000E+00 0. -1.
        -14    1    4    4    0    0  0.87647641304E+01 -0.27030429706E+01  0.33118535334E+02  0.34365170074E+02  0.00000000000E+00 0.  1.
</event>
<event>
12    1  0.8226261E-002  0.1874454E+03  0.7818608E-02  0.1161707E+00
         21   -1    0    0  503  502  0.00000000000E+00  0.00000000000E+00  0.22777786657E+02  0.22777786657E+02  0.00000000000E+00 0. -1.
         21   -1    0    0  501  503 -0.00000000000E+00 -0.00000000000E+00 -0.15533833895E+04  0.15533833895E+04  0.00000000000E+00 0. -1.
          6    2    1    2  501    0  0.27692883666E+02  0.60929744171E+02 -0.90484401752E+03  0.92405545679E+03  0.17508986734E+03 0.  0.
         24    2    3    3    0    0  0.72440398542E+02  0.48951635631E+02 -0.40200693198E+03  0.41906729874E+03  0.79774391521E+02 0.  0.
         -6    2    1    2    0  502 -0.27692883666E+02 -0.60929744171E+02 -0.62576158533E+03  0.65210571938E+03  0.17083611456E+03 0.  0.
        -24    2    5    5    0    0 -0.34821903957E+02 -0.97602564169E+02 -0.55655872503E+03  0.57332218982E+03  0.90564305316E+02 0.  0.
          5    1    3    3  501    0 -0.44747514877E+02  0.11978108541E+02 -0.50283708554E+03  0.50498815804E+03  0.47000000000E+01 0. -1.
        -13    1    4    4    0    0  0.30289829279E+02  0.23391485181E+02 -0.32750512462E+03  0.32973359245E+03  0.00000000000E+00 0.  1.
         14    1    4    4    0    0  0.42150569263E+02  0.25560150450E+02 -0.74501807366E+02  0.89333706298E+02  0.00000000000E+00 0. -1.
         -5    1    5    5    0  502  0.71290202917E+01  0.36672819997E+02 -0.69202860296E+02  0.78783529561E+02  0.47000000000E+01 0.  1.
         13    1    6    6    0    0 -0.58364527923E+02 -0.45463179503E+02 -0.22462343935E+03  0.23649314645E+03  0.00000000000E+00 0. -1.
        -14    1    6    6    0    0  0.23542623966E+02 -0.52139384666E+02 -0.33193528568E+03  0.33682904337E+03  0.00000000000E+00 0.  1.
</event>
<event>
12    1  0.8226261E-002  0.2216758E+03  0.7818608E-02  0.1132808E+00
         21   -1    0    0  501  502  0.00000000000E+00  0.00000000000E+00  0.46910394740E+02  0.46910394740E+02  0.00000000000E+00 0.  1.
         21   -1    0    0  502  503 -0.00000000000E+00 -0.00000000000E+00 -0.17186468287E+04  0.17186468287E+04  0.00000000000E+00 0. -1.
         -6    2    1    2    0  503  0.37135941875E+02 -0.13093284313E+03 -0.13882273495E+04  0.14056717189E+04  0.17382554373E+03 0.  0.
        -24    2    3    3    0    0  0.42113286111E+02 -0.46595087640E+02 -0.38545584749E+03  0.39933658272E+03  0.83359851665E+02 0.  0.
          6    2    1    2  501    0 -0.37135941875E+02  0.13093284313E+03 -0.28350908446E+03  0.35988550460E+03  0.17497910693E+03 0.  0.
         24    2    5    5    0    0 -0.38934377660E+02  0.11747556596E+03 -0.30220988231E+03  0.33630283044E+03  0.80326747946E+02 0.  0.
          5    1    5    5  501    0  0.17984357848E+01  0.13457277169E+02  0.18700797853E+02  0.23582674157E+02  0.47000000000E+01 0. -1.
        -13    1    6    6    0    0 -0.41868846645E+02  0.14311394096E+02 -0.85395470617E+02  0.96177974205E+02  0.00000000000E+00 0.  1.
         14    1    6    6    0    0  0.29344689849E+01  0.10316417186E+03 -0.21681441169E+03  0.24012485624E+03  0.00000000000E+00 0. -1.
         -5    1    3    3    0  503 -0.49773442354E+01 -0.84337755488E+02 -0.10027715020E+04  0.10063351361E+04  0.47000000000E+01 0.  1.
         13    1    4    4    0    0  0.48395874926E+02 -0.67090476086E+02 -0.31594164153E+03  0.32659212107E+03  0.00000000000E+00 0. -1.
        -14    1    4    4    0    0 -0.62825888152E+01  0.20495388446E+02 -0.69514205965E+02  0.72744461650E+02  0.00000000000E+00 0.  1.
</event>
<event>
12    1  0.8226261E-002  0.2371906E+03  0.7818608E-02  0.1121941E+00
         21   -1    0    0  501  502  0.00000000000E+00  0.00000000000E+00  0.97791313752E+02  0.97791313752E+02  0.00000000000E+00 0. -1.
         21   -1    0    0  502  503 -0.00000000000E+00 -0.00000000000E+00 -0.82854816635E+03  0.82854816635E+03  0.00000000000E+00 0.  1.
         -6    2    1    2    0  503  0.91968254804E+02 -0.13452045268E+03 -0.62250451444E+03  0.66561371215E+03  0.17022288693E+03 0.  0.
        -24    2    3    3    0    0  0.14982743217E+02 -0.12017303946E+03 -0.29915575763E+03  0.33288390316E+03  0.81556628534E+02 0.  0.
          6    2    1    2  501    0 -0.91968254804E+02  0.13452045268E+03 -0.10825233816E+03  0.26072576794E+03  0.17235267701E+03 0.  0.
         24    2    5    5    0    0 -0.89670610861E+02  0.14047694217E+03 -0.36107112659E+02  0.18814627706E+03  0.79502882032E+02 0.  0.
          5    1    5    5  501    0 -0.22976439427E+01 -0.59564894946E+01 -0.72145225500E+02  0.72579490886E+02  0.47000000000E+01 0. -1.
        -13    1    6    6    0    0 -0.11971037528E+02  0.59343791921E+02 -0.45036801913E+02  0.75453991980E+02  0.00000000000E+00 0.  1.
         14    1    6    6    0    0 -0.77699573333E+02  0.81133150251E+02  0.89296892539E+01  0.11269228508E+03  0.00000000000E+00 0. -1.
         -5    1    3    3    0  503  0.76985511587E+02 -0.14347413218E+02 -0.32334875681E+03  0.33272980899E+03  0.47000000000E+01 0.  1.
         13    1    4    4    0    0  0.39552590160E+01 -0.83199714586E+02 -0.10056595826E+03  0.13058081231E+03  0.00000000000E+00 0. -1.
        -14    1    4    4    0    0  0.11027484201E+02 -0.36973324874E+02 -0.19858979936E+03  0.20230309086E+03  0.00000000000E+00 0.  1.
</event>
<event>
12    1  0.8226261E-002  0.2241306E+03  0.7818608E-02  0.1131047E+00
         21   -1    0    0  501  502  0.00000000000E+00  0.00000000000E+00  0.43196568298E+03  0.43196568298E+03  0.00000000000E+00 0.  1.
         21   -1    0    0  502  503 -0.00000000000E+00 -0.00000000000E+00 -0.11845788970E+03  0.11845788970E+03  0.00000000000E+00 0.  1.
         -6    2    1    2    0  503 -0.11769725463E+03 -0.78156289824E+02  0.11442338933E+03  0.25064175022E+03  0.17253267962E+03 0.  0.
        -24    2    3    3    0    0 -0.64936946364E+02 -0.56729903735E+02 -0.58404859761E+01  0.11749435124E+03  0.79597250686E+02 0.  0.
          6    2    1    2  501    0  0.11769725463E+03  0.78156289824E+02  0.19908440395E+03  0.29978182247E+03  0.17399279238E+03 0.  0.
         24    2    5    5    0    0  0.43463805611E+02  0.71458968000E+02  0.39031199792E+02  0.12316195599E+03  0.81547203147E+02 0.  0.
          5    1    5    5  501    0  0.74233449022E+02  0.66973218240E+01  0.16005320416E+03  0.17661986648E+03  0.47000000000E+01 0. -1.
        -13    1    6    6    0    0  0.58044438635E+02  0.57913168048E+02  0.30591957309E+01  0.82051511676E+02  0.00000000000E+00 0.  1.
         14    1    6    6    0    0 -0.14580633025E+02  0.13545799952E+02  0.35972004061E+02  0.41110444317E+02  0.00000000000E+00 0. -1.
         -5    1    3    3    0  503 -0.52760308269E+02 -0.21426386089E+02  0.12026387531E+03  0.13314739897E+03  0.47000000000E+01 0.  1.
         11    1    4    4    0    0 -0.62265784050E+02 -0.15705244073E+02  0.21958326498E+02  0.67866417744E+02  0.00000000000E+00 0. -1.
        -12    1    4    4    0    0 -0.26711623141E+01 -0.41024659661E+02 -0.27798812474E+02  0.49627933499E+02  0.00000000000E+00 0.  1.
</event>
<event>
12    1  0.8226261E-002  0.1819417E+03  0.7818608E-02  0.1166415E+00
         21   -1    0    0  503  502  0.00000000000E+00  0.00000000000E+00  0.71895479333E+02  0.71895479333E+02  0.00000000000E+00 0.  1.
         21   -1    0    0  501  503 -0.00000000000E+00 -0.00000000000E+00 -0.85313678082E+03  0.85313678082E+03  0.00000000000E+00 0.  1.
          6    2    1    2  501    0 -0.26913527524E+02 -0.47694276981E+02 -0.70756559836E+03  0.73058322090E+03  0.17350413438E+03 0.  0.
         24    2    3    3    0    0 -0.52656262502E+02  0.27097687962E+02 -0.41095151250E+03  0.42356769628E+03  0.83794278029E+02 0.  0.
         -6    2    1    2    0  502  0.26913527524E+02  0.47694276981E+02 -0.73675703125E+02  0.19444903926E+03  0.17141539492E+03 0.  0.
        -24    2    5    5    0    0  0.49571261022E+02  0.45928602812E+02 -0.10404395903E+03  0.15622847595E+03  0.94949696217E+02 0.  0.
          5    1    3    3  501    0  0.25742734978E+02 -0.74791964942E+02 -0.29661408586E+03  0.30701552461E+03  0.47000000000E+01 0. -1.
        -11    1    4    4    0    0 -0.55299565537E+01  0.28743039022E+02 -0.31795151680E+03  0.31929595949E+03  0.00000000000E+00 0.  1.
         12    1    4    4    0    0 -0.47126305948E+02 -0.16453510609E+01 -0.92999995705E+02  0.10427173679E+03  0.00000000000E+00 0. -1.
         -5    1    5    5    0  502 -0.22657733498E+02  0.17656741689E+01  0.30368255908E+02  0.38220563306E+02  0.47000000000E+01 0.  1.
         13    1    6    6    0    0  0.30616708905E+02  0.60191827424E+02 -0.11235921031E+03  0.13109168964E+03  0.00000000000E+00 0. -1.
        -14    1    6    6    0    0  0.18954552117E+02 -0.14263224612E+02  0.83152512725E+01  0.25136786310E+02  0.00000000000E+00 0.  1.
</event>
<event>
12    1  0.8226261E-002  0.2584791E+03  0.7818608E-02  0.1108189E+00
         21   -1    0    0  501  502  0.00000000000E+00  0.00000000000E+00  0.22308979209E+03  0.22308979209E+03  0.00000000000E+00 0.  1.
         21   -1    0    0  502  503 -0.00000000000E+00 -0.00000000000E+00 -0.29938262694E+03  0.29938262694E+03  0.00000000000E+00 0.  1.
         -6    2    1    2    0  503  0.19167972036E+03 -0.10605679750E+02 -0.24002827497E+02  0.25959115722E+03  0.17308332542E+03 0.  0.
        -24    2    3    3    0    0  0.19121598108E+03  0.47293136178E+01  0.24769842821E+02  0.20824682505E+03  0.78532013870E+02 0.  0.
          6    2    1    2  501    0 -0.19167972036E+03  0.10605679750E+02 -0.52290007352E+02  0.26288126181E+03  0.17181011991E+03 0.  0.
         24    2    5    5    0    0 -0.19150531996E+03 -0.35385012759E+02 -0.51960962546E+02  0.21664953587E+03  0.79439870746E+02 0.  0.
          5    1    5    5  501    0 -0.17440040050E+00  0.45990692509E+02 -0.32904480661E+00  0.46231725940E+02  0.47000000000E+01 0. -1.
        -13    1    6    6    0    0 -0.13012915249E+03  0.85269099052E+01 -0.11226282257E+02  0.13089054181E+03  0.00000000000E+00 0.  1.
         14    1    6    6    0    0 -0.61376167465E+02 -0.43911922664E+02 -0.40734680288E+02  0.85758994065E+02  0.00000000000E+00 0. -1.
         -5    1    3    3    0  503  0.46373927431E+00 -0.15334993368E+02 -0.48772670317E+02  0.51344332166E+02  0.47000000000E+01 0.  1.
         13    1    4    4    0    0  0.57833889842E+02  0.35661981158E+02  0.21572761032E+02  0.71287584704E+02  0.00000000000E+00 0. -1.
        -14    1    4    4    0    0  0.13338209124E+03 -0.30932667540E+02  0.31970817889E+01  0.13695924035E+03  0.00000000000E+00 0.  1.
</event>
<event>
12    1  0.8226261E-002  0.2273185E+03  0.7818608E-02  0.1129594E+00
         21   -1    0    0  501  502  0.00000000000E+00  0.00000000000E+00  0.36196079574E+03  0.36196079574E+03  0.00000000000E+00 0.  1.
         21   -1    0    0  502  503 -0.00000000000E+00 -0.00000000000E+00 -0.23617757752E+03  0.23617757752E+03  0.00000000000E+00 0.  1.
         -6    2    1    2    0  503  0.11567959556E+03 -0.89142313925E+02 -0.12928494228E+03  0.25647556952E+03  0.16654428990E+03 0.  0.
        -24    2    3    3    0    0  0.74243468302E+01 -0.14396513296E+02 -0.20900921502E+02  0.85960703451E+02  0.81792502696E+02 0.  0.
          6    2    1    2  501    0 -0.11567959556E+03  0.89142313925E+02  0.25506816051E+03  0.34166280374E+03  0.17419983926E+03 0.  0.
         24    2    5    5    0    0  0.63615969732E+00 -0.46555630623E+01  0.41696501357E+02  0.81130748949E+02  0.69437174719E+02 0.  0.
          5    1    5    5  501    0 -0.11631575525E+03  0.93797876987E+02  0.21337165915E+03  0.26053205480E+03  0.47000000000E+01 0. -1.
        -13    1    6    6    0    0 -0.48260694088E+01 -0.15972036509E+02  0.58110845508E+02  0.60458806322E+02  0.00000000000E+00 0.  1.
         14    1    6    6    0    0  0.54622291061E+01  0.11316473446E+02 -0.16414344151E+02  0.20671942627E+02  0.00000000000E+00 0. -1.
         -5    1    3    3    0  503  0.10825524872E+03 -0.74745800629E+02 -0.10838402078E+03  0.17051486606E+03  0.47000000000E+01 0.  1.
         13    1    4    4    0    0  0.44330675607E+02 -0.11536687739E+02 -0.66136594516E+01  0.46282226125E+02  0.00000000000E+00 0. -1.
        -14    1    4    4    0    0 -0.36906328777E+02 -0.28598255573E+01 -0.14287262051E+02  0.39678477326E+02  0.00000000000E+00 0.  1.
</event>
<event>
12    1  0.8226261E-002  0.2542822E+03  0.7818608E-02  0.1110887E+00
         21   -1    0    0  503  502  0.00000000000E+00  0.00000000000E+00  0.49082221158E+02  0.49082221158E+02  0.00000000000E+00 0. -1.
         21   -1    0    0  501  503 -0.00000000000E+00 -0.00000000000E+00 -0.15789279453E+04  0.15789279453E+04  0.00000000000E+00 0.  1.
          6    2    1    2  501    0  0.97556073220E+02  0.15841945641E+03 -0.11037430387E+04  0.11326553552E+04  0.17333651275E+03 0.  0.
         24    2    3    3    0    0  0.71941107193E+02  0.18523622837E+03 -0.91852043845E+03  0.94369830353E+03  0.86015748713E+02 0.  0.
         -6    2    1    2    0  502 -0.97556073220E+02 -0.15841945641E+03 -0.42610268548E+03  0.49535481127E+03  0.17087708707E+03 0.  0.
        -24    2    5    5    0    0 -0.13002282469E+03 -0.12587795467E+03 -0.38843524491E+03  0.43573966751E+03  0.78967866504E+02 0.  0.
          5    1    3    3  501    0  0.25614966028E+02 -0.26816771959E+02 -0.18522260026E+03  0.18895705170E+03  0.47000000000E+01 0. -1.
        -13    1    4    4    0    0  0.35192860858E+02  0.83049015253E+02 -0.60981694751E+03  0.61645144647E+03  0.00000000000E+00 0.  1.
         14    1    4    4    0    0  0.36748246335E+02  0.10218721311E+03 -0.30870349094E+03  0.32724685705E+03  0.00000000000E+00 0. -1.
         -5    1    5    5    0  502  0.32466751472E+02 -0.32541501735E+02 -0.37667440567E+02  0.59615143757E+02  0.47000000000E+01 0.  1.
         13    1    6    6    0    0 -0.68683971562E+02 -0.10017287757E+03 -0.18158895146E+03  0.21846427772E+03  0.00000000000E+00 0. -1.
        -14    1    6    6    0    0 -0.61338853130E+02 -0.25705077107E+02 -0.20684629345E+03  0.21727538979E+03  0.00000000000E+00 0.  1.
</event>
<event>
12    1  0.8226261E-002  0.3196066E+03  0.7818608E-02  0.1075895E+00
         21   -1    0    0  501  502  0.00000000000E+00  0.00000000000E+00  0.76436839226E+02  0.76436839226E+02  0.00000000000E+00 0. -1.
         21   -1    0    0  502  503 -0.00000000000E+00 -0.00000000000E+00 -0.15263454658E+04  0.15263454658E+04  0.00000000000E+00 0.  1.
         -6    2    1    2    0  503 -0.22376180775E+03 -0.14767338167E+03 -0.10088544177E+04  0.10581015022E+04  0.17295889300E+03 0.  0.
        -24    2    3    3    0    0 -0.31689951062E+02 -0.45330942793E+02 -0.38676890562E+03  0.39902787413E+03  0.81079655942E+02 0.  0.
          6    2    1    2  501    0  0.22376180775E+03  0.14767338167E+03 -0.44105420887E+03  0.54468080278E+03  0.17398731993E+03 0.  0.
         24    2    5    5    0    0  0.30711525694E+02  0.38293498227E+02 -0.17248645351E+03  0.19628002850E+03  0.79778964173E+02 0.  0.
          5    1    5    5  501    0  0.19305028206E+03  0.10937988344E+03 -0.26856775535E+03  0.34840077428E+03  0.47000000000E+01 0. -1.
        -11    1    6    6    0    0  0.48775222443E+02  0.36366852861E+02 -0.72449805462E+02  0.94607318020E+02  0.00000000000E+00 0.  1.
         12    1    6    6    0    0 -0.18063696749E+02  0.19266453658E+01 -0.10003664805E+03  0.10167271048E+03  0.00000000000E+00 0. -1.
         -5    1    3    3    0  503 -0.19207185669E+03 -0.10234243887E+03 -0.62208551205E+03  0.65907362808E+03  0.47000000000E+01 0.  1.
         11    1    4    4    0    0  0.12077316219E+02  0.17554316167E+02 -0.95777803249E+02  0.98119331319E+02  0.00000000000E+00 0. -1.
        -12    1    4    4    0    0 -0.43767267281E+02 -0.62885258960E+02 -0.29099110237E+03  0.30090854281E+03  0.00000000000E+00 0.  1.
</event>
<event>
12    1  0.8226261E-002  0.1975107E+03  0.7818608E-02  0.1152063E+00
         21   -1    0    0  503  502  0.00000000000E+00  0.00000000000E+00  0.35792650348E+03  0.35792650348E+03  0.00000000000E+00 0. -1.
         21   -1    0    0  501  503 -0.00000000000E+00 -0.00000000000E+00 -0.23214727175E+03  0.23214727175E+03  0.00000000000E+00 0. -1.
          6    2    1    2  501    0  0.86487038269E+02  0.41070031851E+02 -0.15239333603E+03  0.24946787029E+03  0.17275339109E+03 0.  0.
         24    2    3    3    0    0  0.21082168299E+02  0.81681409982E+02 -0.58885050653E+02  0.12825330646E+03  0.76584272993E+02 0.  0.
         -6    2    1    2    0  502 -0.86487038269E+02 -0.41070031851E+02  0.27817256776E+03  0.34060590494E+03  0.17165561373E+03 0.  0.
        -24    2    5    5    0    0 -0.97188229539E+02 -0.83892791414E+02  0.23149017173E+03  0.27618820295E+03  0.78795123124E+02 0.  0.
          5    1    3    3  501    0  0.65404869969E+02 -0.40611378132E+02 -0.93508285382E+02  0.12121456383E+03  0.47000000000E+01 0. -1.
        -13    1    4    4    0    0  0.41279634955E+02  0.84006970526E+02 -0.48794156151E+02  0.10555590478E+03  0.00000000000E+00 0.  1.
         14    1    4    4    0    0 -0.20197466656E+02 -0.23255605438E+01 -0.10090894502E+02  0.22697401680E+02  0.00000000000E+00 0. -1.
         -5    1    5    5    0  502  0.10701191271E+02  0.42822759563E+02  0.46682396028E+02  0.64417701994E+02  0.47000000000E+01 0.  1.
         13    1    6    6    0    0 -0.24143518454E+02  0.97709311243E+01  0.77187487172E+02  0.81463419731E+02  0.00000000000E+00 0. -1.
        -14    1    6    6    0    0 -0.73044711086E+02 -0.93663722538E+02  0.15430268456E+03  0.19472478322E+03  0.00000000000E+00 0.  1.
</event>
<event>
12    1  0.8226261E-002  0.2146749E+03  0.7818608E-02  0.1137972E+00
         21   -1    0    0  503  502  0.00000000000E+00  0.00000000000E+00  0.72080413630E+02  0.72080413630E+02  0.00000000000E+00 0.  1.
         21   -1    0    0  501  503 -0.00000000000E+00 -0.00000000000E+00 -0.17321470495E+04  0.17321470495E+04  0.00000000000E+00 0.  1.
          6    2    1    2  501    0  0.10937516343E+03  0.67220384867E+02 -0.15466425870E+04  0.15614306050E+04  0.17169955075E+03 0.  0.
         24    2    3    3    0    0  0.11130236524E+03  0.10463085740E+03 -0.11174075226E+04  0.11305384049E+04  0.78623664408E+02 0.  0.
         -6    2    1    2    0  502 -0.10937516343E+03 -0.67220384867E+02 -0.11342404884E+03  0.24279685812E+03  0.17205752800E+03 0.  0.
        -24    2    5    5    0    0 -0.42985833126E+01 -0.59818291252E+02 -0.90524980969E+02  0.13489720109E+03  0.80036097448E+02 0.  0.
          5    1    3    3  501    0 -0.19272018123E+01 -0.37410472535E+02 -0.42923506440E+03  0.43089220006E+03  0.47000000000E+01 0. -1.
        -13    1    4    4    0    0  0.92135157739E+02  0.34870332817E+02 -0.58472825938E+03  0.59296877213E+03  0.00000000000E+00 0.  1.
         14    1    4    4    0    0  0.19167207503E+02  0.69760524585E+02 -0.53267926321E+03  0.53756963278E+03  0.00000000000E+00 0. -1.
         -5    1    5    5    0  502 -0.10507658012E+03 -0.74020936152E+01 -0.22899067872E+02  0.10789965704E+03  0.47000000000E+01 0.  1.
         13    1    6    6    0    0 -0.20993494146E+02 -0.74232122580E+02 -0.77152170117E+02  0.10910358460E+03  0.00000000000E+00 0. -1.
        -14    1    6    6    0    0  0.16694910833E+02  0.14413831328E+02 -0.13372810852E+02  0.25793616485E+02  0.00000000000E+00 0.  1.
</event>
<event>
12    1  0.8226261E-002  0.2480563E+03  0.7818608E-02  0.1114762E+00
         21   -1    0    0  501  502  0.00000000000E+00  0.00000000000E+00  0.14350795742E+03  0.14350795742E+03  0.00000000000E+00 0. -1.
         21   -1    0    0  502  503 -0.00000000000E+00 -0.00000000000E+00 -0.43158877572E+03  0.43158877572E+03  0.00000000000E+00 0.  1.
         -6    2    1    2    0  503 -0.10001192327E+03  0.14702898766E+03 -0.17526409847E+03  0.30259073543E+03  0.17094952749E+03 0.  0.
        -24    2    3    3    0    0 -0.65743199902E+02  0.30218047367E+01 -0.66630675709E+02  0.11891786135E+03  0.73283771493E+02 0.  0.
          6    2    1    2  501    0  0.10001192327E+03 -0.14702898766E+03 -0.11281671983E+03  0.27250599770E+03  0.17295085574E+03 0.  0.
         24    2    5    5    0    0  0.49190729220E+02 -0.16850655320E+03 -0.84737934486E+02  0.21042067115E+03  0.79260046632E+02 0.  0.
          5    1    5    5  501    0  0.50821194053E+02  0.21477565546E+02 -0.28078785342E+02  0.62085326552E+02  0.47000000000E+01 0. -1.
        -13    1    6    6    0    0  0.59437331804E+02 -0.64755511113E+02 -0.31615442108E+02  0.93410967296E+02  0.00000000000E+00 0.  1.
         14    1    6    6    0    0 -0.10246602584E+02 -0.10375104209E+03 -0.53122492378E+02  0.11700970385E+03  0.00000000000E+00 0. -1.
         -5    1    3    3    0  503 -0.34268723372E+02  0.14400718292E+03 -0.10863342276E+03  0.18367287409E+03  0.47000000000E+01 0.  1.
         11    1    4    4    0    0 -0.68255646453E+02 -0.14978021398E+02 -0.26270825549E+02  0.74654743136E+02  0.00000000000E+00 0. -1.
        -12    1    4    4    0    0  0.25124465515E+01  0.17999826135E+02 -0.40359850161E+02  0.44263118209E+02  0.00000000000E+00 0.  1.
</event>
<event>
12    1  0.8226261E-002  0.1920739E+03  0.7818608E-02  0.1157458E+00
         21   -1    0    0  501  502  0.00000000000E+00  0.00000000000E+00  0.87950877120E+02  0.87950877120E+02  0.00000000000E+00 0.  1.
         21   -1    0    0  502  503 -0.00000000000E+00 -0.00000000000E+00 -0.75819796547E+03  0.75819796547E+03  0.00000000000E+00 0. -1.
         -6    2    1    2    0  503 -0.85944412542E+02  0.91033679754E+01 -0.61951030545E+03  0.64748676833E+03  0.16726261758E+03 0.  0.
        -24    2    3    3    0    0 -0.19548648660E+02 -0.31378136998E+02 -0.17216452425E+03  0.19340804424E+03  0.79995693767E+02 0.  0.
          6    2    1    2  501    0  0.85944412542E+02 -0.91033679754E+01 -0.50736782894E+02  0.19866207426E+03  0.17153158676E+03 0.  0.
         24    2    5    5    0    0  0.76004909117E+02 -0.93179817922E+01  0.31811315425E+02  0.11538471645E+03  0.80237784160E+02 0.  0.
          5    1    5    5  501    0  0.99395034251E+01  0.21461381682E+00 -0.82548098320E+02  0.83277357809E+02  0.47000000000E+01 0. -1.
        -13    1    6    6    0    0  0.70367856971E+02  0.22910137928E+02  0.70202919939E+01  0.74335686008E+02  0.00000000000E+00 0.  1.
         14    1    6    6    0    0  0.56370521461E+01 -0.32228119720E+02  0.24791023431E+02  0.41049030444E+02  0.00000000000E+00 0. -1.
         -5    1    3    3    0  503 -0.66395763883E+02  0.40481504974E+02 -0.44734578120E+03  0.45407872409E+03  0.47000000000E+01 0.  1.
         13    1    4    4    0    0 -0.24578795052E+02 -0.54191391418E+02 -0.14929295535E+03  0.16071468691E+03  0.00000000000E+00 0. -1.
        -14    1    4    4    0    0  0.50301463929E+01  0.22813254420E+02 -0.22871568900E+02  0.32693357336E+02  0.00000000000E+00 0.  1.
</event>
<event>
12    1  0.8226261E-002  0.2709073E+03  0.7818608E-02  0.1100814E+00
         21   -1    0    0  501  502  0.00000000000E+00  0.00000000000E+00  0.84827989737E+02  0.84827989737E+02  0.00000000000E+00 0.  1.
         21   -1    0    0  502  503 -0.00000000000E+00 -0.00000000000E+00 -0.89672921333E+03  0.89672921333E+03  0.00000000000E+00 0. -1.
         -6    2    1    2    0  503 -0.12199837027E+03  0.16981384845E+03 -0.31190540335E+03  0.41288632299E+03  0.17166767197E+03 0.  0.
        -24    2    3    3    0    0 -0.52566321796E+02  0.55391235472E+02 -0.23358060778E+03  0.25774056147E+03  0.77710292378E+02 0.  0.
          6    2    1    2  501    0  0.12199837027E+03 -0.16981384845E+03 -0.49999582024E+03  0.56867088008E+03  0.17225099161E+03 0.  0.
         24    2    5    5    0    0  0.77125950701E+02 -0.16529733680E+03 -0.28366937410E+03  0.34764338356E+03  0.84356306852E+02 0.  0.
          5    1    5    5  501    0  0.44872419566E+02 -0.45165116525E+01 -0.21632644614E+03  0.22102749652E+03  0.47000000000E+01 0. -1.
        -13    1    6    6    0    0  0.44756463600E+02 -0.67100695071E+02 -0.57786804001E+02  0.99221766914E+02  0.00000000000E+00 0.  1.
         14    1    6    6    0    0  0.32369487101E+02 -0.98196641730E+02 -0.22588257010E+03  0.24842161665E+03  0.00000000000E+00 0. -1.
         -5    1    3    3    0  503 -0.69432048471E+02  0.11442261298E+03 -0.78324795567E+02  0.15514576152E+03  0.47000000000E+01 0.  1.
         13    1    4    4    0    0 -0.68817241429E+02  0.24247485273E+02 -0.14189062386E+03  0.15955156658E+03  0.00000000000E+00 0. -1.
        -14    1    4    4    0    0  0.16250919633E+02  0.31143750199E+02 -0.91689983926E+02  0.98188994891E+02  0.00000000000E+00 0.  1.
</event>
<event>
12    1  0.8226261E-002  0.2409195E+03  0.7818608E-02  0.1119792E+00
         21   -1    0    0  503  502  0.00000000000E+00  0.00000000000E+00  0.21067861824E+03  0.21067861824E+03  0.00000000000E+00 0.  1.
         21   -1    0    0  501  503 -0.00000000000E+00 -0.00000000000E+00 -0.36212560704E+03  0.36212560704E+03  0.00000000000E+00 0. -1.
          6    2    1    2  501    0 -0.13557475358E+03 -0.99408913531E+02 -0.21868919485E+03  0.32267686163E+03  0.16742982766E+03 0.  0.
         24    2    3    3    0    0 -0.73811031600E+02  0.88936343030E+01 -0.76809332556E+02  0.13374252239E+03  0.80375516237E+02 0.  0.
         -6    2    1    2    0  502  0.13557475358E+03  0.99408913531E+02  0.67242206049E+02  0.25012736365E+03  0.17256748788E+03 0.  0.
        -24    2    5    5    0    0  0.88203945707E+02  0.30156281701E+02 -0.22014816428E+02  0.12753524924E+03  0.84209561755E+02 0.  0.
          5    1    3    3  501    0 -0.61763721982E+02 -0.10830254783E+03 -0.14187986229E+03  0.18893433924E+03  0.47000000000E+01 0. -1.
        -11    1    4    4    0    0 -0.85953585234E+02  0.17341688589E+02 -0.79902444078E+02  0.11863032305E+03  0.00000000000E+00 0.  1.
         12    1    4    4    0    0  0.12142553633E+02 -0.84480542857E+01  0.30931115216E+01  0.15112199338E+02  0.00000000000E+00 0. -1.
         -5    1    5    5    0  502  0.47370807875E+02  0.69252631830E+02  0.89257022477E+02  0.12259211441E+03  0.47000000000E+01 0.  1.
         13    1    6    6    0    0  0.81400186903E+02  0.33290067569E+02  0.15482669289E+02  0.89296876064E+02  0.00000000000E+00 0. -1.
        -14    1    6    6    0    0  0.68037588049E+01 -0.31337858686E+01 -0.37497485717E+02  0.38238373172E+02  0.00000000000E+00 0.  1.
</event>
<event>
12    1  0.8226261E-002  0.2587309E+03  0.7818608E-02  0.1109228E+00
         21   -1    0    0  503  502  0.00000000000E+00  0.00000000000E+00  0.10461774261E+04  0.10461774261E+04  0.00000000000E+00 0. -1.
         21   -1    0    0  501  503 -0.00000000000E+00 -0.00000000000E+00 -0.98109169451E+02  0.98109169451E+02  0.00000000000E+00 0.  1.
          6    2    1    2  501    0  0.17132288101E+03  0.85053398599E+02  0.13144307065E+03  0.29020501194E+03  0.17422989974E+03 0.  0.
         24    2    3    3    0    0  0.14992811757E+03  0.10770578613E+03  0.15255627562E+03  0.25227449668E+03  0.79309694495E+02 0.  0.
         -6    2    1    2    0  502 -0.17132288101E+03 -0.85053398599E+02  0.81662518598E+03  0.85408158359E+03  0.16122359282E+03 0.  0.
        -24    2    5    5    0    0 -0.18782022340E+03 -0.53797346575E+02  0.63947395598E+03  0.67337809335E+03  0.79627416209E+02 0.  0.
          5    1    3    3  501    0  0.21394763441E+02 -0.22652387535E+02 -0.21113204970E+02  0.37930515259E+02  0.47000000000E+01 0. -1.
        -11    1    4    4    0    0  0.16644962032E+02  0.55177871385E+02  0.41936225707E+02  0.71276218181E+02  0.00000000000E+00 0.  1.
         12    1    4    4    0    0  0.13328315554E+03  0.52527914748E+02  0.11062004991E+03  0.18099827850E+03  0.00000000000E+00 0. -1.
         -5    1    5    5    0  502  0.16497342392E+02 -0.31256052024E+02  0.17715123000E+03  0.18070349024E+03  0.47000000000E+01 0.  1.
         11    1    6    6    0    0 -0.59736638518E+02  0.18473321399E+02  0.22771579903E+03  0.23614447847E+03  0.00000000000E+00 0. -1.
        -12    1    6    6    0    0 -0.12808358488E+03 -0.72270667974E+02  0.41175815695E+03  0.43723361488E+03  0.00000000000E+00 0.  1.
</event>
<event>
12    1  0.8226261E-002  0.3299321E+03  0.7818608E-02  0.1071247E+00
         21   -1    0    0  501  502  0.00000000000E+00  0.00000000000E+00  0.66417346813E+03  0.66417346813E+03  0.00000000000E+00 0.  1.
         21   -1    0    0  502  503 -0.00000000000E+00 -0.00000000000E+00 -0.19080368314E+03  0.19080368314E+03  0.00000000000E+00 0. -1.
         -6    2    1    2    0  503  0.10655707614E+03 -0.26010864839E+03  0.74864339486E+02  0.33761672866E+03  0.17137522195E+03 0.  0.
        -24    2    3    3    0    0 -0.13502122581E+02 -0.10062760982E+03  0.36260156320E+02  0.13424321558E+03  0.79988866861E+02 0.  0.
          6    2    1    2  501    0 -0.10655707614E+03  0.26010864839E+03  0.39850544551E+03  0.51736042262E+03  0.17275502120E+03 0.  0.
         24    2    5    5    0    0 -0.74259014549E+02  0.14517099977E+03  0.33716331421E+03  0.38305191609E+03  0.80378165904E+02 0.  0.
          5    1    5    5  501    0 -0.32298061592E+02  0.11493764863E+03  0.61342131295E+02  0.13430850653E+03  0.47000000000E+01 0. -1.
        -11    1    6    6    0    0 -0.22830775146E+01  0.67107433861E+02  0.77644108153E+02  0.10265099928E+03  0.00000000000E+00 0.  1.
         12    1    6    6    0    0 -0.71975937035E+02  0.78063565907E+02  0.25951920606E+03  0.28040091681E+03  0.00000000000E+00 0. -1.
         -5    1    3    3    0  503  0.12005919872E+03 -0.15948103858E+03  0.38604183166E+02  0.20337351308E+03  0.47000000000E+01 0.  1.
         11    1    4    4    0    0  0.94721571064E+01 -0.58678858650E+02 -0.17815695121E+02  0.62051020986E+02  0.00000000000E+00 0. -1.
        -12    1    4    4    0    0 -0.22974279687E+02 -0.41948751169E+02  0.54075851441E+02  0.72192194598E+02  0.00000000000E+00 0.  1.
</event>
<event>
12    1  0.8226261E-002  0.3671958E+03  0.7818608E-02  0.1055803E+00
         21   -1    0    0  501  502  0.00000000000E+00  0.00000000000E+00  0.14487149866E+03  0.14487149866E+03  0.00000000000E+00 0. -1.
         21   -1    0    0  502  503 -0.00000000000E+00 -0.00000000000E+00 -0.93845321842E+03  0.93845321842E+03  0.00000000000E+00 0.  1.
         -6    2    1    2    0  503 -0.16823582416E+03 -0.27766523083E+03 -0.44884198845E+03  0.57990682094E+03  0.17155616409E+03 0.  0.
        -24    2    3    3    0    0 -0.40002387132E+02 -0.18326390156E+03 -0.29122741215E+03  0.35580891822E+03  0.81244889751E+02 0.  0.
          6    2    1    2  501    0  0.16823582416E+03  0.27766523083E+03 -0.34473973131E+03  0.50341789614E+03  0.17082980671E+03 0.  0.
         24    2    5    5    0    0  0.10897424049E+03  0.26434421081E+03 -0.23872015508E+03  0.38114105688E+03  0.80795704831E+02 0.  0.
          5    1    5    5  501    0  0.59261583673E+02  0.13321020020E+02 -0.10601957623E+03  0.12227683926E+03  0.47000000000E+01 0. -1.
        -13    1    6    6    0    0  0.12315270538E+02  0.68823075577E+02 -0.10220862995E+03  0.12383410538E+03  0.00000000000E+00 0.  1.
         14    1    6    6    0    0  0.96658969954E+02  0.19552113523E+03 -0.13651152513E+03  0.25730695150E+03  0.00000000000E+00 0. -1.
         -5    1    3    3    0  503 -0.12823343703E+03 -0.94401329274E+02 -0.15761457630E+03  0.22409790272E+03  0.47000000000E+01 0.  1.
         13    1    4    4    0    0 -0.63858842193E+02 -0.10929730586E+03 -0.17464397526E+03  0.21569508777E+03  0.00000000000E+00 0. -1.
        -14    1    4    4    0    0  0.23856455061E+02 -0.73966595698E+02 -0.11658343688E+03  0.14011383045E+03  0.00000000000E+00 0.  1.
</event>
<event>
12    1  0.8226261E-002  0.1756916E+03  0.7818608E-02  0.1172091E+00
         21   -1    0    0  503  502  0.00000000000E+00  0.00000000000E+00  0.21864573924E+03  0.21864573924E+03  0.00000000000E+00 0. -1.
         21   -1    0    0  501  503 -0.00000000000E+00 -0.00000000000E+00 -0.19949605196E+03  0.19949605196E+03  0.00000000000E+00 0. -1.
          6    2    1    2  501    0  0.20765349925E+02 -0.27211916087E+02 -0.10363027720E+03  0.20379983244E+03  0.17211463975E+03 0.  0.
         24    2    3    3    0    0 -0.39639424787E+02 -0.17402423342E+01 -0.76873567417E+01  0.87504187820E+02  0.77611693652E+02 0.  0.
         -6    2    1    2    0  502 -0.20765349925E+02  0.27211916087E+02  0.12277996448E+03  0.21434195876E+03  0.17232488931E+03 0.  0.
        -24    2    5    5    0    0  0.27396917847E+02 -0.31781232457E+02  0.10213649427E+03  0.13529742401E+03  0.78184983457E+02 0.  0.
          5    1    3    3  501    0  0.60404774711E+02 -0.25471673753E+02 -0.95942920460E+02  0.11629564462E+03  0.47000000000E+01 0. -1.
        -11    1    4    4    0    0 -0.30606955653E+02 -0.33197451794E+02  0.15114268443E+02  0.47616149052E+02  0.00000000000E+00 0.  1.
         12    1    4    4    0    0 -0.90324691339E+01  0.31457209460E+02 -0.22801625185E+02  0.39888038768E+02  0.00000000000E+00 0. -1.
         -5    1    5    5    0  502 -0.48162267771E+02  0.58993148544E+02  0.20643470205E+02  0.79044534751E+02  0.47000000000E+01 0.  1.
         11    1    6    6    0    0 -0.22159490824E+01  0.11570042155E+02  0.75524667482E+02  0.76437894425E+02  0.00000000000E+00 0. -1.
        -12    1    6    6    0    0  0.29612866929E+02 -0.43351274611E+02  0.26611826791E+02  0.58859529588E+02  0.00000000000E+00 0.  1.
</event>
<event>
12    1  0.8226261E-002  0.1919725E+03  0.7818608E-02  0.1156870E+00
         21   -1    0    0  503  502  0.00000000000E+00  0.00000000000E+00  0.23623692184E+04  0.23623692184E+04  0.00000000000E+00 0. -1.
         21   -1    0    0  501  503 -0.00000000000E+00 -0.00000000000E+00 -0.16714489922E+02  0.16714489922E+02  0.00000000000E+00 0. -1.
          6    2    1    2  501    0  0.29110079641E+02  0.78205977269E+02  0.85922999524E+03  0.88041445518E+03  0.17288683163E+03 0.  0.
         24    2    3    3    0    0  0.60990277329E+02  0.59048592676E+02  0.81055681655E+03  0.81897732705E+03  0.80715296815E+02 0.  0.
         -6    2    1    2    0  502 -0.29110079641E+02 -0.78205977269E+02  0.14864247332E+04  0.14986692531E+04  0.17201009016E+03 0.  0.
        -24    2    5    5    0    0 -0.46998469902E+02 -0.81235682371E+02  0.63364256309E+03  0.64568115631E+03  0.81198310257E+02 0.  0.
          5    1    3    3  501    0 -0.31880197688E+02  0.19157384593E+02  0.48673178689E+02  0.61437128129E+02  0.47000000000E+01 0. -1.
        -13    1    4    4    0    0  0.30999189369E+02 -0.67720523596E+01  0.10412865841E+03  0.10885581260E+03  0.00000000000E+00 0.  1.
         14    1    4    4    0    0  0.29991087959E+02  0.65820645036E+02  0.70642815814E+03  0.71012151445E+03  0.00000000000E+00 0. -1.
         -5    1    5    5    0  502  0.17888390261E+02  0.30297051019E+01  0.85278217015E+03  0.85298809684E+03  0.47000000000E+01 0.  1.
         11    1    6    6    0    0 -0.38567871254E+02 -0.52712943274E+02  0.58522017692E+03  0.58885379387E+03  0.00000000000E+00 0. -1.
        -12    1    6    6    0    0 -0.84305986479E+01 -0.28522739097E+02  0.48422386168E+02  0.56827362435E+02  0.00000000000E+00 0.  1.
</event>
<event>
12    1  0.8226261E-002  0.3526985E+03  0.7818608E-02  0.1061541E+00
         21   -1    0    0  501  502  0.00000000000E+00  0.00000000000E+00  0.10468792930E+04  0.10468792930E+04  0.00000000000E+00 0.  1.
         21   -1    0    0  502  503 -0.00000000000E+00 -0.00000000000E+00 -0.28973813539E+03  0.28973813539E+03  0.00000000000E+00 0. -1.
         -6    2    1    2    0  503 -0.62156381263E+02 -0.30143349045E+03 -0.13479723137E+03  0.37757984521E+03  0.17225179542E+03 0.  0.
        -24    2    3    3    0    0 -0.27716802913E+02 -0.29300690056E+03 -0.14818605211E+03  0.33939028518E+03  0.81273579308E+02 0.  0.
          6    2    1    2  501    0  0.62156381263E+02  0.30143349045E+03  0.89193838897E+03  0.95903758318E+03  0.17167827856E+03 0.  0.
         24    2    5    5    0    0  0.13821304395E+02  0.72867214128E+02  0.18765952299E+03  0.21700683355E+03  0.79844911474E+02 0.  0.
          5    1    5    5  501    0  0.48335076868E+02  0.22856627632E+03  0.70427886597E+03  0.74203074962E+03  0.47000000000E+01 0. -1.
        -11    1    6    6    0    0  0.40614112613E+02  0.24159120722E+02  0.51286606270E+02  0.69738692561E+02  0.00000000000E+00 0.  1.
         12    1    6    6    0    0 -0.26792808218E+02  0.48708093406E+02  0.13637291672E+03  0.14726814099E+03  0.00000000000E+00 0. -1.
         -5    1    3    3    0  503 -0.34439578350E+02 -0.84265898902E+01  0.13388820743E+02  0.38189560026E+02  0.47000000000E+01 0.  1.
         13    1    4    4    0    0 -0.12285000827E+02 -0.13797691375E+03 -0.11514207647E+03  0.18012842015E+03  0.00000000000E+00 0. -1.
        -14    1    4    4    0    0 -0.15431802086E+02 -0.15502998681E+03 -0.33043975648E+02  0.15926186503E+03  0.00000000000E+00 0.  1.
</event>
<event>
12    1  0.8226261E-002  0.1911163E+03  0.7818608E-02  0.1157678E+00
         21   -1    0    0  501  502  0.00000000000E+00  0.00000000000E+00  0.78160674347E+02  0.78160674347E+02  0.00000000000E+00 0.  1.
         21   -1    0    0  502  503 -0.00000000000E+00 -0.00000000000E+00 -0.87643757224E+03  0.87643757224E+03  0.00000000000E+00 0.  1.
         -6    2    1    2    0  503 -0.75754168999E+02 -0.31058027522E+02 -0.72673919563E+03  0.75144879312E+03  0.17269086550E+03 0.  0.
        -24    2    3    3    0    0 -0.67854254594E+02 -0.84215587036E+02 -0.57077553320E+03  0.58641882985E+03  0.80036677414E+02 0.  0.
          6    2    1    2  501    0  0.75754168999E+02  0.31058027522E+02 -0.71537702263E+02  0.20314945346E+03  0.17160641714E+03 0.  0.
         24    2    5    5    0    0  0.30623501474E+02 -0.44692351604E+02 -0.15510366069E+02  0.98573885140E+02  0.80876660673E+02 0.  0.
          5    1    5    5  501    0  0.45130667525E+02  0.75750379127E+02 -0.56027336193E+02  0.10457556832E+03  0.47000000000E+01 0. -1.
        -13    1    6    6    0    0  0.53237577116E+02 -0.34619929591E+02  0.85198531648E+01  0.64073138209E+02  0.00000000000E+00 0.  1.
         14    1    6    6    0    0 -0.22614075642E+02 -0.10072422013E+02 -0.24030219234E+02  0.34500746931E+02  0.00000000000E+00 0. -1.
         -5    1    3    3    0  503 -0.78999144044E+01  0.53157559514E+02 -0.15596366243E+03  0.16502996328E+03  0.47000000000E+01 0.  1.
         13    1    4    4    0    0 -0.15916599948E+01 -0.55514712460E+02 -0.16050636552E+03  0.16984319254E+03  0.00000000000E+00 0. -1.
        -14    1    4    4    0    0 -0.66262594600E+02 -0.28700874576E+02 -0.41026916768E+03  0.41657563730E+03  0.00000000000E+00 0.  1.
</event>
<event>
12    1  0.8226261E-002  0.1876586E+03  0.7818608E-02  0.1163265E+00
         21   -1    0    0  503  502  0.00000000000E+00  0.00000000000E+00  0.34135605075E+02  0.34135605075E+02  0.00000000000E+00 0. -1.
         21   -1    0    0  501  503 -0.00000000000E+00 -0.00000000000E+00 -0.11068684811E+04  0.11068684811E+04  0.00000000000E+00 0.  1.
          6    2    1    2  501    0  0.70855102439E+02  0.12198874901E+02 -0.75111396624E+03  0.77420147878E+03  0.17333920898E+03 0.  0.
         24    2    3    3    0    0  0.81147789368E+02 -0.48560328602E+02 -0.44236169019E+03  0.45932423574E+03  0.79698302118E+02 0.  0.
         -6    2    1    2    0  502 -0.70855102439E+02 -0.12198874901E+02 -0.32161890980E+03  0.36680260742E+03  0.16104710980E+03 0.  0.
        -24    2    5    5    0    0 -0.24099391866E+02 -0.20117778737E+01 -0.30290755449E+03  0.31520727590E+03  0.83772383715E+02 0.  0.
          5    1    3    3  501    0 -0.10292686929E+02  0.60759203502E+02 -0.30875227605E+03  0.31487724304E+03  0.47000000000E+01 0. -1.
        -13    1    4    4    0    0  0.23551842401E+02 -0.58449217466E+02 -0.27249002682E+03  0.27968163154E+03  0.00000000000E+00 0.  1.
         14    1    4    4    0    0  0.57595946967E+02  0.98888888647E+01 -0.16987166337E+03  0.17964260421E+03  0.00000000000E+00 0. -1.
         -5    1    5    5    0  502 -0.46755710573E+02 -0.10187097027E+02 -0.18711355316E+02  0.51595331521E+02  0.47000000000E+01 0.  1.
         11    1    6    6    0    0 -0.23528132724E+02  0.36603094645E+02 -0.21229165328E+03  0.21670511212E+03  0.00000000000E+00 0. -1.
        -12    1    6    6    0    0 -0.57125914252E+00 -0.38614872519E+02 -0.90615901211E+02  0.98502163778E+02  0.00000000000E+00 0.  1.
</event>
<event>
12    1  0.8226261E-002  0.1759095E+03  0.7818608E-02  0.1172181E+00
         21   -1    0    0  503  502  0.00000000000E+00  0.00000000000E+00  0.91281552780E+03  0.91281552780E+03  0.00000000000E+00 0. -1.
         21   -1    0    0  501  503 -0.00000000000E+00 -0.00000000000E+00 -0.34608849360E+02  0.34608849360E+02  0.00000000000E+00 0. -1.
          6    2    1    2  501    0 -0.35387015410E+02  0.13372955069E+02  0.36092830964E+03  0.40151388528E+03  0.17179370939E+03 0.  0.
         24    2    3    3    0    0  0.32350892082E+02  0.29440279691E+02  0.28162789107E+03  0.29588609813E+03  0.79504740452E+02 0.  0.
         -6    2    1    2    0  502  0.35387015410E+02 -0.13372955069E+02  0.51727836881E+03  0.54591049188E+03  0.17032403685E+03 0.  0.
        -24    2    5    5    0    0  0.87542726176E+02 -0.20595282507E+02  0.36530295311E+03  0.38500369540E+03  0.81815055779E+02 0.  0.
          5    1    3    3  501    0 -0.67737907492E+02 -0.16067324622E+02  0.79300418568E+02  0.10562778714E+03  0.47000000000E+01 0. -1.
        -11    1    4    4    0    0  0.10064452968E+02  0.16025774364E+02  0.26350394003E+03  0.26418259797E+03  0.00000000000E+00 0.  1.
         12    1    4    4    0    0  0.22286439114E+02  0.13414505328E+02  0.18123951039E+02  0.31703500166E+02  0.00000000000E+00 0. -1.
         -5    1    5    5    0  502 -0.52155710766E+02  0.72223274378E+01  0.15197541569E+03  0.16090679648E+03  0.47000000000E+01 0.  1.
         13    1    6    6    0    0  0.48108277122E+02  0.22441266534E+02  0.98540373423E+02  0.11192954018E+03  0.00000000000E+00 0. -1.
        -14    1    6    6    0    0  0.39434449054E+02 -0.43036549041E+02  0.26676257969E+03  0.27307415522E+03  0.00000000000E+00 0.  1.
</event>
<event>
12    1  0.8226261E-002  0.1750593E+03  0.7818608E-02  0.1172689E+00
         21   -1    0    0  501  502  0.00000000000E+00  0.00000000000E+00  0.64491054062E+03  0.64491054062E+03  0.00000000000E+00 0. -1.
         21   -1    0    0  502  503 -0.00000000000E+00 -0.00000000000E+00 -0.47502567731E+02  0.47502567731E+02  0.00000000000E+00 0. -1.
         -6    2    1    2    0  503  0.28425588488E+02 -0.23868497328E+02  0.29665196374E+03  0.34445337786E+03  0.17107899544E+03 0.  0.
        -24    2    3    3    0    0 -0.74131060476E+01  0.41644828918E+02  0.10191534630E+03  0.13583686817E+03  0.79219132954E+02 0.  0.
          6    2    1    2  501    0 -0.28425588488E+02  0.23868497328E+02  0.30075600914E+03  0.34795973049E+03  0.17100899906E+03 0.  0.
         24    2    5    5    0    0 -0.49005325183E+02  0.36714629389E+02  0.30672063820E+03  0.32253896199E+03  0.78767672284E+02 0.  0.
          5    1    5    5  501    0  0.20579736695E+02 -0.12846132061E+02 -0.59646290536E+01  0.25420768500E+02  0.47000000000E+01 0. -1.
        -13    1    6    6    0    0  0.20071340929E+00  0.19745077917E+02  0.11679223619E+02  0.22941505011E+02  0.00000000000E+00 0.  1.
         14    1    6    6    0    0 -0.49206038592E+02  0.16969551472E+02  0.29504141458E+03  0.29959745698E+03  0.00000000000E+00 0. -1.
         -5    1    3    3    0  503  0.35838694536E+02 -0.65513326247E+02  0.19473661745E+03  0.20861650969E+03  0.47000000000E+01 0.  1.
         13    1    4    4    0    0  0.23315736744E+02 -0.61489364480E+01  0.61645705143E+02  0.66193851390E+02  0.00000000000E+00 0. -1.
        -14    1    4    4    0    0 -0.30728842792E+02  0.47793765366E+02  0.40269641153E+02  0.69643016777E+02  0.00000000000E+00 0.  1.
</event>
<event>
12    1  0.8226261E-002  0.1792928E+03  0.7818608E-02  0.1169439E+00
         21   -1    0    0  503  502  0.00000000000E+00  0.00000000000E+00  0.73639643664E+03  0.73639643664E+03  0.00000000000E+00 0. -1.
         21   -1    0    0  501  503 -0.00000000000E+00 -0.00000000000E+00 -0.42812780768E+02  0.42812780768E+02  0.00000000000E+00 0. -1.
          6    2    1    2  501    0 -0.57091011564E+02 -0.23451938469E+02  0.32472951865E+03  0.36908817087E+03  0.16421766219E+03 0.  0.
         24    2    3    3    0    0 -0.77637427336E+02 -0.38368426556E+02  0.14106135303E+03  0.18361380099E+03  0.79473368606E+02 0.  0.
         -6    2    1    2    0  502  0.57091011564E+02  0.23451938469E+02  0.36885413723E+03  0.41012104654E+03  0.16833455156E+03 0.  0.
        -24    2    5    5    0    0  0.61996928459E+02  0.23364965710E+01  0.10961917505E+03  0.14993883055E+03  0.81340094738E+02 0.  0.
          5    1    3    3  501    0  0.20546415771E+02  0.14916488087E+02  0.18366816562E+03  0.18547436987E+03  0.47000000000E+01 0. -1.
        -11    1    4    4    0    0 -0.93216010540E+01 -0.39948901590E+02  0.22546205236E+02  0.46809596826E+02  0.00000000000E+00 0.  1.
         12    1    4    4    0    0 -0.68315826281E+02  0.15804750340E+01  0.11851514779E+03  0.13680420417E+03  0.00000000000E+00 0. -1.
         -5    1    5    5    0  502 -0.49059168947E+01  0.21115441898E+02  0.25923496217E+03  0.26018221600E+03  0.47000000000E+01 0.  1.
         11    1    6    6    0    0  0.51600560560E+02  0.22586943189E+02  0.11363000576E+03  0.12682494259E+03  0.00000000000E+00 0. -1.
        -12    1    6    6    0    0  0.10396367899E+02 -0.20250446618E+02 -0.40108307081E+01  0.23113887961E+02  0.00000000000E+00 0.  1.
</event>
<event>
12    1  0.8226261E-002  0.1751178E+03  0.7818608E-02  0.1175939E+00
         21   -1    0    0  501  502  0.00000000000E+00  0.00000000000E+00  0.30566878130E+03  0.30566878130E+03  0.00000000000E+00 0. -1.
         21   -1    0    0  502  503 -0.00000000000E+00 -0.00000000000E+00 -0.21291956379E+03  0.21291956379E+03  0.00000000000E+00 0. -1.
         -6    2    1    2    0  503  0.16883124354E+02  0.32674392520E+02 -0.14879314248E+03  0.22024467366E+03  0.15816340035E+03 0.  0.
        -24    2    3    3    0    0  0.48939678805E+02  0.18923500284E+02 -0.15969920286E+03  0.18339712457E+03  0.73331295386E+02 0.  0.
          6    2    1    2  501    0 -0.16883124354E+02 -0.32674392520E+02  0.24154235998E+03  0.29834367143E+03  0.17121208720E+03 0.  0.
         24    2    5    5    0    0 -0.63121684093E+02  0.19556477469E+01  0.81612165459E+02  0.12823487914E+03  0.76127965395E+02 0.  0.
          5    1    5    5  501    0  0.46238559739E+02 -0.34630040267E+02  0.15993019453E+03  0.17010879230E+03  0.47000000000E+01 0. -1.
        -13    1    6    6    0    0  0.89591118756E+01 -0.10340292251E+02 -0.52839539450E+01  0.14666543516E+02  0.00000000000E+00 0.  1.
         14    1    6    6    0    0 -0.72080795968E+02  0.12295939998E+02  0.86896119404E+02  0.11356833562E+03  0.00000000000E+00 0. -1.
         -5    1    3    3    0  503 -0.32056554451E+02  0.13750892237E+02  0.10906060381E+02  0.36847549086E+02  0.47000000000E+01 0.  1.
         13    1    4    4    0    0 -0.16779726523E+02  0.17019776745E+02 -0.51741555642E+02  0.56994917342E+02  0.00000000000E+00 0. -1.
        -14    1    4    4    0    0  0.65719405327E+02  0.19037235388E+01 -0.10795764721E+03  0.12640220723E+03  0.00000000000E+00 0.  1.
</event>
<event>
12    1  0.8226261E-002  0.2183519E+03  0.7818608E-02  0.1138528E+00
         21   -1    0    0  501  502  0.00000000000E+00  0.00000000000E+00  0.72413246642E+02  0.72413246642E+02  0.00000000000E+00 0.  1.
         21   -1    0    0  502  503 -0.00000000000E+00 -0.00000000000E+00 -0.63029142330E+03  0.63029142330E+03  0.00000000000E+00 0.  1.
         -6    2    1    2    0  503 -0.82664141270E+02  0.72014241977E+02 -0.35728358698E+03  0.41872318152E+03  0.18883360378E+03 0.  0.
        -24    2    3    3    0    0 -0.22336819211E+02  0.70294082183E+02 -0.33836036490E+03  0.35529981776E+03  0.79435712924E+02 0.  0.
          6    2    1    2  501    0  0.82664141270E+02 -0.72014241977E+02 -0.20059458968E+03  0.28398148842E+03  0.16848704715E+03 0.  0.
         24    2    5    5    0    0  0.84453116151E+02 -0.65980319665E+02 -0.65742802465E+02  0.14890113025E+03  0.79772796757E+02 0.  0.
          5    1    5    5  501    0 -0.17889748805E+01 -0.60339223120E+01 -0.13485178722E+03  0.13508035818E+03  0.47000000000E+01 0. -1.
        -13    1    6    6    0    0  0.49396351336E+02 -0.35598114962E+02 -0.79848102855E+02  0.10041386779E+03  0.00000000000E+00 0.  1.
         14    1    6    6    0    0  0.35056764815E+02 -0.30382204703E+02  0.14105300391E+02  0.48487262462E+02  0.00000000000E+00 0. -1.
         -5    1    3    3    0  503 -0.60327322059E+02  0.17201597944E+01 -0.18923222087E+02  0.63423363760E+02  0.47000000000E+01 0.  1.
         11    1    4    4    0    0  0.20571736674E+02  0.56469822570E+02 -0.23447444507E+03  0.24205433812E+03  0.00000000000E+00 0. -1.
        -12    1    4    4    0    0 -0.42908555885E+02  0.13824259612E+02 -0.10388591982E+03  0.11324547964E+03  0.00000000000E+00 0.  1.
</event>
<event>
12    1  0.8226261E-002  0.1859282E+03  0.7818608E-02  0.1162691E+00
         21   -1    0    0  503  502  0.00000000000E+00  0.00000000000E+00  0.27525236263E+03  0.27525236263E+03  0.00000000000E+00 0.  1.
         21   -1    0    0  501  503 -0.00000000000E+00 -0.00000000000E+00 -0.14241172370E+03  0.14241172370E+03  0.00000000000E+00 0.  1.
          6    2    1    2  501    0 -0.30672169543E+02  0.57477028340E+02 -0.87327852338E+01  0.18397125239E+03  0.17182773174E+03 0.  0.
         24    2    3    3    0    0  0.78471677323E+01  0.85724685174E+02  0.31125263934E+02  0.12158196209E+03  0.80019321168E+02 0.  0.
         -6    2    1    2    0  502  0.30672169543E+02 -0.57477028340E+02  0.14157342416E+03  0.23369283394E+03  0.17414050486E+03 0.  0.
        -24    2    5    5    0    0  0.72137403698E+01 -0.90758447859E+02  0.45768801241E+02  0.12948838798E+03  0.79895716698E+02 0.  0.
          5    1    3    3  501    0 -0.38519337276E+02 -0.28247656834E+02 -0.39858049168E+02  0.62389290301E+02  0.47000000000E+01 0. -1.
        -11    1    4    4    0    0  0.23920702671E+02  0.93107402339E+02  0.14335191641E+02  0.97194064150E+02  0.00000000000E+00 0.  1.
         12    1    4    4    0    0 -0.16073534938E+02 -0.73827171654E+01  0.16790072293E+02  0.24387897936E+02  0.00000000000E+00 0. -1.
         -5    1    5    5    0  502  0.23458429174E+02  0.33281419519E+02  0.95804622923E+02  0.10420444596E+03  0.47000000000E+01 0.  1.
         13    1    6    6    0    0 -0.26043254987E+02 -0.12248707163E+02 -0.64655597827E+01  0.29497210390E+02  0.00000000000E+00 0. -1.
        -14    1    6    6    0    0  0.33256995357E+02 -0.78509740696E+02  0.52234361024E+02  0.99991177590E+02  0.00000000000E+00 0.  1.
</event>
<event>
12    1  0.8226261E-002  0.3468725E+03  0.7818608E-02  0.1064103E+00
         21   -1    0    0  501  502  0.00000000000E+00  0.00000000000E+00  0.41150051162E+03  0.41150051162E+03  0.00000000000E+00 0. -1.
         21   -1    0    0  502  503 -0.00000000000E+00 -0.00000000000E+00 -0.31392218033E+03  0.31392218033E+03  0.00000000000E+00 0.  1.
         -6    2    1    2    0  503  0.18913603967E+03 -0.23259561175E+03 -0.49761979011E+02  0.34855437282E+03  0.17070657911E+03 0.  0.
        -24    2    3    3    0    0  0.81556037884E+02 -0.12351878155E+03  0.33564366904E+02  0.17409354170E+03  0.85286093981E+02 0.  0.
          6    2    1    2  501    0 -0.18913603967E+03  0.23259561175E+03  0.14734031030E+03  0.37686831913E+03  0.17449184170E+03 0.  0.
         24    2    5    5    0    0 -0.19303830214E+03  0.18775459083E+03  0.75610789870E+02  0.29205582648E+03  0.84047854015E+02 0.  0.
          5    1    5    5  501    0  0.39022624694E+01  0.44841020922E+02  0.71729520427E+02  0.84812492655E+02  0.47000000000E+01 0. -1.
        -11    1    6    6    0    0 -0.83226970067E+02  0.34647980058E+02  0.46396337390E+02  0.10138950237E+03  0.00000000000E+00 0.  1.
         12    1    6    6    0    0 -0.10981133207E+03  0.15310661077E+03  0.29214452480E+02  0.19066632410E+03  0.00000000000E+00 0. -1.
         -5    1    3    3    0  503  0.10758000179E+03 -0.10907683020E+03 -0.83326345916E+02  0.17446083112E+03  0.47000000000E+01 0.  1.
         11    1    4    4    0    0 -0.15581313741E+01  0.38028980323E+01  0.21142670456E+02  0.21538391789E+02  0.00000000000E+00 0. -1.
        -12    1    4    4    0    0  0.83114169258E+02 -0.12732167958E+03  0.12421696448E+02  0.15255514991E+03  0.00000000000E+00 0.  1.
</event>
<event>
12    1  0.8226261E-002  0.1728444E+03  0.7818608E-02  0.1174996E+00
         21   -1    0    0  501  502  0.00000000000E+00  0.00000000000E+00  0.30210546475E+03  0.30210546475E+03  0.00000000000E+00 0. -1.
         21   -1    0    0  502  503 -0.00000000000E+00 -0.00000000000E+00 -0.27395564555E+03  0.27395564555E+03  0.00000000000E+00 0. -1.
         -6    2    1    2    0  503 -0.30930323229E+01  0.13402752265E+02 -0.21630133834E+03  0.27667581701E+03  0.17197103864E+03 0.  0.
        -24    2    3    3    0    0 -0.46618738324E+02 -0.40353039930E+02 -0.13868221280E+03  0.17260377020E+03  0.82204809745E+02 0.  0.
          6    2    1    2  501    0  0.30930323229E+01 -0.13402752265E+02  0.24445115754E+03  0.29938529330E+03  0.17229621239E+03 0.  0.
         24    2    5    5    0    0  0.54571647364E+02 -0.51015239936E+02  0.17533197794E+03  0.20523489222E+03  0.76154048438E+02 0.  0.
          5    1    5    5  501    0 -0.51478615041E+02  0.37612487671E+02  0.69119179601E+02  0.94150401083E+02  0.47000000000E+01 0. -1.
        -11    1    6    6    0    0  0.14028802389E+02 -0.54255838094E+02  0.56260811826E+02  0.79408955484E+02  0.00000000000E+00 0.  1.
         12    1    6    6    0    0  0.40542844975E+02  0.32405981582E+01  0.11907116611E+03  0.12582593673E+03  0.00000000000E+00 0. -1.
         -5    1    3    3    0  503  0.43525706001E+02  0.53755792195E+02 -0.77619125537E+02  0.10407204681E+03  0.47000000000E+01 0.  1.
         11    1    4    4    0    0 -0.17119736084E+02  0.24871217245E+02 -0.30794409398E+02  0.43127235722E+02  0.00000000000E+00 0. -1.
        -12    1    4    4    0    0 -0.29499002241E+02 -0.65224257175E+02 -0.10788780341E+03  0.12947653448E+03  0.00000000000E+00 0.  1.
</event>
<event>
12    1  0.8226261E-002  0.2373753E+03  0.7818608E-02  0.1121635E+00
         21   -1    0    0  503  502  0.00000000000E+00  0.00000000000E+00  0.81568757925E+02  0.81568757925E+02  0.00000000000E+00 0.  1.
         21   -1    0    0  501  503 -0.00000000000E+00 -0.00000000000E+00 -0.71897786797E+03  0.71897786797E+03  0.00000000000E+00 0.  1.
          6    2    1    2  501    0  0.10978784435E+03 -0.12089311791E+03 -0.23782159931E+03  0.33601513324E+03  0.17227460620E+03 0.  0.
         24    2    3    3    0    0  0.14563968812E+03 -0.91067941908E+02 -0.19922325853E+03  0.27529596217E+03  0.81201423919E+02 0.  0.
         -6    2    1    2    0  502 -0.10978784435E+03  0.12089311791E+03 -0.39958751074E+03  0.46453149266E+03  0.17161238943E+03 0.  0.
        -24    2    5    5    0    0 -0.71521530976E+02 -0.46441009362E+01 -0.16673543824E+03  0.19720008463E+03  0.77137992867E+02 0.  0.
          5    1    3    3  501    0 -0.35851843767E+02 -0.29825176002E+02 -0.38598340776E+02  0.60719171072E+02  0.47000000000E+01 0. -1.
        -11    1    4    4    0    0  0.73484075164E+02 -0.91468084790E+02 -0.11346197165E+03  0.16321745877E+03  0.00000000000E+00 0.  1.
         12    1    4    4    0    0  0.72155612954E+02  0.40014288153E+00 -0.85761286881E+02  0.11207850339E+03  0.00000000000E+00 0. -1.
         -5    1    5    5    0  502 -0.38266313375E+02  0.12553721885E+03 -0.23285207249E+03  0.26733140803E+03  0.47000000000E+01 0.  1.
         11    1    6    6    0    0  0.16439854150E+02  0.21127756068E+01 -0.33945307753E+02  0.37775872507E+02  0.00000000000E+00 0. -1.
        -12    1    6    6    0    0 -0.87961385126E+02 -0.67568765430E+01 -0.13279013049E+03  0.15942421212E+03  0.00000000000E+00 0.  1.
</event>
<event>
12    1  0.8226261E-002  0.1847475E+03  0.7818608E-02  0.1163408E+00
         21   -1    0    0  503  502  0.00000000000E+00  0.00000000000E+00  0.10939750031E+03  0.10939750031E+03  0.00000000000E+00 0. -1.
         21   -1    0    0  501  503 -0.00000000000E+00 -0.00000000000E+00 -0.40318274478E+03  0.40318274478E+03  0.00000000000E+00 0. -1.
          6    2    1    2  501    0 -0.54037339787E+02  0.38150608111E+02 -0.26952530588E+03  0.32676526941E+03  0.17249970375E+03 0.  0.
         24    2    3    3    0    0 -0.47100487547E+02 -0.41634573441E+02 -0.14358878098E+03  0.17744717467E+03  0.83173722666E+02 0.  0.
         -6    2    1    2    0  502  0.54037339787E+02 -0.38150608111E+02 -0.24259938585E+02  0.18581497567E+03  0.17193940088E+03 0.  0.
        -24    2    5    5    0    0  0.24159071363E+02 -0.25645142160E+02 -0.81802318718E+02  0.11961593403E+03  0.79843711595E+02 0.  0.
          5    1    3    3  501    0 -0.69368522398E+01  0.79785181552E+02 -0.12593652490E+03  0.14931809475E+03  0.47000000000E+01 0. -1.
        -13    1    4    4    0    0  0.24183513268E+02 -0.12378145776E+02 -0.39519992610E+02  0.47957174883E+02  0.00000000000E+00 0.  1.
         14    1    4    4    0    0 -0.71284000815E+02 -0.29256427665E+02 -0.10406878837E+03  0.12948999978E+03  0.00000000000E+00 0. -1.
         -5    1    5    5    0  502  0.29878268424E+02 -0.12505465951E+02  0.57542380133E+02  0.66199041640E+02  0.47000000000E+01 0.  1.
         11    1    6    6    0    0 -0.27127713549E+01 -0.21129631817E+02  0.10231775029E+02  0.23632809596E+02  0.00000000000E+00 0. -1.
        -12    1    6    6    0    0  0.26871842718E+02 -0.45155103428E+01 -0.92034093747E+02  0.95983124437E+02  0.00000000000E+00 0.  1.
</event>
<event>
12    1  0.8226261E-002  0.2535399E+03  0.7818608E-02  0.1111159E+00
         21   -1    0    0  503  502  0.00000000000E+00  0.00000000000E+00  0.26850347817E+03  0.26850347817E+03  0.00000000000E+00 0.  1.
         21   -1    0    0  501  503 -0.00000000000E+00 -0.00000000000E+00 -0.25273026039E+03  0.25273026039E+03  0.00000000000E+00 0. -1.
          6    2    1    2  501    0  0.87610573411E+02  0.16404255530E+03 -0.52894532660E+02  0.25899862422E+03  0.17232783651E+03 0.  0.
         24    2    3    3    0    0  0.10717319646E+03  0.56980290798E+02 -0.34056484480E+02  0.14844552946E+03  0.78379739098E+02 0.  0.
         -6    2    1    2    0  502 -0.87610573411E+02 -0.16404255530E+03  0.68667750434E+02  0.26223511435E+03  0.17165786531E+03 0.  0.
        -24    2    5    5    0    0 -0.87250394881E+02 -0.12640055841E+03 -0.11226437322E+02  0.17379179410E+03  0.80547018751E+02 0.  0.
          5    1    3    3  501    0 -0.19562623052E+02  0.10706226450E+03 -0.18838048180E+02  0.11055309476E+03  0.47000000000E+01 0. -1.
        -13    1    4    4    0    0  0.42418616170E+02  0.20397275351E+02 -0.53812505240E+02  0.71492472049E+02  0.00000000000E+00 0.  1.
         14    1    4    4    0    0  0.64754580293E+02  0.36583015448E+02  0.19756020760E+02  0.76953057408E+02  0.00000000000E+00 0. -1.
         -5    1    5    5    0  502 -0.36017852941E+00 -0.37641996897E+02  0.79894187756E+02  0.88443320246E+02  0.47000000000E+01 0.  1.
         13    1    6    6    0    0  0.91849449391E+01  0.22928961744E+01  0.72414690325E+01  0.11918869919E+02  0.00000000000E+00 0. -1.
        -14    1    6    6    0    0 -0.96435339821E+02 -0.12869345458E+03 -0.18467906354E+02  0.16187292418E+03  0.00000000000E+00 0.  1.
</event>
<event>
12    1  0.8226261E-002  0.2685791E+03  0.7818608E-02  0.1102282E+00
         21   -1    0    0  503  502  0.00000000000E+00  0.00000000000E+00  0.20234146451E+03  0.20234146451E+03  0.00000000000E+00 0. -1.
         21   -1    0    0  501  503 -0.00000000000E+00 -0.00000000000E+00 -0.36022686486E+03  0.36022686486E+03  0.00000000000E+00 0.  1.
          6    2    1    2  501    0 -0.20457806405E+03  0.12329633269E+02 -0.11369369605E+03  0.29165219524E+03  0.17358151491E+03 0.  0.
         24    2    3    3    0    0 -0.18324099114E+03 -0.46903644577E+02 -0.87297226017E+02  0.22322182541E+03  0.80187062289E+02 0.  0.
         -6    2    1    2    0  502  0.20457806405E+03 -0.12329633269E+02 -0.44191704303E+02  0.27091613413E+03  0.17157634120E+03 0.  0.
        -24    2    5    5    0    0  0.85783402261E+02 -0.48812233024E+02  0.24254900712E+02  0.12896480623E+03  0.79386364334E+02 0.  0.
          5    1    3    3  501    0 -0.21337072904E+02  0.59233277847E+02 -0.26396470033E+02  0.68430369828E+02  0.47000000000E+01 0. -1.
        -11    1    4    4    0    0 -0.20094252698E+02 -0.23809250201E+02 -0.42077591671E+02  0.52356309147E+02  0.00000000000E+00 0.  1.
         12    1    4    4    0    0 -0.16314673845E+03 -0.23094394376E+02 -0.45219634346E+02  0.17086551626E+03  0.00000000000E+00 0. -1.
         -5    1    5    5    0  502  0.11879466179E+03  0.36482599755E+02 -0.68446605016E+02  0.14195132790E+03  0.47000000000E+01 0.  1.
         11    1    6    6    0    0  0.73752616358E+02 -0.40706426925E+01  0.34484438838E+02  0.81518065934E+02  0.00000000000E+00 0. -1.
        -12    1    6    6    0    0  0.12030785902E+02 -0.44741590332E+02 -0.10229538126E+02  0.47446740300E+02  0.00000000000E+00 0.  1.
</event>
<event>
12    1  0.8226261E-002  0.3054803E+03  0.7818608E-02  0.1082544E+00
         21   -1    0    0  503  502  0.00000000000E+00  0.00000000000E+00  0.16540856369E+03  0.16540856369E+03  0.00000000000E+00 0. -1.
         21   -1    0    0  501  503 -0.00000000000E+00 -0.00000000000E+00 -0.62203597376E+03  0.62203597376E+03  0.00000000000E+00 0.  1.
          6    2    1    2  501    0 -0.23841910199E+03 -0.82941665797E+02 -0.10801460229E+03  0.32392638364E+03  0.17186669134E+03 0.  0.
         24    2    3    3    0    0 -0.19074616131E+03  0.30150898571E+01 -0.80394798786E+02  0.22171964873E+03  0.79392002995E+02 0.  0.
         -6    2    1    2    0  502  0.23841910199E+03  0.82941665797E+02 -0.34861280777E+03  0.46351815381E+03  0.17203255811E+03 0.  0.
        -24    2    5    5    0    0  0.12654081066E+03  0.41855304581E+02 -0.87965687339E+02  0.17687577638E+03  0.76043637714E+02 0.  0.
          5    1    3    3  501    0 -0.47672940680E+02 -0.85956755654E+02 -0.27619803507E+02  0.10220673491E+03  0.47000000000E+01 0. -1.
        -13    1    4    4    0    0 -0.11528603804E+03  0.34215187295E+02 -0.24393251503E+02  0.12270525795E+03  0.00000000000E+00 0.  1.
         14    1    4    4    0    0 -0.75460123263E+02 -0.31200097438E+02 -0.56001547283E+02  0.99014390778E+02  0.00000000000E+00 0. -1.
         -5    1    5    5    0  502  0.11187829133E+03  0.41086361216E+02 -0.26064712043E+03  0.28664237743E+03  0.47000000000E+01 0.  1.
         13    1    6    6    0    0  0.66406674019E+02  0.55973009380E+02 -0.72667534681E+02  0.11324042887E+03  0.00000000000E+00 0. -1.
        -14    1    6    6    0    0  0.60134136641E+02 -0.14117704799E+02 -0.15298152658E+02  0.63635347513E+02  0.00000000000E+00 0.  1.
</event>
<event>
12    1  0.8226261E-002  0.2492637E+03  0.7818608E-02  0.1113895E+00
         21   -1    0    0  503  502  0.00000000000E+00  0.00000000000E+00  0.14932465251E+03  0.14932465251E+03  0.00000000000E+00 0.  1.
         21   -1    0    0  501  503 -0.00000000000E+00 -0.00000000000E+00 -0.65831422531E+03  0.65831422531E+03  0.00000000000E+00 0. -1.
          6    2    1    2  501    0  0.15204642199E+03 -0.95863018718E+02 -0.86369514860E+01  0.24863517111E+03  0.17157219642E+03 0.  0.
         24    2    3    3    0    0  0.60462377817E+02 -0.71512673867E+02  0.54427953419E+02  0.13470603229E+03  0.80084651255E+02 0.  0.
         -6    2    1    2    0  502 -0.15204642199E+03  0.95863018718E+02 -0.50035262132E+03  0.55900370672E+03  0.17269790292E+03 0.  0.
        -24    2    5    5    0    0 -0.15463357954E+03  0.57384100041E+02 -0.48225700513E+03  0.51614507991E+03  0.81421407889E+02 0.  0.
          5    1    3    3  501    0  0.91584044169E+02 -0.24350344850E+02 -0.63064904905E+02  0.11392913882E+03  0.47000000000E+01 0. -1.
        -11    1    4    4    0    0  0.57717509311E+02 -0.75959998073E+02  0.16985576604E+02  0.96900681117E+02  0.00000000000E+00 0.  1.
         12    1    4    4    0    0  0.27448685067E+01  0.44473242062E+01  0.37442376815E+02  0.37805351172E+02  0.00000000000E+00 0. -1.
         -5    1    5    5    0  502  0.25871575580E+01  0.38478918676E+02 -0.18095616188E+02  0.42858626809E+02  0.47000000000E+01 0.  1.
         13    1    6    6    0    0 -0.43318193988E+02  0.49038322184E+02 -0.25052060661E+03  0.25892430807E+03  0.00000000000E+00 0. -1.
        -14    1    6    6    0    0 -0.11131538556E+03  0.83457778572E+01 -0.23173639852E+03  0.25722077185E+03  0.00000000000E+00 0.  1.
</event>
<event>
12    1  0.8226261E-002  0.2227717E+03  0.7818608E-02  0.1131972E+00
         21   -1    0    0  503  502  0.00000000000E+00  0.00000000000E+00  0.10104068626E+04  0.10104068626E+04  0.00000000000E+00 0.  1.
         21   -1    0    0  501  503 -0.00000000000E+00 -0.00000000000E+00 -0.57808405057E+02  0.57808405057E+02  0.00000000000E+00 0. -1.
          6    2    1    2  501    0  0.67848105794E+02 -0.12482197730E+03  0.26790290468E+03  0.34842388701E+03  0.17159063853E+03 0.  0.
         24    2    3    3    0    0  0.38188607882E+02 -0.15610058567E+02  0.19753858383E+03  0.21508163318E+03  0.74408152310E+02 0.  0.
         -6    2    1    2    0  502 -0.67848105794E+02  0.12482197730E+03  0.68469555289E+03  0.71979138066E+03  0.17060990610E+03 0.  0.
        -24    2    5    5    0    0 -0.41475698611E+02  0.88933146701E+02  0.23185155294E+03  0.26473831748E+03  0.81865108474E+02 0.  0.
          5    1    3    3  501    0  0.29659497912E+02 -0.10921191873E+03  0.70364320847E+02  0.13334225383E+03  0.47000000000E+01 0. -1.
        -13    1    4    4    0    0  0.32707850196E+02 -0.48239352052E+01  0.23355925755E+02  0.40479292029E+02  0.00000000000E+00 0.  1.
         14    1    4    4    0    0  0.54807576859E+01 -0.10786123362E+02  0.17418265807E+03  0.17460234115E+03  0.00000000000E+00 0. -1.
         -5    1    5    5    0  502 -0.26372407184E+02  0.35888830596E+02  0.45284399995E+03  0.45505306318E+03  0.47000000000E+01 0.  1.
         11    1    6    6    0    0  0.14124741916E+02  0.60689992644E+02  0.14494820736E+03  0.15777441604E+03  0.00000000000E+00 0. -1.
        -12    1    6    6    0    0 -0.55600440527E+02  0.28243154057E+02  0.86903345579E+02  0.10696390144E+03  0.00000000000E+00 0.  1.
</event>
<event>
12    1  0.8226261E-002  0.1933617E+03  0.7818608E-02  0.1158662E+00
         21   -1    0    0  503  502  0.00000000000E+00  0.00000000000E+00  0.37748301992E+03  0.37748301992E+03  0.00000000000E+00 0.  1.
         21   -1    0    0  501  503 -0.00000000000E+00 -0.00000000000E+00 -0.18657406782E+03  0.18657406782E+03  0.00000000000E+00 0.  1.
          6    2    1    2  501    0  0.37213794779E+02 -0.35496470510E+02 -0.10699626152E+03  0.20890040063E+03  0.17189040539E+03 0.  0.
         24    2    3    3    0    0  0.42032137999E+02 -0.68754236401E+02 -0.12615168885E+03  0.16993482840E+03  0.80434766462E+02 0.  0.
         -6    2    1    2    0  502 -0.37213794779E+02  0.35496470510E+02  0.29790521362E+03  0.35515668710E+03  0.18639713020E+03 0.  0.
        -24    2    5    5    0    0 -0.39466692314E+02  0.84549976579E+02  0.12537451587E+03  0.17571239582E+03  0.80310388336E+02 0.  0.
          5    1    3    3  501    0 -0.48183432203E+01  0.33257765891E+02  0.19155427329E+02  0.38965572235E+02  0.47000000000E+01 0. -1.
        -11    1    4    4    0    0  0.16321586023E+02  0.12919793320E+02 -0.54311796138E+02  0.58164305459E+02  0.00000000000E+00 0.  1.
         12    1    4    4    0    0  0.25710551976E+02 -0.81674029721E+02 -0.71839892711E+02  0.11177052294E+03  0.00000000000E+00 0. -1.
         -5    1    5    5    0  502  0.22528975351E+01 -0.49053506069E+02  0.17253069775E+03  0.17944429128E+03  0.47000000000E+01 0.  1.
         13    1    6    6    0    0 -0.41995937973E+02  0.32495585446E+02  0.17501658167E+02  0.55910016261E+02  0.00000000000E+00 0. -1.
        -14    1    6    6    0    0  0.25292456593E+01  0.52054391134E+02  0.10787285770E+03  0.11980237956E+03  0.00000000000E+00 0.  1.
</event>
<event>
12    1  0.8226261E-002  0.3298173E+03  0.7818608E-02  0.1071932E+00
         21   -1    0    0  501  502  0.00000000000E+00  0.00000000000E+00  0.46452044294E+03  0.46452044294E+03  0.00000000000E+00 0.  1.
         21   -1    0    0  502  503 -0.00000000000E+00 -0.00000000000E+00 -0.23273823666E+03  0.23273823666E+03  0.00000000000E+00 0. -1.
         -6    2    1    2    0  503  0.15845652734E+03  0.22275093545E+03  0.15484284102E+03  0.35858607312E+03  0.17286184113E+03 0.  0.
        -24    2    3    3    0    0  0.37981261835E+02  0.52627119946E+02  0.57768423624E+01  0.10226759123E+03  0.78823209176E+02 0.  0.
          6    2    1    2  501    0 -0.15845652734E+03 -0.22275093545E+03  0.76939365264E+02  0.33867260647E+03  0.18453459878E+03 0.  0.
         24    2    5    5    0    0 -0.11694626573E+03 -0.10871732649E+03  0.11568272244E+03  0.21119749707E+03  0.75670366396E+02 0.  0.
          5    1    5    5  501    0 -0.41510261615E+02 -0.11403360897E+03 -0.38743357176E+02  0.12747510941E+03  0.47000000000E+01 0. -1.
        -13    1    6    6    0    0  0.18545476260E+01 -0.97731809435E+00  0.28646810656E+02  0.28723409587E+02  0.00000000000E+00 0.  1.
         14    1    6    6    0    0 -0.11880081335E+03 -0.10774000839E+03  0.87035911784E+02  0.18247408748E+03  0.00000000000E+00 0. -1.
         -5    1    3    3    0  503  0.12047526551E+03  0.17012381551E+03  0.14906599866E+03  0.25631848189E+03  0.47000000000E+01 0.  1.
         11    1    4    4    0    0  0.60959711523E+02  0.44792568438E+02 -0.47723367596E+01  0.75797333821E+02  0.00000000000E+00 0. -1.
        -12    1    4    4    0    0 -0.22978449688E+02  0.78345515080E+01  0.10549179122E+02  0.26470257413E+02  0.00000000000E+00 0.  1.
</event>
<event>
12    1  0.8226261E-002  0.1760228E+03  0.7818608E-02  0.1172010E+00
         21   -1    0    0  501  502  0.00000000000E+00  0.00000000000E+00  0.13953586846E+04  0.13953586846E+04  0.00000000000E+00 0. -1.
         21   -1    0    0  502  503 -0.00000000000E+00 -0.00000000000E+00 -0.42985666975E+02  0.42985666975E+02  0.00000000000E+00 0.  1.
         -6    2    1    2    0  503 -0.19817894263E+02 -0.28801913508E+02  0.11792382145E+04  0.11923031440E+04  0.17251585869E+03 0.  0.
        -24    2    3    3    0    0 -0.49507881092E+02 -0.41187035666E+01  0.36053747540E+03  0.37267899454E+03  0.80214511132E+02 0.  0.
          6    2    1    2  501    0  0.19817894263E+02  0.28801913508E+02  0.17313480316E+03  0.24604120761E+03  0.17128431517E+03 0.  0.
         24    2    5    5    0    0 -0.10400205419E+02  0.63980620637E+01  0.23969349855E+02  0.92133805033E+02  0.88119287483E+02 0.  0.
          5    1    5    5  501    0  0.30218099683E+02  0.22403851444E+02  0.14916545331E+03  0.15390740258E+03  0.47000000000E+01 0. -1.
        -13    1    6    6    0    0  0.25206803838E+02 -0.28556704943E+02  0.36729452181E+01  0.38266942437E+02  0.00000000000E+00 0.  1.
         14    1    6    6    0    0 -0.35607009258E+02  0.34954767006E+02  0.20296404637E+02  0.53866862596E+02  0.00000000000E+00 0. -1.
         -5    1    3    3    0  503  0.29689986829E+02 -0.24683209941E+02  0.81870073907E+03  0.81962414943E+03  0.47000000000E+01 0.  1.
         11    1    4    4    0    0  0.72734782835E+01 -0.30739877952E+02  0.11502301058E+03  0.11928175278E+03  0.00000000000E+00 0. -1.
        -12    1    4    4    0    0 -0.56781359375E+02  0.26621174385E+02  0.24551446481E+03  0.25339724176E+03  0.00000000000E+00 0.  1.
</event>
<event>
12    1  0.8226261E-002  0.2872929E+03  0.7818608E-02  0.1091921E+00
         21   -1    0    0  503  502  0.00000000000E+00  0.00000000000E+00  0.65229586369E+03  0.65229586369E+03  0.00000000000E+00 0. -1.
         21   -1    0    0  501  503 -0.00000000000E+00 -0.00000000000E+00 -0.38727209720E+03  0.38727209720E+03  0.00000000000E+00 0.  1.
          6    2    1    2  501    0 -0.22806918081E+03 -0.20446147633E+02 -0.29448035490E+03  0.41061482294E+03  0.17161659946E+03 0.  0.
         24    2    3    3    0    0 -0.61375614601E+02  0.17821230044E+02 -0.16160775222E+03  0.19398528721E+03  0.86189696414E+02 0.  0.
         -6    2    1    2    0  502  0.22806918081E+03  0.20446147633E+02  0.55950412139E+03  0.62895313795E+03  0.17350386652E+03 0.  0.
        -24    2    5    5    0    0  0.17301343726E+03  0.78306796140E+02  0.43255186736E+03  0.47889330206E+03  0.78562542030E+02 0.  0.
          5    1    3    3  501    0 -0.16669356621E+03 -0.38267377676E+02 -0.13287260268E+03  0.21662953574E+03  0.47000000000E+01 0. -1.
        -13    1    4    4    0    0 -0.64297184608E+02  0.11721309948E+02 -0.50299018292E+02  0.82471257396E+02  0.00000000000E+00 0.  1.
         14    1    4    4    0    0  0.29215700063E+01  0.60999200961E+01 -0.11130873393E+03  0.11151402981E+03  0.00000000000E+00 0. -1.
         -5    1    5    5    0  502  0.55055743554E+02 -0.57860648507E+02  0.12695225403E+03  0.15005983589E+03  0.47000000000E+01 0.  1.
         11    1    6    6    0    0  0.60332299448E+02 -0.34302726902E+01  0.18828941565E+03  0.19774897515E+03  0.00000000000E+00 0. -1.
        -12    1    6    6    0    0  0.11268113781E+03  0.81737068830E+02  0.24426245171E+03  0.28114432691E+03  0.00000000000E+00 0.  1.
</event>
<event>
12    1  0.8226261E-002  0.1999709E+03  0.7818608E-02  0.1150045E+00
         21   -1    0    0  503  502  0.00000000000E+00  0.00000000000E+00  0.64621137631E+02  0.64621137631E+02  0.00000000000E+00 0.  1.
         21   -1    0    0  501  503 -0.00000000000E+00 -0.00000000000E+00 -0.89007541398E+03  0.89007541398E+03  0.00000000000E+00 0. -1.
          6    2    1    2  501    0 -0.97510552743E+02  0.21293250776E+02 -0.67918401489E+03  0.70801080146E+03  0.17328202007E+03 0.  0.
         24    2    3    3    0    0  0.17198183818E+01  0.52997259666E+02 -0.32855433300E+03  0.34220337322E+03  0.79646290582E+02 0.  0.
         -6    2    1    2    0  502  0.97510552743E+02 -0.21293250776E+02 -0.14627026146E+03  0.24668575015E+03  0.17174737120E+03 0.  0.
        -24    2    5    5    0    0  0.16475338951E+02 -0.65509630297E+02 -0.61649440867E+02  0.12136788482E+03  0.79790735375E+02 0.  0.
          5    1    3    3  501    0 -0.99230371125E+02 -0.31704008890E+02 -0.35062968189E+03  0.36580742824E+03  0.47000000000E+01 0. -1.
        -11    1    4    4    0    0 -0.50090302438E+01  0.29441749834E+02 -0.28930808317E+02  0.41580027503E+02  0.00000000000E+00 0.  1.
         12    1    4    4    0    0  0.67288486256E+01  0.23555509832E+02 -0.29962352468E+03  0.30062334572E+03  0.00000000000E+00 0. -1.
         -5    1    5    5    0  502  0.81035213792E+02  0.44216379522E+02 -0.84620820590E+02  0.12531786532E+03  0.47000000000E+01 0.  1.
         11    1    6    6    0    0  0.32883533904E+02 -0.19285223010E+02 -0.61453564193E+02  0.72317267514E+02  0.00000000000E+00 0. -1.
        -12    1    6    6    0    0 -0.16408194953E+02 -0.46224407287E+02 -0.19587667368E+00  0.49050617308E+02  0.00000000000E+00 0.  1.
</event>
<event>
12    1  0.8226261E-002  0.1824087E+03  0.7818608E-02  0.1165712E+00
         21   -1    0    0  503  502  0.00000000000E+00  0.00000000000E+00  0.48474432526E+03  0.48474432526E+03  0.00000000000E+00 0.  1.
         21   -1    0    0  501  503 -0.00000000000E+00 -0.00000000000E+00 -0.18155257076E+03  0.18155257076E+03  0.00000000000E+00 0.  1.
          6    2    1    2  501    0  0.30724438347E+02  0.46331539194E+02 -0.11167936280E+03  0.21309609835E+03  0.17276302968E+03 0.  0.
         24    2    3    3    0    0  0.17146704250E+02  0.66801039298E+02 -0.13978718772E+03  0.17547303203E+03  0.80584978770E+02 0.  0.
         -6    2    1    2    0  502 -0.30724438347E+02 -0.46331539194E+02  0.41487111729E+03  0.45320079767E+03  0.17373058570E+03 0.  0.
        -24    2    5    5    0    0 -0.36475328803E+02 -0.85935526872E+02  0.38147821172E+03  0.40086797123E+03  0.80337662072E+02 0.  0.
          5    1    3    3  501    0  0.13577734096E+02 -0.20469500104E+02  0.28107824920E+02  0.37623066321E+02  0.47000000000E+01 0. -1.
        -11    1    4    4    0    0  0.30823631824E+02  0.11082104711E+02 -0.10110327907E+03  0.10627691359E+03  0.00000000000E+00 0.  1.
         12    1    4    4    0    0 -0.13676927574E+02  0.55718934588E+02 -0.38683908648E+02  0.69196118444E+02  0.00000000000E+00 0. -1.
         -5    1    5    5    0  502  0.57508904566E+01  0.39603987678E+02  0.33392905572E+02  0.52332826443E+02  0.47000000000E+01 0.  1.
         11    1    6    6    0    0  0.20443129733E+02 -0.52603707695E+02  0.15379938702E+03  0.16382711334E+03  0.00000000000E+00 0. -1.
        -12    1    6    6    0    0 -0.56918458536E+02 -0.33331819177E+02  0.22767882470E+03  0.23704085789E+03  0.00000000000E+00 0.  1.
</event>
<event>
12    1  0.8226261E-002  0.1948238E+03  0.7818608E-02  0.1154309E+00
         21   -1    0    0  503  502  0.00000000000E+00  0.00000000000E+00  0.88252094299E+03  0.88252094299E+03  0.00000000000E+00 0. -1.
         21   -1    0    0  501  503 -0.00000000000E+00 -0.00000000000E+00 -0.77517024738E+02  0.77517024738E+02  0.00000000000E+00 0. -1.
          6    2    1    2  501    0  0.61444539586E+02  0.68294902316E+02  0.81298866897E+02  0.21056794235E+03  0.17114241864E+03 0.  0.
         24    2    3    3    0    0  0.13656777395E+02 -0.21256917702E+02  0.64598444000E+02  0.10759128087E+03  0.82246949081E+02 0.  0.
         -6    2    1    2    0  502 -0.61444539586E+02 -0.68294902316E+02  0.72370505136E+03  0.74947002538E+03  0.17180422714E+03 0.  0.
        -24    2    5    5    0    0 -0.65101508212E+02 -0.74080265049E+02  0.72877659242E+03  0.73974097763E+03  0.79845477505E+02 0.  0.
          5    1    3    3  501    0  0.47787762191E+02  0.89551820017E+02  0.16700422897E+02  0.10297666147E+03  0.47000000000E+01 0. -1.
        -11    1    4    4    0    0 -0.22310062779E+02 -0.39728101927E+02  0.32511217303E+02  0.55973567284E+02  0.00000000000E+00 0.  1.
         12    1    4    4    0    0  0.35966840174E+02  0.18471184226E+02  0.32087226698E+02  0.51617713587E+02  0.00000000000E+00 0. -1.
         -5    1    5    5    0  502  0.36569686259E+01  0.57853627338E+01 -0.50715410644E+01  0.97290477571E+01  0.47000000000E+01 0.  1.
         13    1    6    6    0    0  0.16855113042E+01  0.11039949317E+01  0.27275870223E+03  0.27276614415E+03  0.00000000000E+00 0. -1.
        -14    1    6    6    0    0 -0.66787019516E+02 -0.75184259981E+02  0.45601789019E+03  0.46697483347E+03  0.00000000000E+00 0.  1.
</event>
<event>
12    1  0.8226261E-002  0.3676723E+03  0.7818608E-02  0.1055743E+00
         21   -1    0    0  501  502  0.00000000000E+00  0.00000000000E+00  0.13538317880E+03  0.13538317880E+03  0.00000000000E+00 0.  1.
         21   -1    0    0  502  503 -0.00000000000E+00 -0.00000000000E+00 -0.10894604678E+04  0.10894604678E+04  0.00000000000E+00 0.  1.
         -6    2    1    2    0  503  0.32355645754E+03 -0.32892590466E+02 -0.65917030759E+03  0.75477707647E+03  0.17149996220E+03 0.  0.
        -24    2    3    3    0    0  0.55422833544E+02  0.10445396936E+02 -0.19631073996E+03  0.21808825525E+03  0.76444644431E+02 0.  0.
          6    2    1    2  501    0 -0.32355645754E+03  0.32892590466E+02 -0.29490698141E+03  0.47006657014E+03  0.16799330034E+03 0.  0.
         24    2    5    5    0    0 -0.15680902535E+03  0.22744856398E+02 -0.74033347519E+02  0.19309195976E+03  0.81836235588E+02 0.  0.
          5    1    5    5  501    0 -0.16674743219E+03  0.10147734068E+02 -0.22087363389E+03  0.27697461038E+03  0.47000000000E+01 0. -1.
        -13    1    6    6    0    0 -0.12234307624E+03 -0.16720611224E+02 -0.66219371230E+02  0.14011571029E+03  0.00000000000E+00 0.  1.
         14    1    6    6    0    0 -0.34465949112E+02  0.39465467622E+02 -0.78139762894E+01  0.52976249474E+02  0.00000000000E+00 0. -1.
         -5    1    3    3    0  503  0.26813362399E+03 -0.43337987402E+02 -0.46285956764E+03  0.53668882122E+03  0.47000000000E+01 0.  1.
         11    1    4    4    0    0  0.42287755478E+02  0.82698182532E+01 -0.19974397674E+03  0.20433869042E+03  0.00000000000E+00 0. -1.
        -12    1    4    4    0    0  0.13135078066E+02  0.21755786827E+01  0.34332367835E+01  0.13749564837E+02  0.00000000000E+00 0.  1.
</event>
<event>
12    1  0.8226261E-002  0.1816285E+03  0.7818608E-02  0.1166395E+00
         21   -1    0    0  501  502  0.00000000000E+00  0.00000000000E+00  0.58144907457E+02  0.58144907457E+02  0.00000000000E+00 0. -1.
         21   -1    0    0  502  503 -0.00000000000E+00 -0.00000000000E+00 -0.85329654756E+03  0.85329654756E+03  0.00000000000E+00 0. -1.
         -6    2    1    2    0  503  0.57238246506E+02  0.49740431471E+01 -0.13233766440E+03  0.22419239747E+03  0.17160424148E+03 0.  0.
        -24    2    3    3    0    0  0.70780688857E+01 -0.46620613175E+02 -0.26691080502E+02  0.96280933281E+02  0.79586579918E+02 0.  0.
          6    2    1    2  501    0 -0.57238246506E+02 -0.49740431471E+01 -0.66281397569E+03  0.68724905755E+03  0.17230189423E+03 0.  0.
         24    2    5    5    0    0 -0.58633887216E+02 -0.65302417923E+02 -0.48305278576E+03  0.49757134134E+03  0.80838774006E+02 0.  0.
          5    1    5    5  501    0  0.13956407096E+01  0.60328374776E+02 -0.17976118994E+03  0.18967771620E+03  0.47000000000E+01 0. -1.
        -11    1    6    6    0    0 -0.45143814605E+02 -0.14266263233E+02 -0.36743207477E+03  0.37046972863E+03  0.00000000000E+00 0.  1.
         12    1    6    6    0    0 -0.13490072611E+02 -0.51036154690E+02 -0.11562071099E+03  0.12710161271E+03  0.00000000000E+00 0. -1.
         -5    1    3    3    0  503  0.50160177621E+02  0.51594656323E+02 -0.10564658390E+03  0.12791146418E+03  0.47000000000E+01 0.  1.
         11    1    4    4    0    0 -0.25658821064E+02 -0.34480723161E+02 -0.40193535247E+02  0.58845693502E+02  0.00000000000E+00 0. -1.
        -12    1    4    4    0    0  0.32736889950E+02 -0.12139890015E+02  0.13502454745E+02  0.37435239779E+02  0.00000000000E+00 0.  1.
</event>
<event>
12    1  0.8226261E-002  0.1876636E+03  0.7818608E-02  0.1160663E+00
         21   -1    0    0  503  502  0.00000000000E+00  0.00000000000E+00  0.69469944565E+02  0.69469944565E+02  0.00000000000E+00 0. -1.
         21   -1    0    0  501  503 -0.00000000000E+00 -0.00000000000E+00 -0.17076496338E+04  0.17076496338E+04  0.00000000000E+00 0. -1.
          6    2    1    2  501    0 -0.13655002126E+02  0.73191571365E+02 -0.15646750213E+04  0.15758888175E+04  0.17226194533E+03 0.  0.
         24    2    3    3    0    0  0.56119556876E+02  0.64534514355E+02 -0.99379630300E+03  0.10006775218E+04  0.80064365556E+02 0.  0.
         -6    2    1    2    0  502  0.13655002126E+02 -0.73191571365E+02 -0.73504667965E+02  0.20123076084E+03  0.17189362319E+03 0.  0.
        -24    2    5    5    0    0 -0.28586773422E+02 -0.76523568312E+02  0.64077910496E+01  0.11065724975E+03  0.74370068005E+02 0.  0.
          5    1    3    3  501    0 -0.69774559002E+02  0.86570570096E+01 -0.57087871827E+03  0.57521129569E+03  0.47000000000E+01 0. -1.
        -11    1    4    4    0    0 -0.62022925549E+01  0.83453234976E+01 -0.14775993709E+02  0.18067729445E+02  0.00000000000E+00 0.  1.
         12    1    4    4    0    0  0.62321849431E+02  0.56189190858E+02 -0.97902030929E+03  0.98260979238E+03  0.00000000000E+00 0. -1.
         -5    1    5    5    0  502  0.42241775547E+02  0.33319969469E+01 -0.79912459015E+02  0.90573511088E+02  0.47000000000E+01 0.  1.
         11    1    6    6    0    0  0.20076888478E+02 -0.52275281969E+02  0.86084024409E+00  0.56004710533E+02  0.00000000000E+00 0. -1.
        -12    1    6    6    0    0 -0.48663661900E+02 -0.24248286343E+02  0.55469508055E+01  0.54652539221E+02  0.00000000000E+00 0.  1.
</event>
<event>
12    1  0.8226261E-002  0.1834302E+03  0.7818608E-02  0.1164730E+00
         21   -1    0    0  501  502  0.00000000000E+00  0.00000000000E+00  0.80945242733E+02  0.80945242733E+02  0.00000000000E+00 0. -1.
         21   -1    0    0  502  503 -0.00000000000E+00 -0.00000000000E+00 -0.41371207143E+03  0.41371207143E+03  0.00000000000E+00 0. -1.
         -6    2    1    2    0  503  0.40702896483E+02 -0.47849461333E+02 -0.16792129348E+03  0.24868490740E+03  0.17233782416E+03 0.  0.
        -24    2    3    3    0    0  0.78958326438E+02 -0.75591639875E+02 -0.12845238662E+03  0.18693548636E+03  0.80599919959E+02 0.  0.
          6    2    1    2  501    0 -0.40702896483E+02  0.47849461333E+02 -0.16484553522E+03  0.24597240676E+03  0.17141201146E+03 0.  0.
         24    2    5    5    0    0 -0.75754579283E+02  0.78930929093E+02 -0.12093692732E+03  0.18159279855E+03  0.79883391553E+02 0.  0.
          5    1    5    5  501    0  0.35051682799E+02 -0.31081467761E+02 -0.43908607900E+02  0.64379608207E+02  0.47000000000E+01 0. -1.
        -11    1    6    6    0    0  0.12753488928E+02  0.20436722487E+02 -0.53064882996E+01  0.24667183137E+02  0.00000000000E+00 0.  1.
         12    1    6    6    0    0 -0.88508068211E+02  0.58494206606E+02 -0.11563043902E+03  0.15692561541E+03  0.00000000000E+00 0. -1.
         -5    1    3    3    0  503 -0.38255429955E+02  0.27742178542E+02 -0.39468906855E+02  0.61749421047E+02  0.47000000000E+01 0.  1.
         11    1    4    4    0    0  0.61317666123E+01 -0.13860528806E+02  0.10434319717E+02  0.18400756738E+02  0.00000000000E+00 0. -1.
        -12    1    4    4    0    0  0.72826559826E+02 -0.61731111070E+02 -0.13888670634E+03  0.16853472962E+03  0.00000000000E+00 0.  1.
</event>
<event>
12    1  0.8226261E-002  0.2834783E+03  0.7818608E-02  0.1093917E+00
         21   -1    0    0  501  502  0.00000000000E+00  0.00000000000E+00  0.18061298150E+04  0.18061298150E+04  0.00000000000E+00 0.  1.
         21   -1    0    0  502  503 -0.00000000000E+00 -0.00000000000E+00 -0.86655889659E+02  0.86655889659E+02  0.00000000000E+00 0. -1.
         -6    2    1    2    0  503 -0.13645259717E+03 -0.17956199990E+03  0.19921631965E+03  0.34647816005E+03  0.17175025559E+03 0.  0.
        -24    2    3    3    0    0 -0.14302198455E+03 -0.59006973884E+02  0.12057512628E+03  0.20231436972E+03  0.49554334689E+02 0.  0.
          6    2    1    2  501    0  0.13645259717E+03  0.17956199990E+03  0.15202576057E+04  0.15463075446E+04  0.17035848016E+03 0.  0.
         24    2    5    5    0    0  0.74501611785E+02  0.18822277703E+03  0.12244562100E+04  0.12439278341E+04  0.84173286848E+02 0.  0.
          5    1    5    5  501    0  0.61950985389E+02 -0.86607771257E+01  0.29580139568E+03  0.30237971052E+03  0.47000000000E+01 0. -1.
        -11    1    6    6    0    0  0.12125674271E+02 -0.60535677499E+01  0.12178626558E+03  0.12253804366E+03  0.00000000000E+00 0.  1.
         12    1    6    6    0    0  0.62375937514E+02  0.19427634478E+03  0.11026699445E+04  0.11213897905E+04  0.00000000000E+00 0. -1.
         -5    1    3    3    0  503  0.65693873731E+01 -0.12055502602E+03  0.78641193375E+02  0.14416379034E+03  0.47000000000E+01 0.  1.
         13    1    4    4    0    0 -0.97260002597E+02 -0.50783853731E+02  0.57264174786E+02  0.12376467032E+03  0.00000000000E+00 0. -1.
        -14    1    4    4    0    0 -0.45761981950E+02 -0.82231201538E+01  0.63310951491E+02  0.78549699399E+02  0.00000000000E+00 0.  1.
</event>
<event>
12    1  0.8226261E-002  0.2129342E+03  0.7818608E-02  0.1139480E+00
         21   -1    0    0  503  502  0.00000000000E+00  0.00000000000E+00  0.32674607410E+03  0.32674607410E+03  0.00000000000E+00 0. -1.
         21   -1    0    0  501  503 -0.00000000000E+00 -0.00000000000E+00 -0.70291887499E+03  0.70291887499E+03  0.00000000000E+00 0.  1.
          6    2    1    2  501    0 -0.74891223348E+02 -0.98327238362E+02 -0.64970226687E+03  0.68370609352E+03  0.17338986593E+03 0.  0.
         24    2    3    3    0    0  0.26809792816E+02 -0.59618014453E+02 -0.36039909274E+03  0.37457842206E+03  0.78411833193E+02 0.  0.
         -6    2    1    2    0  502  0.74891223348E+02  0.98327238362E+02  0.27352946597E+03  0.34595885556E+03  0.17202389325E+03 0.  0.
        -24    2    5    5    0    0  0.84905919877E+02  0.53103409683E+02  0.27080387419E+03  0.29932187798E+03  0.78929468600E+02 0.  0.
          5    1    3    3  501    0 -0.10170101616E+03 -0.38709223910E+02 -0.28930317412E+03  0.30912767146E+03  0.47000000000E+01 0. -1.
        -11    1    4    4    0    0  0.31038806943E+02 -0.73919064788E+02 -0.33990969442E+03  0.34923636128E+03  0.00000000000E+00 0.  1.
         12    1    4    4    0    0 -0.42290141268E+01  0.14301050336E+02 -0.20489398321E+02  0.25342060784E+02  0.00000000000E+00 0. -1.
         -5    1    5    5    0  502 -0.10014696529E+02  0.45223828680E+02  0.27255917834E+01  0.46636977578E+02  0.47000000000E+01 0.  1.
         11    1    6    6    0    0  0.61777715649E+02  0.23086366128E+02  0.74945073561E+02  0.99831009726E+02  0.00000000000E+00 0. -1.
        -12    1    6    6    0    0  0.23128204228E+02  0.30017043555E+02  0.19585880063E+03  0.19949086826E+03  0.00000000000E+00 0.  1.
</event>
<event>
12    1  0.8226261E-002  0.1784473E+03  0.7818608E-02  0.1169552E+00
         21   -1    0    0  503  502  0.00000000000E+00  0.00000000000E+00  0.37898991121E+02  0.37898991121E+02  0.00000000000E+00 0. -1.
         21   -1    0    0  501  503 -0.00000000000E+00 -0.00000000000E+00 -0.10057752492E+04  0.10057752492E+04  0.00000000000E+00 0. -1.
          6    2    1    2  501    0  0.23303407080E+02  0.41249283217E+02 -0.69745151190E+03  0.71967890647E+03  0.17103965864E+03 0.  0.
         24    2    3    3    0    0  0.16431327995E+02  0.86564609602E+02 -0.37567483602E+03  0.39462041417E+03  0.82645439619E+02 0.  0.
         -6    2    1    2    0  502 -0.23303407080E+02 -0.41249283217E+02 -0.27042474619E+03  0.32399533385E+03  0.17204325288E+03 0.  0.
        -24    2    5    5    0    0 -0.11393191739E+01  0.27123142789E+02 -0.64352465933E+02  0.10569757821E+03  0.79333317367E+02 0.  0.
          5    1    3    3  501    0  0.68720790855E+01 -0.45315326385E+02 -0.32177667588E+03  0.32505849230E+03  0.47000000000E+01 0. -1.
        -11    1    4    4    0    0  0.16053440241E+02  0.32246071677E+02 -0.37078759553E+02  0.51694840092E+02  0.00000000000E+00 0.  1.
         12    1    4    4    0    0  0.37788775426E+00  0.54318537926E+02 -0.33859607646E+03  0.34292557408E+03  0.00000000000E+00 0. -1.
         -5    1    5    5    0  502 -0.22164087907E+02 -0.68372426006E+02 -0.20607228025E+03  0.21829775565E+03  0.47000000000E+01 0.  1.
         13    1    6    6    0    0 -0.34745538169E+02  0.15406409327E+02 -0.76794805137E+01  0.38776078863E+02  0.00000000000E+00 0. -1.
        -14    1    6    6    0    0  0.33606218996E+02  0.11716733462E+02 -0.56672985420E+02  0.66921499345E+02  0.00000000000E+00 0.  1.
</event>
<event>
12    1  0.8226261E-002  0.2737641E+03  0.7818608E-02  0.1099221E+00
         21   -1    0    0  503  502  0.00000000000E+00  0.00000000000E+00  0.99669537509E+02  0.99669537509E+02  0.00000000000E+00 0.  1.
         21   -1    0    0  501  503 -0.00000000000E+00 -0.00000000000E+00 -0.78821333786E+03  0.78821333786E+03  0.00000000000E+00 0. -1.
          6    2    1    2  501    0  0.21301339221E+03 -0.46581060485E+01 -0.24679706047E+03  0.36818393215E+03  0.17103863783E+03 0.  0.
         24    2    3    3    0    0  0.16143462077E+03  0.60063080618E+02 -0.16737303425E+03  0.25338206977E+03  0.80746704265E+02 0.  0.
         -6    2    1    2    0  502 -0.21301339221E+03  0.46581060485E+01 -0.44174673989E+03  0.51969894322E+03  0.17190231578E+03 0.  0.
        -24    2    5    5    0    0 -0.17417685429E+03  0.63089546119E+02 -0.34062436438E+03  0.39653103062E+03  0.83030315156E+02 0.  0.
          5    1    3    3  501    0  0.51578771435E+02 -0.64721186667E+02 -0.79424026213E+02  0.11480186238E+03  0.47000000000E+01 0. -1.
        -13    1    4    4    0    0  0.14202392867E+03  0.17188808810E+02 -0.12960359833E+03  0.19303715747E+03  0.00000000000E+00 0.  1.
         14    1    4    4    0    0  0.19410692100E+02  0.42874271809E+02 -0.37769435929E+02  0.60344912307E+02  0.00000000000E+00 0. -1.
         -5    1    5    5    0  502 -0.38836537912E+02 -0.58431440070E+02 -0.10112237551E+03  0.12316791260E+03  0.47000000000E+01 0.  1.
         13    1    6    6    0    0 -0.37207274676E+02  0.54157394047E+02 -0.10662650856E+03  0.12524622528E+03  0.00000000000E+00 0. -1.
        -14    1    6    6    0    0 -0.13696957962E+03  0.89321520711E+01 -0.23399785582E+03  0.27128480534E+03  0.00000000000E+00 0.  1.
</event>
<event>
12    1  0.8226261E-002  0.2335961E+03  0.7818608E-02  0.1124701E+00
         21   -1    0    0  501  502  0.00000000000E+00  0.00000000000E+00  0.34750821472E+02  0.34750821472E+02  0.00000000000E+00 0. -1.
         21   -1    0    0  502  503 -0.00000000000E+00 -0.00000000000E+00 -0.15566246176E+04  0.15566246176E+04  0.00000000000E+00 0. -1.
         -6    2    1    2    0  503 -0.10427794273E+03  0.11850787057E+03 -0.81351440103E+03  0.84549331115E+03  0.16773566639E+03 0.  0.
        -24    2    3    3    0    0 -0.11573099706E+03  0.42792492900E+02 -0.42732522123E+03  0.45175715143E+03  0.79074762366E+02 0.  0.
          6    2    1    2  501    0  0.10427794273E+03 -0.11850787057E+03 -0.70835939507E+03  0.74588212790E+03  0.17218917332E+03 0.  0.
         24    2    5    5    0    0  0.66539804185E+02 -0.14364279007E+03 -0.45143561124E+03  0.48494563759E+03  0.79481844701E+02 0.  0.
          5    1    5    5  501    0  0.37738138549E+02  0.25134919504E+02 -0.25692378383E+03  0.26093649031E+03  0.47000000000E+01 0. -1.
        -11    1    6    6    0    0  0.13947571044E+02 -0.55205107993E+02 -0.71932100738E+02  0.91740753229E+02  0.00000000000E+00 0.  1.
         12    1    6    6    0    0  0.52592233141E+02 -0.88437682081E+02 -0.37950351051E+03  0.39320488436E+03  0.00000000000E+00 0. -1.
         -5    1    3    3    0  503  0.11453054325E+02  0.75715377670E+02 -0.38618917980E+03  0.39373615972E+03  0.47000000000E+01 0.  1.
         11    1    4    4    0    0 -0.88966894056E+02  0.45852190199E+02 -0.20848395070E+03  0.23126411153E+03  0.00000000000E+00 0. -1.
        -12    1    4    4    0    0 -0.26764103003E+02 -0.30596972988E+01 -0.21884127053E+03  0.22049303990E+03  0.00000000000E+00 0.  1.
</event>
<event>
12    1  0.8226261E-002  0.1890710E+03  0.7818608E-02  0.1159385E+00
         21   -1    0    0  501  502  0.00000000000E+00  0.00000000000E+00  0.26448410685E+03  0.26448410685E+03  0.00000000000E+00 0. -1.
         21   -1    0    0  502  503 -0.00000000000E+00 -0.00000000000E+00 -0.20353468755E+03  0.20353468755E+03  0.00000000000E+00 0. -1.
         -6    2    1    2    0  503  0.73208174455E+02  0.16727125390E+02 -0.10539598128E+03  0.21646280924E+03  0.17351830274E+03 0.  0.
        -24    2    3    3    0    0  0.88025234154E+02  0.53567020141E+02 -0.11677504711E+03  0.17489002677E+03  0.79575387793E+02 0.  0.
          6    2    1    2  501    0 -0.73208174455E+02 -0.16727125390E+02  0.16634540058E+03  0.25155598515E+03  0.17311957671E+03 0.  0.
         24    2    5    5    0    0 -0.54044843384E+02 -0.44501145548E+02  0.27958731416E+02  0.10903725075E+03  0.78779656870E+02 0.  0.
          5    1    5    5  501    0 -0.19163331071E+02  0.27774020157E+02  0.13838666917E+03  0.14251873441E+03  0.47000000000E+01 0. -1.
        -13    1    6    6    0    0  0.95926371408E+01  0.13893237814E+02  0.13167186668E+02  0.21410641023E+02  0.00000000000E+00 0.  1.
         14    1    6    6    0    0 -0.63637480525E+02 -0.58394383361E+02  0.14791544748E+02  0.87626609724E+02  0.00000000000E+00 0. -1.
         -5    1    3    3    0  503 -0.14817059699E+02 -0.36839894751E+02  0.11379065830E+02  0.41572782473E+02  0.47000000000E+01 0.  1.
         13    1    4    4    0    0  0.51419154856E+02  0.17943590148E+02 -0.11080300782E+03  0.12346338913E+03  0.00000000000E+00 0. -1.
        -14    1    4    4    0    0  0.36606079298E+02  0.35623429993E+02 -0.59720392905E+01  0.51426637644E+02  0.00000000000E+00 0.  1.
</event>
<event>
12    1  0.8226261E-002  0.2259347E+03  0.7818608E-02  0.1130025E+00
         21   -1    0    0  501  502  0.00000000000E+00  0.00000000000E+00  0.42686535983E+03  0.42686535983E+03  0.00000000000E+00 0.  1.
         21   -1    0    0  502  503 -0.00000000000E+00 -0.00000000000E+00 -0.21958293294E+03  0.21958293294E+03  0.00000000000E+00 0.  1.
         -6    2    1    2    0  503  0.39305682341E+01  0.14511176297E+03 -0.11569682983E+03  0.25383504632E+03  0.17312885717E+03 0.  0.
        -24    2    3    3    0    0 -0.60615841121E+02  0.10818527069E+03 -0.98543936760E+02  0.17737514484E+03  0.79829202343E+02 0.  0.
          6    2    1    2  501    0 -0.39305682341E+01 -0.14511176297E+03  0.32297925671E+03  0.39261324645E+03  0.16957796998E+03 0.  0.
         24    2    5    5    0    0 -0.57339950636E+02 -0.93188145475E+02  0.14918547108E+03  0.20347045884E+03  0.84687793935E+02 0.  0.
          5    1    5    5  501    0  0.53409382402E+02 -0.51923617498E+02  0.17379378563E+03  0.18914278762E+03  0.47000000000E+01 0. -1.
        -11    1    6    6    0    0 -0.62804930235E+02 -0.53370277505E+02  0.13966015142E+03  0.16216597571E+03  0.00000000000E+00 0.  1.
         12    1    6    6    0    0  0.54649795991E+01 -0.39817867970E+02  0.95253196579E+01  0.41304483126E+02  0.00000000000E+00 0. -1.
         -5    1    3    3    0  503  0.64546409355E+02  0.36926492285E+02 -0.17152893071E+02  0.76459901477E+02  0.47000000000E+01 0.  1.
         11    1    4    4    0    0 -0.17590552493E+02  0.37241017501E+02  0.83846252664E+01  0.42031212954E+02  0.00000000000E+00 0. -1.
        -12    1    4    4    0    0 -0.43025288628E+02  0.70944253187E+02 -0.10692856203E+03  0.13534393189E+03  0.00000000000E+00 0.  1.
</event>
<event>
12    1  0.8226261E-002  0.1759623E+03  0.7818608E-02  0.1172124E+00
         21   -1    0    0  503  502  0.00000000000E+00  0.00000000000E+00  0.11357156847E+04  0.11357156847E+04  0.00000000000E+00 0. -1.
         21   -1    0    0  501  503 -0.00000000000E+00 -0.00000000000E+00 -0.28497255610E+02  0.28497255610E+02  0.00000000000E+00 0. -1.
          6    2    1    2  501    0  0.19160067655E+02  0.32102238187E+02  0.68296052134E+03  0.70491183397E+03  0.17049327866E+03 0.  0.
         24    2    3    3    0    0  0.49424699489E+02  0.12816197735E+02  0.20937683652E+03  0.22994710283E+03  0.80186997603E+02 0.  0.
         -6    2    1    2    0  502 -0.19160067655E+02 -0.32102238187E+02  0.42425790773E+03  0.45930110633E+03  0.17194496826E+03 0.  0.
        -24    2    5    5    0    0 -0.15502853411E+02  0.50974588579E+02  0.19171172263E+03  0.21228905689E+03  0.73989944835E+02 0.  0.
          5    1    3    3  501    0 -0.30264631834E+02  0.19286040453E+02  0.47358368482E+03  0.47496473114E+03  0.47000000000E+01 0. -1.
        -11    1    4    4    0    0  0.19937900206E+02 -0.30133649452E+02  0.46176153686E+02  0.58632703018E+02  0.00000000000E+00 0.  1.
         12    1    4    4    0    0  0.29486799283E+02  0.42949847187E+02  0.16320068283E+03  0.17131439981E+03  0.00000000000E+00 0. -1.
         -5    1    5    5    0  502 -0.36572142437E+01 -0.83076826766E+02  0.23254618511E+03  0.24701204944E+03  0.47000000000E+01 0.  1.
         11    1    6    6    0    0 -0.39309425030E+02  0.19751898946E+02  0.57181605949E+02  0.72146409939E+02  0.00000000000E+00 0. -1.
        -12    1    6    6    0    0  0.23806571619E+02  0.31222689633E+02  0.13453011668E+03  0.14014264695E+03  0.00000000000E+00 0.  1.
</event>
<event>
12    1  0.8226261E-002  0.2030508E+03  0.7818608E-02  0.1149687E+00
         21   -1    0    0  501  502  0.00000000000E+00  0.00000000000E+00  0.71222959954E+03  0.71222959954E+03  0.00000000000E+00 0. -1.
         21   -1    0    0  502  503 -0.00000000000E+00 -0.00000000000E+00 -0.71218379731E+02  0.71218379731E+02  0.00000000000E+00 0.  1.
         -6    2    1    2    0  503 -0.78476914199E+02  0.23959035742E+02  0.12406798611E+03  0.22805627460E+03  0.17287029169E+03 0.  0.
        -24    2    3    3    0    0 -0.10045305235E+03  0.12920244558E+02  0.14593848497E+03  0.19481151141E+03  0.79973340171E+02 0.  0.
          6    2    1    2  501    0  0.78476914199E+02 -0.23959035742E+02  0.51694323370E+03  0.55539170467E+03  0.18573361919E+03 0.  0.
         24    2    5    5    0    0  0.50291766104E+02  0.33938491931E+02  0.45423564779E+03  0.46538694028E+03  0.81079575009E+02 0.  0.
          5    1    5    5  501    0  0.28185148094E+02 -0.57897527673E+02  0.62707585907E+02  0.90004764396E+02  0.47000000000E+01 0. -1.
        -11    1    6    6    0    0  0.23149619139E+02  0.53996679666E+01  0.25557647799E+02  0.34903504716E+02  0.00000000000E+00 0.  1.
         12    1    6    6    0    0  0.27142146965E+02  0.28538823964E+02  0.42867799999E+03  0.43048343556E+03  0.00000000000E+00 0. -1.
         -5    1    3    3    0  503  0.21976138151E+02  0.11038791183E+02 -0.21870498859E+02  0.33244763184E+02  0.47000000000E+01 0.  1.
         13    1    4    4    0    0 -0.58882358337E+02  0.22265741758E+02  0.13770940781E+03  0.15141590531E+03  0.00000000000E+00 0. -1.
        -14    1    4    4    0    0 -0.41570694013E+02 -0.93454971994E+01  0.82290771569E+01  0.43395606108E+02  0.00000000000E+00 0.  1.
</event>
<event>
12    1  0.8226261E-002  0.2646141E+03  0.7818608E-02  0.1104409E+00
         21   -1    0    0  503  502  0.00000000000E+00  0.00000000000E+00  0.66039444358E+02  0.66039444358E+02  0.00000000000E+00 0. -1.
         21   -1    0    0  501  503 -0.00000000000E+00 -0.00000000000E+00 -0.10620873851E+04  0.10620873851E+04  0.00000000000E+00 0.  1.
          6    2    1    2  501    0 -0.16601029331E+03  0.11439399849E+03 -0.52242430723E+03  0.58559575947E+03  0.17131792768E+03 0.  0.
         24    2    3    3    0    0 -0.14000476827E+03  0.25217667301E+02 -0.25656908287E+03  0.30394030382E+03  0.79465389442E+02 0.  0.
         -6    2    1    2    0  502  0.16601029331E+03 -0.11439399849E+03 -0.47362363346E+03  0.54253106994E+03  0.17139198144E+03 0.  0.
        -24    2    5    5    0    0  0.11149469839E+03 -0.10756023339E+03 -0.20960636369E+03  0.27281666696E+03  0.80584331582E+02 0.  0.
          5    1    3    3  501    0 -0.26005525046E+02  0.89176331190E+02 -0.26585522437E+03  0.28165545566E+03  0.47000000000E+01 0. -1.
        -11    1    4    4    0    0 -0.10675708442E+03  0.46200799663E+02 -0.22584972490E+03  0.25404662407E+03  0.00000000000E+00 0.  1.
         12    1    4    4    0    0 -0.33247683846E+02 -0.20983132361E+02 -0.30719357967E+02  0.49893679748E+02  0.00000000000E+00 0. -1.
         -5    1    5    5    0  502  0.54515594917E+02 -0.68337650982E+01 -0.26401726977E+03  0.26971440298E+03  0.47000000000E+01 0.  1.
         11    1    6    6    0    0  0.84119079675E+02 -0.80789517743E+02 -0.20277199219E+03  0.23392188132E+03  0.00000000000E+00 0. -1.
        -12    1    6    6    0    0  0.27375618719E+02 -0.26770715650E+02 -0.68343714991E+01  0.38894785646E+02  0.00000000000E+00 0.  1.
</event>
<event>
12    1  0.8226261E-002  0.3123206E+03  0.7818608E-02  0.1079267E+00
         21   -1    0    0  501  502  0.00000000000E+00  0.00000000000E+00  0.60795110768E+03  0.60795110768E+03  0.00000000000E+00 0.  1.
         21   -1    0    0  502  503 -0.00000000000E+00 -0.00000000000E+00 -0.17207046934E+03  0.17207046934E+03  0.00000000000E+00 0. -1.
         -6    2    1    2    0  503  0.27589157764E+02 -0.26064284134E+03  0.31991550791E+03  0.44709066138E+03  0.16984779929E+03 0.  0.
        -24    2    3    3    0    0  0.80452743762E+02 -0.11346494830E+03  0.17781297100E+03  0.23573524527E+03  0.67872783452E+02 0.  0.
          6    2    1    2  501    0 -0.27589157764E+02  0.26064284134E+03  0.11596513043E+03  0.33293091563E+03  0.16940847304E+03 0.  0.
         24    2    5    5    0    0 -0.40502339107E+02  0.19952068397E+03  0.14671088988E+03  0.26314509975E+03  0.79197951396E+02 0.  0.
          5    1    5    5  501    0  0.12913181343E+02  0.61122157369E+02 -0.30745759456E+02  0.69785815882E+02  0.47000000000E+01 0. -1.
        -11    1    6    6    0    0 -0.29231255734E+01  0.67363924793E+01  0.37902411080E+02  0.38607206742E+02  0.00000000000E+00 0.  1.
         12    1    6    6    0    0 -0.37579213534E+02  0.19278429149E+03  0.10880847880E+03  0.22453789300E+03  0.00000000000E+00 0. -1.
         -5    1    3    3    0  503 -0.52863585998E+02 -0.14717789304E+03  0.14210253691E+03  0.21135541612E+03  0.47000000000E+01 0.  1.
         13    1    4    4    0    0  0.31599160518E+02 -0.28764106750E+01  0.54362167130E+02  0.62944625655E+02  0.00000000000E+00 0. -1.
        -14    1    4    4    0    0  0.48853583244E+02 -0.11058853762E+03  0.12345080387E+03  0.17279061961E+03  0.00000000000E+00 0.  1.
</event>
<event>
12    1  0.8226261E-002  0.1817593E+03  0.7818608E-02  0.1166150E+00
         21   -1    0    0  503  502  0.00000000000E+00  0.00000000000E+00  0.21939551509E+03  0.21939551509E+03  0.00000000000E+00 0. -1.
         21   -1    0    0  501  503 -0.00000000000E+00 -0.00000000000E+00 -0.34165012978E+03  0.34165012978E+03  0.00000000000E+00 0. -1.
          6    2    1    2  501    0 -0.33649046544E+02 -0.46068996726E+02 -0.27099908586E+03  0.32630802943E+03  0.17257408479E+03 0.  0.
         24    2    3    3    0    0 -0.45693708242E+02 -0.44699657667E+02 -0.28738458872E+03  0.30539096298E+03  0.81165042155E+02 0.  0.
         -6    2    1    2    0  502  0.33649046544E+02  0.46068996726E+02  0.14874447117E+03  0.23473761545E+03  0.17240133297E+03 0.  0.
        -24    2    5    5    0    0 -0.47064023418E+02  0.15715772961E+02  0.96778981736E+02  0.13394862821E+03  0.78192428498E+02 0.  0.
          5    1    3    3  501    0  0.12044661698E+02 -0.13693390585E+01  0.16385502860E+02  0.20917066449E+02  0.47000000000E+01 0. -1.
        -13    1    4    4    0    0 -0.43050711920E+01 -0.41741955380E+02 -0.54214369139E+02  0.68557437949E+02  0.00000000000E+00 0.  1.
         14    1    4    4    0    0 -0.41388637050E+02 -0.29577022868E+01 -0.23317021958E+03  0.23683352503E+03  0.00000000000E+00 0. -1.
         -5    1    5    5    0  502  0.80713069962E+02  0.30353223764E+02  0.51965489434E+02  0.10078898723E+03  0.47000000000E+01 0.  1.
         11    1    6    6    0    0 -0.39245497475E+01 -0.29284559811E+02  0.23579747704E+02  0.37802011003E+02  0.00000000000E+00 0. -1.
        -12    1    6    6    0    0 -0.43139473670E+02  0.45000332773E+02  0.73199234032E+02  0.96146617211E+02  0.00000000000E+00 0.  1.
</event>
<event>
12    1  0.8226261E-002  0.3987198E+03  0.7818608E-02  0.1044422E+00
         21   -1    0    0  501  502  0.00000000000E+00  0.00000000000E+00  0.10408461461E+04  0.10408461461E+04  0.00000000000E+00 0. -1.
         21   -1    0    0  502  503 -0.00000000000E+00 -0.00000000000E+00 -0.17681346370E+04  0.17681346370E+04  0.00000000000E+00 0.  1.
         -6    2    1    2    0  503 -0.21673133015E+03  0.28345005195E+03 -0.17065524366E+04  0.17525120994E+04  0.17793548920E+03 0.  0.
        -24    2    3    3    0    0 -0.23031538935E+03  0.22025689307E+03 -0.15179150964E+04  0.15530527349E+04  0.79676093277E+02 0.  0.
          6    2    1    2  501    0  0.21673133015E+03 -0.28345005195E+03  0.97926394577E+03  0.10564686836E+04  0.17277674206E+03 0.  0.
         24    2    5    5    0    0  0.16305271073E+03 -0.14080714659E+03  0.44791546913E+03  0.50367424964E+03  0.81526948031E+02 0.  0.
          5    1    5    5  501    0  0.53678619427E+02 -0.14264290536E+03  0.53134847664E+03  0.55279443399E+03  0.47000000000E+01 0. -1.
        -11    1    6    6    0    0  0.34055638569E+02 -0.27593461272E+02  0.33638772739E+02  0.55251720830E+02  0.00000000000E+00 0.  1.
         12    1    6    6    0    0  0.12899707216E+03 -0.11321368532E+03  0.41427669639E+03  0.44842252881E+03  0.00000000000E+00 0. -1.
         -5    1    3    3    0  503  0.13584059201E+02  0.63193158881E+02 -0.18863734018E+03  0.19945936455E+03  0.47000000000E+01 0.  1.
         13    1    4    4    0    0 -0.62829557023E+02  0.95254325902E+02 -0.40920159446E+03  0.42481394133E+03  0.00000000000E+00 0. -1.
        -14    1    4    4    0    0 -0.16748583233E+03  0.12500256716E+03 -0.11087135020E+04  0.11282387936E+04  0.00000000000E+00 0.  1.
</event>
<event>
12    1  0.8226261E-002  0.1998272E+03  0.7818608E-02  0.1150013E+00
         21   -1    0    0  503  502  0.00000000000E+00  0.00000000000E+00  0.44844877118E+02  0.44844877118E+02  0.00000000000E+00 0.  1.
         21   -1    0    0  501  503 -0.00000000000E+00 -0.00000000000E+00 -0.12124700196E+04  0.12124700196E+04  0.00000000000E+00 0.  1.
          6    2    1    2  501    0  0.79494387394E+02 -0.61224653369E+02 -0.90851471384E+03  0.93010068642E+03  0.17210603070E+03 0.  0.
         24    2    3    3    0    0  0.10005408780E+03 -0.94329274320E+02 -0.70366751510E+03  0.72152676177E+03  0.80895387214E+02 0.  0.
         -6    2    1    2    0  502 -0.79494387394E+02  0.61224653369E+02 -0.25911042867E+03  0.32721421033E+03  0.17280945978E+03 0.  0.
        -24    2    5    5    0    0 -0.10724446792E+03  0.11563806223E+02 -0.21957388354E+03  0.25777722372E+03  0.81248441361E+02 0.  0.
          5    1    3    3  501    0 -0.20559700402E+02  0.33104620951E+02 -0.20484719875E+03  0.20857392465E+03  0.47000000000E+01 0. -1.
        -13    1    4    4    0    0  0.92065310170E+02 -0.39511528637E+02 -0.52479713901E+03  0.53427447941E+03  0.00000000000E+00 0.  1.
         14    1    4    4    0    0  0.79887776263E+01 -0.54817745683E+02 -0.17887037608E+03  0.18725228236E+03  0.00000000000E+00 0. -1.
         -5    1    5    5    0  502  0.27750080525E+02  0.49660847146E+02 -0.39536545135E+02  0.69436986611E+02  0.47000000000E+01 0.  1.
         11    1    6    6    0    0 -0.11012185753E+02 -0.46502935909E+01 -0.11159519509E+03  0.11223360029E+03  0.00000000000E+00 0. -1.
        -12    1    6    6    0    0 -0.96232282167E+02  0.16214099814E+02 -0.10797868844E+03  0.14554362343E+03  0.00000000000E+00 0.  1.
</event>
<event>
12    1  0.8226261E-002  0.1742740E+03  0.7818608E-02  0.1174583E+00
         21   -1    0    0  503  502  0.00000000000E+00  0.00000000000E+00  0.21038707429E+03  0.21038707429E+03  0.00000000000E+00 0. -1.
         21   -1    0    0  501  503 -0.00000000000E+00 -0.00000000000E+00 -0.22650881656E+03  0.22650881656E+03  0.00000000000E+00 0. -1.
          6    2    1    2  501    0 -0.20887424720E+02  0.55082308503E+01 -0.14252882706E+03  0.22513526988E+03  0.17293003811E+03 0.  0.
         24    2    3    3    0    0 -0.14031872992E+02 -0.55567067080E+02 -0.42749875402E+02  0.10785304701E+03  0.80747355982E+02 0.  0.
         -6    2    1    2    0  502  0.20887424720E+02 -0.55082308503E+01  0.12640708480E+03  0.21176062098E+03  0.16851464147E+03 0.  0.
        -24    2    5    5    0    0 -0.88487370936E+01  0.58660868246E+02  0.67542992712E+02  0.11962493877E+03  0.78921939282E+02 0.  0.
          5    1    3    3  501    0 -0.68555517277E+01  0.61075297930E+02 -0.99778951660E+02  0.11728222287E+03  0.47000000000E+01 0. -1.
        -11    1    4    4    0    0  0.61759793229E+01 -0.31493997169E+02  0.19898866153E+02  0.37762143113E+02  0.00000000000E+00 0.  1.
         12    1    4    4    0    0 -0.20207852315E+02 -0.24073069911E+02 -0.62648741555E+02  0.70090903893E+02  0.00000000000E+00 0. -1.
         -5    1    5    5    0  502  0.29736161814E+02 -0.64169099096E+02  0.58864092087E+02  0.92135682205E+02  0.47000000000E+01 0.  1.
         13    1    6    6    0    0 -0.33576708946E+01 -0.16443559578E+02 -0.22724018705E+01  0.16936009439E+02  0.00000000000E+00 0. -1.
        -14    1    6    6    0    0 -0.54910661990E+01  0.75104427824E+02  0.69815394583E+02  0.10268892933E+03  0.00000000000E+00 0.  1.
</event>
<event>
12    1  0.8226261E-002  0.2749804E+03  0.7818608E-02  0.1098465E+00
         21   -1    0    0  503  502  0.00000000000E+00  0.00000000000E+00  0.25295408208E+03  0.25295408208E+03  0.00000000000E+00 0.  1.
         21   -1    0    0  501  503 -0.00000000000E+00 -0.00000000000E+00 -0.50392848069E+03  0.50392848069E+03  0.00000000000E+00 0. -1.
          6    2    1    2  501    0 -0.16106063203E+03  0.14179839973E+03 -0.36687917737E+03  0.45849159650E+03  0.17195028327E+03 0.  0.
         24    2    3    3    0    0 -0.13825622825E+03  0.17052557921E+03 -0.33961960892E+03  0.41255179084E+03  0.81631755732E+02 0.  0.
         -6    2    1    2    0  502  0.16106063203E+03 -0.14179839973E+03  0.11590477876E+03  0.29839096626E+03  0.17191840406E+03 0.  0.
        -24    2    5    5    0    0  0.65113628485E+02 -0.55462560945E+02  0.12645647371E+03  0.16880264575E+03  0.72022310351E+02 0.  0.
          5    1    3    3  501    0 -0.22804403774E+02 -0.28727179479E+02 -0.27259568452E+02  0.45939805664E+02  0.47000000000E+01 0. -1.
        -13    1    4    4    0    0 -0.12989121985E+03  0.11706687628E+03 -0.29259602442E+03  0.34086480608E+03  0.00000000000E+00 0.  1.
         14    1    4    4    0    0 -0.83650084025E+01  0.53458702930E+02 -0.47023584501E+02  0.71686984759E+02  0.00000000000E+00 0. -1.
         -5    1    5    5    0  502  0.95947003543E+02 -0.86335838782E+02 -0.10551694946E+02  0.12958832051E+03  0.47000000000E+01 0.  1.
         11    1    6    6    0    0  0.30505353713E+01 -0.18626688410E+02 -0.43840096107E+01  0.19377276058E+02  0.00000000000E+00 0. -1.
        -12    1    6    6    0    0  0.62063093114E+02 -0.36835872535E+02  0.13084048332E+03  0.14942536969E+03  0.00000000000E+00 0.  1.
</event>
<event>
12    1  0.8226261E-002  0.1981549E+03  0.7818608E-02  0.1152725E+00
         21   -1    0    0  501  502  0.00000000000E+00  0.00000000000E+00  0.63489462164E+02  0.63489462164E+02  0.00000000000E+00 0. -1.
         21   -1    0    0  502  503 -0.00000000000E+00 -0.00000000000E+00 -0.65971898322E+03  0.65971898322E+03  0.00000000000E+00 0. -1.
         -6    2    1    2    0  503  0.71759287388E+02 -0.41708057242E+02 -0.40395868309E+03  0.44710440801E+03  0.17271588419E+03 0.  0.
        -24    2    3    3    0    0  0.69758633627E+02 -0.85632165495E+02 -0.22982303989E+03  0.26744182946E+03  0.80668257351E+02 0.  0.
          6    2    1    2  501    0 -0.71759287388E+02  0.41708057242E+02 -0.19227083797E+03  0.27610403737E+03  0.17993445183E+03 0.  0.
         24    2    5    5    0    0  0.35952199557E+02  0.17365028190E+02 -0.95454859547E+02  0.12916945615E+03  0.77324079903E+02 0.  0.
          5    1    5    5  501    0 -0.10771148694E+03  0.24343029052E+02 -0.96815978419E+02  0.14693458123E+03  0.47000000000E+01 0. -1.
        -13    1    6    6    0    0  0.45861559089E+01 -0.20711809478E+02  0.56186585450E+00  0.21220922956E+02  0.00000000000E+00 0.  1.
         14    1    6    6    0    0  0.31366043648E+02  0.38076837668E+02 -0.96016725401E+02  0.10794853319E+03  0.00000000000E+00 0. -1.
         -5    1    3    3    0  503  0.20006537612E+01  0.43924108253E+02 -0.17413564320E+03  0.17966257856E+03  0.47000000000E+01 0.  1.
         11    1    4    4    0    0  0.23507881048E+02 -0.17143495197E+02 -0.14911600718E+03  0.15192795495E+03  0.00000000000E+00 0. -1.
        -12    1    4    4    0    0  0.46250752579E+02 -0.68488670298E+02 -0.80707032715E+02  0.11551387450E+03  0.00000000000E+00 0.  1.
</event>
<event>
12    1  0.8226261E-002  0.1949305E+03  0.7818608E-02  0.1154239E+00
         21   -1    0    0  501  502  0.00000000000E+00  0.00000000000E+00  0.80155219246E+03  0.80155219246E+03  0.00000000000E+00 0. -1.
         21   -1    0    0  502  503 -0.00000000000E+00 -0.00000000000E+00 -0.65020846463E+02  0.65020846463E+02  0.00000000000E+00 0. -1.
         -6    2    1    2    0  503  0.59850512855E+02 -0.65439135071E+02  0.14214442112E+03  0.24125286514E+03  0.17359016157E+03 0.  0.
        -24    2    3    3    0    0  0.46087126119E+01 -0.78167118382E+02  0.14560373381E+03  0.18426413908E+03  0.81372520076E+02 0.  0.
          6    2    1    2  501    0 -0.59850512855E+02  0.65439135071E+02  0.59438692488E+03  0.62532017379E+03  0.17281533205E+03 0.  0.
         24    2    5    5    0    0 -0.31404086637E+02 -0.11802085987E+02  0.46485761771E+03  0.47177755165E+03  0.73184339947E+02 0.  0.
          5    1    5    5  501    0 -0.28446426218E+02  0.77241221059E+02  0.12952930717E+03  0.15354262214E+03  0.47000000000E+01 0. -1.
        -11    1    6    6    0    0 -0.95569844481E+01 -0.11744824900E+02  0.14745134570E+02  0.21135180556E+02  0.00000000000E+00 0.  1.
         12    1    6    6    0    0 -0.21847102189E+02 -0.57261087824E-01  0.45011248314E+03  0.45064237110E+03  0.00000000000E+00 0. -1.
         -5    1    3    3    0  503  0.55241800243E+02  0.12727983310E+02 -0.34593126909E+01  0.56988726057E+02  0.47000000000E+01 0.  1.
         13    1    4    4    0    0  0.31547306659E+02 -0.24798205496E+02  0.19301187070E+02  0.44527737148E+02  0.00000000000E+00 0. -1.
        -14    1    4    4    0    0 -0.26938594047E+02 -0.53368912886E+02  0.12630254674E+03  0.13973640193E+03  0.00000000000E+00 0.  1.
</event>
<event>
12    1  0.8226261E-002  0.2068831E+03  0.7818608E-02  0.1144103E+00
         21   -1    0    0  503  502  0.00000000000E+00  0.00000000000E+00  0.31250374010E+03  0.31250374010E+03  0.00000000000E+00 0.  1.
         21   -1    0    0  501  503 -0.00000000000E+00 -0.00000000000E+00 -0.20821398390E+03  0.20821398390E+03  0.00000000000E+00 0.  1.
          6    2    1    2  501    0 -0.91629640202E+01  0.11562030085E+03 -0.10030160658E+03  0.22991528379E+03  0.17131436473E+03 0.  0.
         24    2    3    3    0    0 -0.39806771632E+02  0.28365445897E+02 -0.10077382588E+03  0.13731525329E+03  0.79441407434E+02 0.  0.
         -6    2    1    2    0  502  0.91629640202E+01 -0.11562030085E+03  0.20459136278E+03  0.29080244020E+03  0.17104508068E+03 0.  0.
        -24    2    5    5    0    0 -0.10007958581E+02 -0.14211439880E+03  0.19618529385E+03  0.25671118774E+03  0.84352254317E+02 0.  0.
          5    1    3    3  501    0  0.30643807612E+02  0.87254854955E+02  0.47221930292E+00  0.92600030504E+02  0.47000000000E+01 0. -1.
        -11    1    4    4    0    0 -0.64417395288E+01 -0.18418253570E+02 -0.68889618760E+02  0.71599634395E+02  0.00000000000E+00 0.  1.
         12    1    4    4    0    0 -0.33365032103E+02  0.46783699466E+02 -0.31884207118E+02  0.65715618894E+02  0.00000000000E+00 0. -1.
         -5    1    5    5    0  502  0.19170922601E+02  0.26494097946E+02  0.84060689269E+01  0.34091252458E+02  0.47000000000E+01 0.  1.
         13    1    6    6    0    0 -0.18263992346E+02  0.35431208435E+01  0.13850426361E+02  0.23193995605E+02  0.00000000000E+00 0. -1.
        -14    1    6    6    0    0  0.82560337652E+01 -0.14565751964E+03  0.18233486749E+03  0.23351719214E+03  0.00000000000E+00 0.  1.
</event>
<event>
12    1  0.8226261E-002  0.2160652E+03  0.7818608E-02  0.1136994E+00
         21   -1    0    0  503  502  0.00000000000E+00  0.00000000000E+00  0.49420563423E+03  0.49420563423E+03  0.00000000000E+00 0. -1.
         21   -1    0    0  501  503 -0.00000000000E+00 -0.00000000000E+00 -0.13848440273E+03  0.13848440273E+03  0.00000000000E+00 0.  1.
          6    2    1    2  501    0  0.23196521578E+02 -0.12674161647E+03 -0.94698391706E+00  0.21606724511E+03  0.17344348265E+03 0.  0.
         24    2    3    3    0    0 -0.45804837837E+02 -0.98798440103E+02  0.25765744502E+02  0.13683550547E+03  0.78745584203E+02 0.  0.
         -6    2    1    2    0  502 -0.23196521578E+02  0.12674161647E+03  0.35666821542E+03  0.41662279186E+03  0.17251324252E+03 0.  0.
        -24    2    5    5    0    0  0.36379978990E+02  0.28809252754E+02  0.10468633744E+03  0.13975267048E+03  0.80113068489E+02 0.  0.
          5    1    3    3  501    0  0.69001359415E+02 -0.27943176364E+02 -0.26712728419E+02  0.79231739637E+02  0.47000000000E+01 0. -1.
        -11    1    4    4    0    0 -0.35705360407E+02 -0.67880471405E+02 -0.21321496452E+02  0.79606767118E+02  0.00000000000E+00 0.  1.
         12    1    4    4    0    0 -0.10099477430E+02 -0.30917968698E+02  0.47087240954E+02  0.57228738353E+02  0.00000000000E+00 0. -1.
         -5    1    5    5    0  502 -0.59576500568E+02  0.97932363712E+02  0.25198187798E+03  0.27687012138E+03  0.47000000000E+01 0.  1.
         13    1    6    6    0    0  0.16617543462E+02 -0.21256438173E+02  0.64566846794E+01  0.27742885423E+02  0.00000000000E+00 0. -1.
        -14    1    6    6    0    0  0.19762435527E+02  0.50065690927E+02  0.98229652762E+02  0.11200978505E+03  0.00000000000E+00 0.  1.
</event>
<event>
12    1  0.8226261E-002  0.2535795E+03  0.7818608E-02  0.1111140E+00
         21   -1    0    0  501  502  0.00000000000E+00  0.00000000000E+00  0.13379961895E+03  0.13379961895E+03  0.00000000000E+00 0. -1.
         21   -1    0    0  502  503 -0.00000000000E+00 -0.00000000000E+00 -0.82792771822E+03  0.82792771822E+03  0.00000000000E+00 0.  1.
         -6    2    1    2    0  503 -0.21307831610E+02  0.18516151101E+03 -0.65913983347E+03  0.70623498784E+03  0.17194106295E+03 0.  0.
        -24    2    3    3    0    0  0.75052638879E+01  0.64640100741E+02 -0.14918362634E+03  0.18141785017E+03  0.80137446800E+02 0.  0.
          6    2    1    2  501    0  0.21307831610E+02 -0.18516151101E+03 -0.34988265802E+02  0.25549234933E+03  0.17121142770E+03 0.  0.
         24    2    5    5    0    0  0.51753715071E+02 -0.11464786451E+03 -0.76174950456E+02  0.16821371990E+03  0.81674063361E+02 0.  0.
          5    1    5    5  501    0 -0.30445883461E+02 -0.70513646500E+02  0.41186684653E+02  0.87278629430E+02  0.47000000000E+01 0. -1.
        -13    1    6    6    0    0  0.71782531445E+02 -0.67085741369E+02 -0.46735206886E+02  0.10879985330E+03  0.00000000000E+00 0.  1.
         14    1    6    6    0    0 -0.20028816374E+02 -0.47562123140E+02 -0.29439743570E+02  0.59413866600E+02  0.00000000000E+00 0. -1.
         -5    1    3    3    0  503 -0.28813095498E+02  0.12052141027E+03 -0.50995620713E+03  0.52481713767E+03  0.47000000000E+01 0.  1.
         11    1    4    4    0    0 -0.60805405114E+01  0.38009667385E+00  0.85829629499E+01  0.10525431079E+02  0.00000000000E+00 0. -1.
        -12    1    4    4    0    0  0.13585804399E+02  0.64260004067E+02 -0.15776658929E+03  0.17089241909E+03  0.00000000000E+00 0.  1.
</event>
<event>
12    1  0.8226261E-002  0.2681382E+03  0.7818608E-02  0.1102585E+00
         21   -1    0    0  501  502  0.00000000000E+00  0.00000000000E+00  0.28579729555E+03  0.28579729555E+03  0.00000000000E+00 0.  1.
         21   -1    0    0  502  503 -0.00000000000E+00 -0.00000000000E+00 -0.92142177255E+03  0.92142177255E+03  0.00000000000E+00 0. -1.
         -6    2    1    2    0  503 -0.19771080146E+03 -0.57310414755E+02 -0.83278912985E+03  0.87439481905E+03  0.16927646070E+03 0.  0.
        -24    2    3    3    0    0 -0.22072444969E+03 -0.58037519672E+02 -0.73427351675E+03  0.77311514335E+03  0.80385266673E+02 0.  0.
          6    2    1    2  501    0  0.19771080146E+03  0.57310414755E+02  0.19716465284E+03  0.33282424905E+03  0.17182559696E+03 0.  0.
         24    2    5    5    0    0  0.16667936601E+03  0.89755448719E+02  0.20090076660E+03  0.28752878834E+03  0.80458899289E+02 0.  0.
          5    1    5    5  501    0  0.31031435445E+02 -0.32445033963E+02 -0.37361137604E+01  0.45295460707E+02  0.47000000000E+01 0. -1.
        -11    1    6    6    0    0  0.86019363744E+02  0.38280446687E+02  0.44405119485E+02  0.10409869439E+03  0.00000000000E+00 0.  1.
         12    1    6    6    0    0  0.80660002271E+02  0.51475002032E+02  0.15649564712E+03  0.18343009395E+03  0.00000000000E+00 0. -1.
         -5    1    3    3    0  503  0.23013648234E+02  0.72710491605E+00 -0.98515613101E+02  0.10127967571E+03  0.47000000000E+01 0.  1.
         11    1    4    4    0    0 -0.15886948353E+03 -0.86396796121E+01 -0.42296329817E+03  0.45189833863E+03  0.00000000000E+00 0. -1.
        -12    1    4    4    0    0 -0.61854966165E+02 -0.49397840059E+02 -0.31131021858E+03  0.32121680471E+03  0.00000000000E+00 0.  1.
</event>
<event>
12    1  0.8226261E-002  0.2309728E+03  0.7818608E-02  0.1127862E+00
         21   -1    0    0  501  502  0.00000000000E+00  0.00000000000E+00  0.23622061619E+03  0.23622061619E+03  0.00000000000E+00 0. -1.
         21   -1    0    0  502  503 -0.00000000000E+00 -0.00000000000E+00 -0.17025367978E+04  0.17025367978E+04  0.00000000000E+00 0. -1.
         -6    2    1    2    0  503 -0.19208727996E+02 -0.13570250668E+03 -0.16368719427E+04  0.16516377407E+04  0.17254948352E+03 0.  0.
        -24    2    3    3    0    0 -0.26691067096E+02 -0.15161306972E+03 -0.16089099943E+04  0.16182747077E+04  0.80763382008E+02 0.  0.
          6    2    1    2  501    0  0.19208727996E+02  0.13570250668E+03  0.17055576108E+03  0.28711967326E+03  0.18591474816E+03 0.  0.
         24    2    5    5    0    0 -0.54297799627E+02  0.10312494967E+03  0.14523008343E+03  0.20269226792E+03  0.80058553898E+02 0.  0.
          5    1    5    5  501    0  0.73506527623E+02  0.32577557005E+02  0.25325677653E+02  0.84427405338E+02  0.47000000000E+01 0. -1.
        -11    1    6    6    0    0 -0.14110696850E+02 -0.82038526987E+01  0.44058918406E+02  0.46985138669E+02  0.00000000000E+00 0.  1.
         12    1    6    6    0    0 -0.40187102777E+02  0.11132880237E+03  0.10117116503E+03  0.15570712925E+03  0.00000000000E+00 0. -1.
         -5    1    3    3    0  503  0.74823391004E+01  0.15910563035E+02 -0.27961948417E+02  0.33363033042E+02  0.47000000000E+01 0.  1.
         13    1    4    4    0    0  0.89970785680E+01 -0.94287428838E+02 -0.63482068232E+03  0.64184761849E+03  0.00000000000E+00 0. -1.
        -14    1    4    4    0    0 -0.35688145664E+02 -0.57325640877E+02 -0.97408931198E+03  0.97642708922E+03  0.00000000000E+00 0.  1.
</event>
<event>
12    1  0.8226261E-002  0.1799176E+03  0.7818608E-02  0.1168324E+00
         21   -1    0    0  501  502  0.00000000000E+00  0.00000000000E+00  0.95955016229E+02  0.95955016229E+02  0.00000000000E+00 0.  1.
         21   -1    0    0  502  503 -0.00000000000E+00 -0.00000000000E+00 -0.97026700988E+03  0.97026700988E+03  0.00000000000E+00 0.  1.
         -6    2    1    2    0  503  0.26355552510E+02  0.42545494202E+02 -0.86963751449E+03  0.88805390648E+03  0.17281666578E+03 0.  0.
        -24    2    3    3    0    0  0.21155375625E+02  0.95431705174E+02 -0.63882622850E+03  0.65115744620E+03  0.79701375458E+02 0.  0.
          6    2    1    2  501    0 -0.26355552510E+02 -0.42545494202E+02 -0.46744791567E+01  0.17816811963E+03  0.17093066978E+03 0.  0.
         24    2    5    5    0    0 -0.16465522182E+02 -0.90218224747E+02  0.19580640230E+02  0.12357047542E+03  0.80472476198E+02 0.  0.
          5    1    5    5  501    0 -0.98900303277E+01  0.47672730544E+02 -0.24255119386E+02  0.54597644216E+02  0.47000000000E+01 0. -1.
        -11    1    6    6    0    0  0.23269574559E+02 -0.51581959492E+02 -0.14618966408E+02  0.58445580021E+02  0.00000000000E+00 0.  1.
         12    1    6    6    0    0 -0.39735096742E+02 -0.38636265254E+02  0.34199606638E+02  0.65124895394E+02  0.00000000000E+00 0. -1.
         -5    1    3    3    0  503  0.52001768853E+01 -0.52886210972E+02 -0.23081128600E+03  0.23689646028E+03  0.47000000000E+01 0.  1.
         11    1    4    4    0    0  0.43999383351E+02  0.41455941488E+02 -0.21642957247E+03  0.22471381947E+03  0.00000000000E+00 0. -1.
        -12    1    4    4    0    0 -0.22844007726E+02  0.53975763686E+02 -0.42239665603E+03  0.42644362673E+03  0.00000000000E+00 0.  1.
</event>
<event>
12    1  0.8226261E-002  0.1789554E+03  0.7818608E-02  0.1170215E+00
         21   -1    0    0  501  502  0.00000000000E+00  0.00000000000E+00  0.94284726409E+02  0.94284726409E+02  0.00000000000E+00 0. -1.
         21   -1    0    0  502  503 -0.00000000000E+00 -0.00000000000E+00 -0.32970480192E+03  0.32970480192E+03  0.00000000000E+00 0. -1.
         -6    2    1    2    0  503  0.14864855726E+02 -0.49534815249E+02 -0.12898503015E+03  0.22059502856E+03  0.17131948741E+03 0.  0.
        -24    2    3    3    0    0 -0.26132685853E+01  0.36720816894E+02 -0.47425339077E+02  0.10051342250E+03  0.80613508489E+02 0.  0.
          6    2    1    2  501    0 -0.14864855726E+02  0.49534815249E+02 -0.10643504536E+03  0.20339449976E+03  0.16542745176E+03 0.  0.
         24    2    5    5    0    0  0.45034506433E+02  0.18858474731E+02 -0.27386395276E+02  0.99472651556E+02  0.82225573410E+02 0.  0.
          5    1    5    5  501    0 -0.59899362158E+02  0.30676340519E+02 -0.79048650085E+02  0.10392184821E+03  0.47000000000E+01 0. -1.
        -13    1    6    6    0    0  0.43802612664E+02  0.94280732075E+01 -0.54608270870E+02  0.70637247172E+02  0.00000000000E+00 0.  1.
         14    1    6    6    0    0  0.12318937690E+01  0.94304015232E+01  0.27221875594E+02  0.28835404384E+02  0.00000000000E+00 0. -1.
         -5    1    3    3    0  503  0.17478124311E+02 -0.86255632144E+02 -0.81559691068E+02  0.12008160606E+03  0.47000000000E+01 0.  1.
         13    1    4    4    0    0  0.34748784225E+02  0.83771241108E+00 -0.29830057867E+02  0.45804062260E+02  0.00000000000E+00 0. -1.
        -14    1    4    4    0    0 -0.37362052810E+02  0.35883104483E+02 -0.17595281210E+02  0.54709360245E+02  0.00000000000E+00 0.  1.
</event>
<event>
12    1  0.8226261E-002  0.2766193E+03  0.7818608E-02  0.1097559E+00
         21   -1    0    0  501  502  0.00000000000E+00  0.00000000000E+00  0.78944519527E+03  0.78944519527E+03  0.00000000000E+00 0.  1.
         21   -1    0    0  502  503 -0.00000000000E+00 -0.00000000000E+00 -0.97406959710E+02  0.97406959710E+02  0.00000000000E+00 0. -1.
         -6    2    1    2    0  503  0.11947901583E+03  0.18055235888E+03  0.31419800132E+03  0.41861511355E+03  0.17217386485E+03 0.  0.
        -24    2    3    3    0    0 -0.87012621789E-01  0.96022209995E+02  0.18655587114E+03  0.22430612089E+03  0.79308703356E+02 0.  0.
          6    2    1    2  501    0 -0.11947901583E+03 -0.18055235888E+03  0.37784023424E+03  0.46823704143E+03  0.17207061002E+03 0.  0.
         24    2    5    5    0    0 -0.73675462445E+02 -0.22590606673E+02  0.16025910208E+03  0.19544862574E+03  0.81109655568E+02 0.  0.
          5    1    5    5  501    0 -0.45803553389E+02 -0.15796175221E+03  0.21758113216E+03  0.27278841569E+03  0.47000000000E+01 0. -1.
        -13    1    6    6    0    0 -0.46541425172E+02 -0.52763106666E+02  0.11349330632E+03  0.13353194473E+03  0.00000000000E+00 0.  1.
         14    1    6    6    0    0 -0.27134037274E+02  0.30172499993E+02  0.46765795759E+02  0.61916681012E+02  0.00000000000E+00 0. -1.
         -5    1    3    3    0  503  0.11956602846E+03  0.84530148888E+02  0.12764213018E+03  0.19430899266E+03  0.47000000000E+01 0.  1.
         11    1    4    4    0    0  0.31084650585E+02  0.84813052618E+02  0.14886499742E+03  0.17412724328E+03  0.00000000000E+00 0. -1.
        -12    1    4    4    0    0 -0.31171663206E+02  0.11209157377E+02  0.37690873727E+02  0.50178877613E+02  0.00000000000E+00 0.  1.
</event>
<event>
12    1  0.8226261E-002  0.1780297E+03  0.7818608E-02  0.1170095E+00
         21   -1    0    0  503  502  0.00000000000E+00  0.00000000000E+00  0.62673291152E+02  0.62673291152E+02  0.00000000000E+00 0.  1.
         21   -1    0    0  501  503 -0.00000000000E+00 -0.00000000000E+00 -0.64495186458E+03  0.64495186458E+03  0.00000000000E+00 0.  1.
          6    2    1    2  501    0 -0.33159717090E+02 -0.32910608225E+02 -0.45707392762E+03  0.48997689049E+03  0.17022955951E+03 0.  0.
         24    2    3    3    0    0 -0.39646726317E+02  0.11733986287E+01 -0.44368960817E+03  0.45249314976E+03  0.79475420142E+02 0.  0.
         -6    2    1    2    0  502  0.33159717090E+02  0.32910608225E+02 -0.12520464581E+03  0.21764826525E+03  0.17179024728E+03 0.  0.
        -24    2    5    5    0    0  0.59170821164E+02  0.19770610044E+02 -0.14690725783E+03  0.18101043704E+03  0.85387193511E+02 0.  0.
          5    1    3    3  501    0  0.64870092262E+01 -0.34084006853E+02 -0.13384319444E+02  0.37483740727E+02  0.47000000000E+01 0. -1.
        -13    1    4    4    0    0  0.35041640553E+01  0.17673470572E+02 -0.22724035426E+02  0.29000215755E+02  0.00000000000E+00 0.  1.
         14    1    4    4    0    0 -0.43150890372E+02 -0.16500071943E+02 -0.42096557275E+03  0.42349293401E+03  0.00000000000E+00 0. -1.
         -5    1    5    5    0  502 -0.26011104074E+02  0.13139998180E+02  0.21702612017E+02  0.36637828207E+02  0.47000000000E+01 0.  1.
         13    1    6    6    0    0 -0.26088326934E+01  0.21142571017E+02  0.35755579753E+00  0.21305918506E+02  0.00000000000E+00 0. -1.
        -14    1    6    6    0    0  0.61779653858E+02 -0.13719609724E+01 -0.14726481363E+03  0.15970451854E+03  0.00000000000E+00 0.  1.
</event>
<event>
12    1  0.8226261E-002  0.2660428E+03  0.7818608E-02  0.1103584E+00
         21   -1    0    0  501  502  0.00000000000E+00  0.00000000000E+00  0.39414899592E+03  0.39414899592E+03  0.00000000000E+00 0. -1.
         21   -1    0    0  502  503 -0.00000000000E+00 -0.00000000000E+00 -0.26214283355E+03  0.26214283355E+03  0.00000000000E+00 0.  1.
         -6    2    1    2    0  503  0.93838685179E+02 -0.17984804516E+03 -0.11826657410E+03  0.29103133667E+03  0.17193381921E+03 0.  0.
        -24    2    3    3    0    0  0.48135386518E+02 -0.10710171209E+03  0.25708571186E+01  0.14269187709E+03  0.81034377353E+02 0.  0.
          6    2    1    2  501    0 -0.93838685179E+02  0.17984804516E+03  0.25027273647E+03  0.36526049280E+03  0.17212718204E+03 0.  0.
         24    2    5    5    0    0 -0.61230596669E+02  0.15480783278E+03  0.26373554349E+03  0.32174455497E+03  0.79047268724E+02 0.  0.
          5    1    5    5  501    0 -0.32608088509E+02  0.25040212382E+02 -0.13462807024E+02  0.43515937832E+02  0.47000000000E+01 0. -1.
        -13    1    6    6    0    0 -0.25160725375E+02  0.66806765226E+02  0.48137331200E+02  0.86101153514E+02  0.00000000000E+00 0.  1.
         14    1    6    6    0    0 -0.36069871294E+02  0.88001067553E+02  0.21559821229E+03  0.23564340146E+03  0.00000000000E+00 0. -1.
         -5    1    3    3    0  503  0.45703298660E+02 -0.72746333075E+02 -0.12083743122E+03  0.14833945958E+03  0.47000000000E+01 0.  1.
         13    1    4    4    0    0  0.48425738009E+02 -0.11956137554E+03  0.76749960448E+01  0.12922414708E+03  0.00000000000E+00 0. -1.
        -14    1    4    4    0    0 -0.29035149081E+00  0.12459663456E+02 -0.51041389262E+01  0.13467730010E+02  0.00000000000E+00 0.  1.
</event>
<event>
12    1  0.8226261E-002  0.3095490E+03  0.7818608E-02  0.1080572E+00
         21   -1    0    0  501  502  0.00000000000E+00  0.00000000000E+00  0.18036293642E+04  0.18036293642E+04  0.00000000000E+00 0. -1.
         21   -1    0    0  502  503 -0.00000000000E+00 -0.00000000000E+00 -0.19024536552E+03  0.19024536552E+03  0.00000000000E+00 0. -1.
         -6    2    1    2    0  503 -0.11293192948E+03 -0.23096006574E+03 -0.39689440959E+02  0.31208303704E+03  0.17240764955E+03 0.  0.
        -24    2    3    3    0    0 -0.10221423762E+03 -0.23254138018E+03 -0.74863624940E+02  0.27497936212E+03  0.74066479474E+02 0.  0.
          6    2    1    2  501    0  0.11293192948E+03  0.23096006574E+03  0.16530734397E+04  0.16817916927E+04  0.17226528398E+03 0.  0.
         24    2    5    5    0    0  0.65434904171E+02  0.59612377094E+02  0.90610916484E+03  0.91394163203E+03  0.80125688512E+02 0.  0.
          5    1    5    5  501    0  0.47497025313E+02  0.17134768865E+03  0.74696427481E+03  0.76785006067E+03  0.47000000000E+01 0. -1.
        -11    1    6    6    0    0  0.11098066009E+02  0.34904793890E+01  0.51375438955E+03  0.51388609954E+03  0.00000000000E+00 0.  1.
         12    1    6    6    0    0  0.54336838161E+02  0.56121897705E+02  0.39235477529E+03  0.40005553249E+03  0.00000000000E+00 0. -1.
         -5    1    3    3    0  503 -0.10717691862E+02  0.15813144410E+01  0.35174183981E+02  0.37103674925E+02  0.47000000000E+01 0.  1.
         11    1    4    4    0    0 -0.73095469844E+01 -0.97899008132E+02 -0.13050048122E+02  0.99035089874E+02  0.00000000000E+00 0. -1.
        -12    1    4    4    0    0 -0.94904690637E+02 -0.13464237205E+03 -0.61813576818E+02  0.17594427225E+03  0.00000000000E+00 0.  1.
</event>
<event>
12    1  0.8226261E-002  0.1886452E+03  0.7818608E-02  0.1161865E+00
         21   -1    0    0  501  502  0.00000000000E+00  0.00000000000E+00  0.21067903848E+03  0.21067903848E+03  0.00000000000E+00 0. -1.
         21   -1    0    0  502  503 -0.00000000000E+00 -0.00000000000E+00 -0.26910152192E+03  0.26910152192E+03  0.00000000000E+00 0. -1.
         -6    2    1    2    0  503  0.49263226713E+02 -0.23674096840E+02 -0.18100548482E+03  0.25480590705E+03  0.17080906406E+03 0.  0.
        -24    2    3    3    0    0 -0.25865262917E+02  0.24196313610E+02 -0.71661176494E+02  0.11368845982E+03  0.80841006061E+02 0.  0.
          6    2    1    2  501    0 -0.49263226713E+02  0.23674096840E+02  0.12258300138E+03  0.22497465335E+03  0.18055379823E+03 0.  0.
         24    2    5    5    0    0  0.63366522579E+01  0.52449426754E+02  0.10924906794E+02  0.96877088037E+02  0.80465651488E+02 0.  0.
          5    1    5    5  501    0 -0.55599878971E+02 -0.28775329914E+02  0.11165809459E+03  0.12809756532E+03  0.47000000000E+01 0. -1.
        -13    1    6    6    0    0 -0.13083026731E+02  0.19126785894E+02 -0.31781467437E+02  0.39332698859E+02  0.00000000000E+00 0.  1.
         14    1    6    6    0    0  0.19419678989E+02  0.33322640861E+02  0.42706374231E+02  0.57544389179E+02  0.00000000000E+00 0. -1.
         -5    1    3    3    0  503  0.75128489629E+02 -0.47870410450E+02 -0.10934430833E+03  0.14111744724E+03  0.47000000000E+01 0.  1.
         13    1    4    4    0    0 -0.48341450888E+02  0.27965090121E+02 -0.71718757720E+02  0.90898417743E+02  0.00000000000E+00 0. -1.
        -14    1    4    4    0    0  0.22476187971E+02 -0.37687765107E+01  0.57581226143E-01  0.22790042073E+02  0.00000000000E+00 0.  1.
</event>
<event>
12    1  0.8226261E-002  0.1944096E+03  0.7818608E-02  0.1154734E+00
         21   -1    0    0  501  502  0.00000000000E+00  0.00000000000E+00  0.52879206901E+02  0.52879206901E+02  0.00000000000E+00 0.  1.
         21   -1    0    0  502  503 -0.00000000000E+00 -0.00000000000E+00 -0.91076302005E+03  0.91076302005E+03  0.00000000000E+00 0.  1.
         -6    2    1    2    0  503 -0.22907708360E+02  0.87384568298E+02 -0.65503902560E+03  0.68327974987E+03  0.17214605906E+03 0.  0.
        -24    2    3    3    0    0  0.46300843217E+02  0.80570615474E+02 -0.43735948513E+03  0.45471307272E+03  0.82736129420E+02 0.  0.
          6    2    1    2  501    0  0.22907708360E+02 -0.87384568298E+02 -0.20284478755E+03  0.28036247708E+03  0.17116157524E+03 0.  0.
         24    2    5    5    0    0  0.74095426740E+02 -0.49591755720E+02 -0.86747355193E+02  0.14788914770E+03  0.79978883941E+02 0.  0.
          5    1    5    5  501    0 -0.51187718380E+02 -0.37792812578E+02 -0.11609743236E+03  0.13247332937E+03  0.47000000000E+01 0. -1.
        -13    1    6    6    0    0  0.18775096213E+01 -0.17095609690E+01  0.14445546543E+02  0.14667019329E+02  0.00000000000E+00 0.  1.
         14    1    6    6    0    0  0.72217917119E+02 -0.47882194751E+02 -0.10119290174E+03  0.13322212838E+03  0.00000000000E+00 0. -1.
         -5    1    3    3    0  503 -0.69208551577E+02  0.68139528247E+01 -0.21767954047E+03  0.22856667715E+03  0.47000000000E+01 0.  1.
         11    1    4    4    0    0 -0.23438989844E+02  0.30812984520E+02 -0.14123477895E+03  0.14644483277E+03  0.00000000000E+00 0. -1.
        -12    1    4    4    0    0  0.69739833061E+02  0.49757630953E+02 -0.29612470617E+03  0.30826823995E+03  0.00000000000E+00 0.  1.
</event>
<event>
12    1  0.8226261E-002  0.1846130E+03  0.7818608E-02  0.1163843E+00
         21   -1    0    0  501  502  0.00000000000E+00  0.00000000000E+00  0.14581146564E+04  0.14581146564E+04  0.00000000000E+00 0.  1.
         21   -1    0    0  502  503 -0.00000000000E+00 -0.00000000000E+00 -0.47739060706E+02  0.47739060706E+02  0.00000000000E+00 0.  1.
         -6    2    1    2    0  503 -0.24857668810E+02 -0.56228487035E+02  0.16303603061E+03  0.24492630228E+03  0.17212960181E+03 0.  0.
        -24    2    3    3    0    0 -0.43170591687E+02  0.21364380158E+02  0.12656455566E+03  0.15712952177E+03  0.79692930272E+02 0.  0.
          6    2    1    2  501    0  0.24857668810E+02  0.56228487035E+02  0.12473395651E+04  0.12609274149E+04  0.17407586959E+03 0.  0.
         24    2    5    5    0    0 -0.16863348140E+02  0.94915235968E+02  0.80363781688E+03  0.81356778415E+03  0.82252806360E+02 0.  0.
          5    1    5    5  501    0  0.41721016950E+02 -0.38686748933E+02  0.44370174823E+03  0.44735963070E+03  0.47000000000E+01 0. -1.
        -13    1    6    6    0    0  0.19694553216E+02  0.83823019901E+02  0.47765574463E+03  0.48535469965E+03  0.00000000000E+00 0.  1.
         14    1    6    6    0    0 -0.36557901357E+02  0.11092216067E+02  0.32598207225E+03  0.32821308450E+03  0.00000000000E+00 0. -1.
         -5    1    3    3    0  503  0.18312922878E+02 -0.77592867193E+02  0.36471474946E+02  0.87796780513E+02  0.47000000000E+01 0.  1.
         11    1    4    4    0    0  0.32531783277E+01  0.13186473928E+01  0.99902771863E+02  0.99964422802E+02  0.00000000000E+00 0. -1.
        -12    1    4    4    0    0 -0.46423770015E+02  0.20045732766E+02  0.26661783797E+02  0.57165098966E+02  0.00000000000E+00 0.  1.
</event>
<event>
12    1  0.8226261E-002  0.2777677E+03  0.7818608E-02  0.1097361E+00
         21   -1    0    0  501  502  0.00000000000E+00  0.00000000000E+00  0.19045911188E+03  0.19045911188E+03  0.00000000000E+00 0.  1.
         21   -1    0    0  502  503 -0.00000000000E+00 -0.00000000000E+00 -0.52617212394E+03  0.52617212394E+03  0.00000000000E+00 0.  1.
         -6    2    1    2    0  503 -0.20664039057E+03 -0.44476905362E+02 -0.34227973439E+03  0.43878593692E+03  0.17521197373E+03 0.  0.
        -24    2    3    3    0    0 -0.19606370561E+03 -0.49169006583E+02 -0.19922718815E+03  0.29518926890E+03  0.81158265837E+02 0.  0.
          6    2    1    2  501    0  0.20664039057E+03  0.44476905362E+02  0.65667223312E+01  0.27784529890E+03  0.18021221421E+03 0.  0.
         24    2    5    5    0    0  0.21473365316E+03  0.38449280000E+02  0.44545448364E+02  0.23826870483E+03  0.84845682259E+02 0.  0.
          5    1    5    5  501    0 -0.80932625936E+01  0.60276253626E+01 -0.37978726032E+02  0.39576594067E+02  0.47000000000E+01 0. -1.
        -11    1    6    6    0    0  0.12257506822E+03  0.24810433541E+02 -0.17582250844E+02  0.12629069842E+03  0.00000000000E+00 0.  1.
         12    1    6    6    0    0  0.92158584939E+02  0.13638846458E+02  0.62127699207E+02  0.11197800641E+03  0.00000000000E+00 0. -1.
         -5    1    3    3    0  503 -0.10576684962E+02  0.46921012206E+01 -0.14305254625E+03  0.14359666802E+03  0.47000000000E+01 0.  1.
         13    1    4    4    0    0 -0.69298395199E+02 -0.47007444243E+02 -0.43448949051E+02  0.94338637711E+02  0.00000000000E+00 0. -1.
        -14    1    4    4    0    0 -0.12676531041E+03 -0.21615623402E+01 -0.15577823910E+03  0.20085063119E+03  0.00000000000E+00 0.  1.
</event>
<event>
12    1  0.8226261E-002  0.2463595E+03  0.7818608E-02  0.1115767E+00
         21   -1    0    0  503  502  0.00000000000E+00  0.00000000000E+00  0.65236962150E+03  0.65236962150E+03  0.00000000000E+00 0.  1.
         21   -1    0    0  501  503 -0.00000000000E+00 -0.00000000000E+00 -0.96248832485E+02  0.96248832485E+02  0.00000000000E+00 0.  1.
          6    2    1    2  501    0  0.10764931570E+03 -0.13846217202E+03  0.20578392896E+03  0.32033244603E+03  0.17177223964E+03 0.  0.
         24    2    3    3    0    0  0.12858222150E+03 -0.93873345690E+02  0.20403777507E+03  0.27081993214E+03  0.79789907066E+02 0.  0.
         -6    2    1    2    0  502 -0.10764931570E+03  0.13846217202E+03  0.35033686006E+03  0.42828600795E+03  0.17301110034E+03 0.  0.
        -24    2    5    5    0    0 -0.19400155889E+02  0.11813557802E+03  0.27309360317E+03  0.30916550021E+03  0.81675024226E+02 0.  0.
          5    1    3    3  501    0 -0.20932905795E+02 -0.44588826334E+02  0.17461538839E+01  0.49512513895E+02  0.47000000000E+01 0. -1.
        -11    1    4    4    0    0  0.17451449667E+02 -0.46958937940E+02  0.98644279018E+02  0.11063629030E+03  0.00000000000E+00 0.  1.
         12    1    4    4    0    0  0.11113077183E+03 -0.46914407750E+02  0.10539349606E+03  0.16018364184E+03  0.00000000000E+00 0. -1.
         -5    1    5    5    0  502 -0.88249159812E+02  0.20326594008E+02  0.77243256881E+02  0.11912050774E+03  0.47000000000E+01 0.  1.
         13    1    6    6    0    0 -0.10437497578E+02  0.88923140183E+02  0.10354843112E+03  0.13688880087E+03  0.00000000000E+00 0. -1.
        -14    1    6    6    0    0 -0.89626583109E+01  0.29212437833E+02  0.16954517206E+03  0.17227669934E+03  0.00000000000E+00 0.  1.
</event>
<event>
12    1  0.8226261E-002  0.2273283E+03  0.7818608E-02  0.1128748E+00
         21   -1    0    0  503  502  0.00000000000E+00  0.00000000000E+00  0.12541913564E+03  0.12541913564E+03  0.00000000000E+00 0. -1.
         21   -1    0    0  501  503 -0.00000000000E+00 -0.00000000000E+00 -0.63374994622E+03  0.63374994622E+03  0.00000000000E+00 0.  1.
          6    2    1    2  501    0 -0.96608290979E+02  0.11240714566E+03 -0.47933465582E+03  0.52999893983E+03  0.17078827729E+03 0.  0.
         24    2    3    3    0    0 -0.93982919308E+01  0.82645327482E+02 -0.36495310197E+03  0.38304119210E+03  0.81309348539E+02 0.  0.
         -6    2    1    2    0  502  0.96608290979E+02 -0.11240714566E+03 -0.28996154756E+02  0.22917014203E+03  0.17236487091E+03 0.  0.
        -24    2    5    5    0    0 -0.86296014198E+00 -0.39698438826E+02 -0.41564579319E+02  0.10682940416E+03  0.90045525121E+02 0.  0.
          5    1    3    3  501    0 -0.87209999048E+02  0.29761818181E+02 -0.11438155386E+03  0.14695774773E+03  0.47000000000E+01 0. -1.
        -11    1    4    4    0    0 -0.10608941848E+02 -0.12391258504E+02 -0.10496461390E+03  0.10622458805E+03  0.00000000000E+00 0.  1.
         12    1    4    4    0    0  0.12106499176E+01  0.95036585986E+02 -0.25998848807E+03  0.27681660405E+03  0.00000000000E+00 0. -1.
         -5    1    5    5    0  502  0.97471251121E+02 -0.72708706837E+02  0.12568424563E+02  0.12234073786E+03  0.47000000000E+01 0.  1.
         11    1    6    6    0    0  0.31203635948E+02 -0.54321694355E+02 -0.31817637619E+02  0.70262902285E+02  0.00000000000E+00 0. -1.
        -12    1    6    6    0    0 -0.32066596090E+02  0.14623255529E+02 -0.97469416998E+01  0.36566501877E+02  0.00000000000E+00 0.  1.
</event>
<event>
12    1  0.8226261E-002  0.2151820E+03  0.7818608E-02  0.1137876E+00
         21   -1    0    0  503  502  0.00000000000E+00  0.00000000000E+00  0.12604339386E+03  0.12604339386E+03  0.00000000000E+00 0.  1.
         21   -1    0    0  501  503 -0.00000000000E+00 -0.00000000000E+00 -0.41179919949E+03  0.41179919949E+03  0.00000000000E+00 0. -1.
          6    2    1    2  501    0 -0.17411290131E+02 -0.12475170169E+03 -0.23370261990E+03  0.31645414794E+03  0.17222129108E+03 0.  0.
         24    2    3    3    0    0 -0.37063648088E+02 -0.16472603287E+01 -0.91228734735E+02  0.12708198364E+03  0.80316380950E+02 0.  0.
         -6    2    1    2    0  502  0.17411290131E+02  0.12475170169E+03 -0.52053185728E+02  0.22138844541E+03  0.17446251608E+03 0.  0.
        -24    2    5    5    0    0 -0.51586880995E+02  0.44151088009E+02 -0.48492147243E+02  0.11512472846E+03  0.79320173321E+02 0.  0.
          5    1    3    3  501    0  0.19652357957E+02 -0.12310444136E+03 -0.14247388516E+03  0.18937216429E+03  0.47000000000E+01 0. -1.
        -11    1    4    4    0    0 -0.18166445459E+02 -0.15406581238E+02  0.80075446177E+01  0.25129728548E+02  0.00000000000E+00 0.  1.
         12    1    4    4    0    0 -0.18897202629E+02  0.13759320909E+02 -0.99236279353E+02  0.10195225509E+03  0.00000000000E+00 0. -1.
         -5    1    5    5    0  502  0.68998171126E+02  0.80600613683E+02 -0.35610384854E+01  0.10626371695E+03  0.47000000000E+01 0.  1.
         13    1    6    6    0    0  0.18031634983E+02  0.25770572977E+01 -0.24564237899E+02  0.30580759769E+02  0.00000000000E+00 0. -1.
        -14    1    6    6    0    0 -0.69618515977E+02  0.41574030711E+02 -0.23927909343E+02  0.84543968691E+02  0.00000000000E+00 0.  1.
</event>
<event>
12    1  0.8226261E-002  0.1757772E+03  0.7818608E-02  0.1172143E+00
         21   -1    0    0  503  502  0.00000000000E+00  0.00000000000E+00  0.28294111910E+03  0.28294111910E+03  0.00000000000E+00 0. -1.
         21   -1    0    0  501  503 -0.00000000000E+00 -0.00000000000E+00 -0.14516896718E+03  0.14516896718E+03  0.00000000000E+00 0. -1.
          6    2    1    2  501    0  0.35405592547E+02  0.25859930221E+01 -0.38465352841E+02  0.17919785843E+03  0.17138274637E+03 0.  0.
         24    2    3    3    0    0  0.50163860291E+02  0.72947975188E+01  0.37762335458E+02  0.10127013698E+03  0.79120286368E+02 0.  0.
         -6    2    1    2    0  502 -0.35405592547E+02 -0.25859930221E+01  0.17623750476E+03  0.24891222785E+03  0.17215515022E+03 0.  0.
        -24    2    5    5    0    0 -0.41280493794E+01 -0.54379942914E+02  0.15904226897E+03  0.18583557539E+03  0.79159325270E+02 0.  0.
          5    1    3    3  501    0 -0.14758267744E+02 -0.47088044967E+01 -0.76227688298E+02  0.77927721447E+02  0.47000000000E+01 0. -1.
        -11    1    4    4    0    0 -0.19564212306E+02  0.81779434861E+01 -0.14741899790E+01  0.21255832116E+02  0.00000000000E+00 0.  1.
         12    1    4    4    0    0  0.69728072597E+02 -0.88314596730E+00  0.39236525437E+02  0.80014304866E+02  0.00000000000E+00 0. -1.
         -5    1    5    5    0  502 -0.31277543167E+02  0.51793949892E+02  0.17195235786E+02  0.63076652462E+02  0.47000000000E+01 0.  1.
         13    1    6    6    0    0 -0.10030702289E+02 -0.74265173402E+02  0.11677411168E+03  0.13875202387E+03  0.00000000000E+00 0. -1.
        -14    1    6    6    0    0  0.59026529098E+01  0.19885230488E+02  0.42268157293E+02  0.47083551522E+02  0.00000000000E+00 0.  1.
</event>
<event>
12    1  0.8226261E-002  0.2035602E+03  0.7818608E-02  0.1146869E+00
         21   -1    0    0  503  502  0.00000000000E+00  0.00000000000E+00  0.57379597480E+03  0.57379597480E+03  0.00000000000E+00 0.  1.
         21   -1    0    0  501  503 -0.00000000000E+00 -0.00000000000E+00 -0.72103613866E+02  0.72103613866E+02  0.00000000000E+00 0.  1.
          6    2    1    2  501    0  0.84820447971E+02  0.64512422895E+02  0.25978593411E+03  0.32974224787E+03  0.17287237306E+03 0.  0.
         24    2    3    3    0    0  0.95990711417E+02  0.66716493217E+02  0.27526312826E+03  0.30996179665E+03  0.81493671269E+02 0.  0.
         -6    2    1    2    0  502 -0.84820447971E+02 -0.64512422895E+02  0.24190642683E+03  0.31615734080E+03  0.17343697328E+03 0.  0.
        -24    2    5    5    0    0 -0.99215600556E+02 -0.71500287870E+02  0.25605199564E+03  0.29428869219E+03  0.78020403215E+02 0.  0.
          5    1    3    3  501    0 -0.11170263446E+02 -0.22040703227E+01 -0.15477194154E+02  0.19780451217E+02  0.47000000000E+01 0. -1.
        -13    1    4    4    0    0 -0.12964603906E+02  0.11120914393E+02  0.16521796823E+02  0.23763952989E+02  0.00000000000E+00 0.  1.
         14    1    4    4    0    0  0.10895531532E+03  0.55595578824E+02  0.25874133144E+03  0.28619784366E+03  0.00000000000E+00 0. -1.
         -5    1    5    5    0  502  0.14395152585E+02  0.69878649754E+01 -0.14145568817E+02  0.21868648610E+02  0.47000000000E+01 0.  1.
         13    1    6    6    0    0 -0.38690948098E+01  0.10863823340E+02  0.61008233544E+02  0.62088623051E+02  0.00000000000E+00 0. -1.
        -14    1    6    6    0    0 -0.95346505746E+02 -0.82364111210E+02  0.19504376210E+03  0.23220006914E+03  0.00000000000E+00 0.  1.
</event>
<event>
12    1  0.8226261E-002  0.1865427E+03  0.7818608E-02  0.1161769E+00
         21   -1    0    0  503  502  0.00000000000E+00  0.00000000000E+00  0.41721095032E+03  0.41721095032E+03  0.00000000000E+00 0.  1.
         21   -1    0    0  501  503 -0.00000000000E+00 -0.00000000000E+00 -0.12475028994E+03  0.12475028994E+03  0.00000000000E+00 0.  1.
          6    2    1    2  501    0 -0.58194580377E+02  0.37309972319E+02 -0.10492344434E+02  0.18618221303E+03  0.17255458249E+03 0.  0.
         24    2    3    3    0    0 -0.59031527633E+02 -0.40284382920E+02 -0.54446164087E+01  0.10827743780E+03  0.81159145672E+02 0.  0.
         -6    2    1    2    0  502  0.58194580377E+02 -0.37309972319E+02  0.30295300482E+03  0.35577902723E+03  0.17326150717E+03 0.  0.
        -24    2    5    5    0    0  0.25780472613E+00  0.23829218037E+02  0.69487736006E+02  0.10753964213E+03  0.78538723438E+02 0.  0.
          5    1    3    3  501    0  0.83694725544E+00  0.77594355239E+02 -0.50477280250E+01  0.77904775231E+02  0.47000000000E+01 0. -1.
        -13    1    4    4    0    0 -0.15608767466E+02 -0.58852110526E+02 -0.18521908158E+01  0.60914982935E+02  0.00000000000E+00 0.  1.
         14    1    4    4    0    0 -0.43422760167E+02  0.18567727606E+02 -0.35924255929E+01  0.47362454862E+02  0.00000000000E+00 0. -1.
         -5    1    5    5    0  502  0.57936775651E+02 -0.61139190356E+02  0.23346526881E+03  0.24823938510E+03  0.47000000000E+01 0.  1.
         11    1    6    6    0    0 -0.35976453723E+02  0.38809297613E+01  0.50248676140E+02  0.61921694842E+02  0.00000000000E+00 0. -1.
        -12    1    6    6    0    0  0.36234258449E+02  0.19948288276E+02  0.19239059866E+02  0.45617947291E+02  0.00000000000E+00 0.  1.
</event>
<event>
12    1  0.8226261E-002  0.1860364E+03  0.7818608E-02  0.1162273E+00
         21   -1    0    0  501  502  0.00000000000E+00  0.00000000000E+00  0.66171624491E+02  0.66171624491E+02  0.00000000000E+00 0. -1.
         21   -1    0    0  502  503 -0.00000000000E+00 -0.00000000000E+00 -0.14303415724E+04  0.14303415724E+04  0.00000000000E+00 0. -1.
         -6    2    1    2    0  503 -0.60035316093E+01 -0.67634406372E+02 -0.12782384226E+04  0.12915893730E+04  0.17233452429E+03 0.  0.
        -24    2    3    3    0    0  0.35509622867E+01 -0.11603223850E+03 -0.90463821879E+03  0.91471692674E+03  0.69718429820E+02 0.  0.
          6    2    1    2  501    0  0.60035316093E+01  0.67634406372E+02 -0.85931525350E+02  0.20492382388E+03  0.17320245733E+03 0.  0.
         24    2    5    5    0    0  0.64842232604E+02  0.31699548056E+02 -0.20348494343E+02  0.10965299554E+03  0.80002135796E+02 0.  0.
          5    1    5    5  501    0 -0.58838700995E+02  0.35934858316E+02 -0.65583031006E+02  0.95270828342E+02  0.47000000000E+01 0. -1.
        -13    1    6    6    0    0 -0.80467981194E-02 -0.22885346891E+02 -0.24201010602E+01  0.23012954096E+02  0.00000000000E+00 0.  1.
         14    1    6    6    0    0  0.64850279403E+02  0.54584894947E+02 -0.17928393283E+02  0.86640041440E+02  0.00000000000E+00 0. -1.
         -5    1    3    3    0  503 -0.95544938961E+01  0.48397832126E+02 -0.37360020380E+03  0.37687244631E+03  0.47000000000E+01 0.  1.
         13    1    4    4    0    0  0.29050292043E+02 -0.32919877781E+02 -0.20169922678E+03  0.20642242103E+03  0.00000000000E+00 0. -1.
        -14    1    4    4    0    0 -0.25499329757E+02 -0.83112360717E+02 -0.70293899201E+03  0.70829450570E+03  0.00000000000E+00 0.  1.
</event>
<event>
12    1  0.8226261E-002  0.1881405E+03  0.7818608E-02  0.1160818E+00
         21   -1    0    0  503  502  0.00000000000E+00  0.00000000000E+00  0.95881223649E+03  0.95881223649E+03  0.00000000000E+00 0.  1.
         21   -1    0    0  501  503 -0.00000000000E+00 -0.00000000000E+00 -0.10562831565E+03  0.10562831565E+03  0.00000000000E+00 0.  1.
          6    2    1    2  501    0  0.46934651827E+02 -0.59668373541E+02 -0.55664901684E+01  0.18532217745E+03  0.16896788836E+03 0.  0.
         24    2    3    3    0    0  0.31278504057E+02 -0.88438411280E+02 -0.46520398729E+02  0.13267103633E+03  0.81472443054E+02 0.  0.
         -6    2    1    2    0  502 -0.46934651827E+02  0.59668373541E+02  0.85875041101E+03  0.87911837469E+03  0.17214433472E+03 0.  0.
        -24    2    5    5    0    0 -0.15043722849E+02 -0.32863268854E+02  0.40308880658E+03  0.41304035124E+03  0.82555664419E+02 0.  0.
          5    1    3    3  501    0  0.15656147770E+02  0.28770037739E+02  0.40953908561E+02  0.52651141117E+02  0.47000000000E+01 0. -1.
        -11    1    4    4    0    0  0.30166066121E+02 -0.15974569763E+02 -0.49510409893E+02  0.60137002853E+02  0.00000000000E+00 0.  1.
         12    1    4    4    0    0  0.11124379358E+01 -0.72463841518E+02  0.29900111646E+01  0.72534033477E+02  0.00000000000E+00 0. -1.
         -5    1    5    5    0  502 -0.31890928978E+02  0.92531642395E+02  0.45566160443E+03  0.46607802346E+03  0.47000000000E+01 0.  1.
         13    1    6    6    0    0 -0.26267296172E+02 -0.48184702907E+02  0.15882015123E+03  0.16803445147E+03  0.00000000000E+00 0. -1.
        -14    1    6    6    0    0  0.11223573322E+02  0.15321434053E+02  0.24426865534E+03  0.24500589977E+03  0.00000000000E+00 0.  1.
</event>
<event>
12    1  0.8226261E-002  0.2182778E+03  0.7818608E-02  0.1135234E+00
         21   -1    0    0  503  502  0.00000000000E+00  0.00000000000E+00  0.41937373254E+03  0.41937373254E+03  0.00000000000E+00 0.  1.
         21   -1    0    0  501  503 -0.00000000000E+00 -0.00000000000E+00 -0.21745660154E+03  0.21745660154E+03  0.00000000000E+00 0.  1.
          6    2    1    2  501    0 -0.79752455410E+02 -0.10799527224E+03  0.32113793201E+03  0.38811601741E+03  0.17170043281E+03 0.  0.
         24    2    3    3    0    0 -0.51323958613E+01 -0.79849308302E+02  0.90593187428E+02  0.14412151373E+03  0.78496060970E+02 0.  0.
         -6    2    1    2    0  502  0.79752455410E+02  0.10799527224E+03 -0.11922080101E+03  0.24871431666E+03  0.17210978749E+03 0.  0.
        -24    2    5    5    0    0  0.44692811870E+02  0.12899966265E+02 -0.11404602323E+03  0.14712118624E+03  0.80462981951E+02 0.  0.
          5    1    3    3  501    0 -0.74620059548E+02 -0.28145963938E+02  0.23054474458E+03  0.24399450368E+03  0.47000000000E+01 0. -1.
        -13    1    4    4    0    0 -0.32727433291E+02 -0.29635692538E+02  0.70922181731E+02  0.83542294818E+02  0.00000000000E+00 0.  1.
         14    1    4    4    0    0  0.27595037429E+02 -0.50213615764E+02  0.19671005697E+02  0.60579218911E+02  0.00000000000E+00 0. -1.
         -5    1    5    5    0  502  0.35059643539E+02  0.95095305975E+02 -0.51747777812E+01  0.10159313042E+03  0.47000000000E+01 0.  1.
         13    1    6    6    0    0  0.43298501014E+02 -0.96525889703E+01 -0.17045185773E+02  0.47523373428E+02  0.00000000000E+00 0. -1.
        -14    1    6    6    0    0  0.13943108563E+01  0.22552555235E+02 -0.97000837455E+02  0.99597812814E+02  0.00000000000E+00 0.  1.
</event>
<event>
12    1  0.8226261E-002  0.1866095E+03  0.7818608E-02  0.1161800E+00
         21   -1    0    0  501  502  0.00000000000E+00  0.00000000000E+00  0.24007369471E+03  0.24007369471E+03  0.00000000000E+00 0. -1.
         21   -1    0    0  502  503 -0.00000000000E+00 -0.00000000000E+00 -0.21973860201E+03  0.21973860201E+03  0.00000000000E+00 0. -1.
         -6    2    1    2    0  503  0.68561777290E+02  0.14966440120E+02 -0.12458114530E+03  0.22437369212E+03  0.17291148116E+03 0.  0.
        -24    2    3    3    0    0  0.10709034679E+03  0.25327125072E+02 -0.61600080253E+02  0.14967095445E+03  0.80604088487E+02 0.  0.
          6    2    1    2  501    0 -0.68561777290E+02 -0.14966440120E+02  0.14491623800E+03  0.23543860459E+03  0.17177284087E+03 0.  0.
         24    2    5    5    0    0  0.16810918686E+02 -0.40191304308E+02  0.10202402571E+03  0.13651124302E+03  0.79551679558E+02 0.  0.
          5    1    5    5  501    0 -0.85372695976E+02  0.25224864188E+02  0.42892212294E+02  0.98927361569E+02  0.47000000000E+01 0. -1.
        -11    1    6    6    0    0  0.35763229503E+02 -0.39079585539E+02  0.27656565012E+02  0.59758749808E+02  0.00000000000E+00 0.  1.
         12    1    6    6    0    0 -0.18952310817E+02 -0.11117187685E+01  0.74367460699E+02  0.76752493215E+02  0.00000000000E+00 0. -1.
         -5    1    3    3    0  503 -0.38528569497E+02 -0.10360684952E+02 -0.62981065050E+02  0.74702737667E+02  0.47000000000E+01 0.  1.
         11    1    4    4    0    0  0.11686019717E+03  0.11588101100E+02 -0.44289368563E+02  0.12550752143E+03  0.00000000000E+00 0. -1.
        -12    1    4    4    0    0 -0.97698503789E+01  0.13739023972E+02 -0.17310711690E+02  0.24163433021E+02  0.00000000000E+00 0.  1.
</event>
<event>
12    1  0.8226261E-002  0.1816539E+03  0.7818608E-02  0.1166955E+00
         21   -1    0    0  503  502  0.00000000000E+00  0.00000000000E+00  0.60969874415E+02  0.60969874415E+02  0.00000000000E+00 0. -1.
         21   -1    0    0  501  503 -0.00000000000E+00 -0.00000000000E+00 -0.74891522955E+03  0.74891522955E+03  0.00000000000E+00 0. -1.
          6    2    1    2  501    0  0.33442065377E+02  0.32552991172E+02 -0.55976935306E+03  0.58756274382E+03  0.17236641301E+03 0.  0.
         24    2    3    3    0    0  0.22541822104E+02  0.67935758595E+02 -0.20984233396E+03  0.23565115801E+03  0.79838976132E+02 0.  0.
         -6    2    1    2    0  502 -0.33442065377E+02 -0.32552991172E+02 -0.12817600208E+03  0.22232236015E+03  0.17555647337E+03 0.  0.
        -24    2    5    5    0    0  0.29767400435E+02 -0.64264250761E-02 -0.12657105981E+03  0.15105258195E+03  0.76880109010E+02 0.  0.
          5    1    3    3  501    0  0.10900243273E+02 -0.35382767423E+02 -0.34992701909E+03  0.35191158581E+03  0.47000000000E+01 0. -1.
        -11    1    4    4    0    0  0.34702543335E+02 -0.24878518555E+00 -0.44828729202E+02  0.56691651677E+02  0.00000000000E+00 0.  1.
         12    1    4    4    0    0 -0.12160721232E+02  0.68184543780E+02 -0.16501360476E+03  0.17895950634E+03  0.00000000000E+00 0. -1.
         -5    1    5    5    0  502 -0.63209465812E+02 -0.32546564747E+02 -0.16049422686E+01  0.71269778200E+02  0.47000000000E+01 0.  1.
         13    1    6    6    0    0  0.32073848581E+02  0.20167316297E+02 -0.20544205636E+02  0.43098918717E+02  0.00000000000E+00 0. -1.
        -14    1    6    6    0    0 -0.23064481465E+01 -0.20173742722E+02 -0.10602685418E+03  0.10795366323E+03  0.00000000000E+00 0.  1.
</event>
<event>
12    1  0.8226261E-002  0.2027904E+03  0.7818608E-02  0.1147935E+00
         21   -1    0    0  503  502  0.00000000000E+00  0.00000000000E+00  0.27018125493E+03  0.27018125493E+03  0.00000000000E+00 0. -1.
         21   -1    0    0  501  503 -0.00000000000E+00 -0.00000000000E+00 -0.26494311678E+03  0.26494311678E+03  0.00000000000E+00 0.  1.
          6    2    1    2  501    0  0.37357027751E+02  0.98101164084E+02 -0.17338315082E+03  0.26488463208E+03  0.17053669812E+03 0.  0.
         24    2    3    3    0    0  0.53926231642E+02  0.13052716555E+03 -0.12871032519E+03  0.20705959046E+03  0.79761812823E+02 0.  0.
         -6    2    1    2    0  502 -0.37357027751E+02 -0.98101164084E+02  0.17862128897E+03  0.27023973963E+03  0.17350667447E+03 0.  0.
        -24    2    5    5    0    0  0.90520673499E+01 -0.76077177059E+02  0.34091847930E+02  0.11678059380E+03  0.81275926324E+02 0.  0.
          5    1    3    3  501    0 -0.16569203891E+02 -0.32426001467E+02 -0.44672825627E+02  0.57825041619E+02  0.47000000000E+01 0. -1.
        -11    1    4    4    0    0 -0.27365664950E+01  0.52453090697E+02 -0.87720966321E+02  0.10224374530E+03  0.00000000000E+00 0.  1.
         12    1    4    4    0    0  0.56662798137E+02  0.78074074855E+02 -0.40989358873E+02  0.10481584517E+03  0.00000000000E+00 0. -1.
         -5    1    5    5    0  502 -0.46409095101E+02 -0.22023987025E+02  0.14452944104E+03  0.15345914583E+03  0.47000000000E+01 0.  1.
         11    1    6    6    0    0  0.39547579659E+02 -0.53096824514E+02  0.41144981753E+02  0.77949941333E+02  0.00000000000E+00 0. -1.
        -12    1    6    6    0    0 -0.30495512310E+02 -0.22980352545E+02 -0.70531338224E+01  0.38830652465E+02  0.00000000000E+00 0.  1.
</event>
<event>
12    1  0.8226261E-002  0.2328976E+03  0.7818608E-02  0.1124648E+00
         21   -1    0    0  503  502  0.00000000000E+00  0.00000000000E+00  0.34627816774E+03  0.34627816774E+03  0.00000000000E+00 0.  1.
         21   -1    0    0  501  503 -0.00000000000E+00 -0.00000000000E+00 -0.30701125029E+03  0.30701125029E+03  0.00000000000E+00 0.  1.
          6    2    1    2  501    0 -0.15636038350E+03 -0.61660136003E+01 -0.20905656905E+03  0.31296314364E+03  0.17249548099E+03 0.  0.
         24    2    3    3    0    0 -0.75712466108E+02 -0.69162137726E+02 -0.11809253054E+03  0.17596261613E+03  0.80630128909E+02 0.  0.
         -6    2    1    2    0  502  0.15636038350E+03  0.61660136003E+01  0.24832348651E+03  0.34032627439E+03  0.17225222736E+03 0.  0.
        -24    2    5    5    0    0  0.15221525419E+03 -0.47716762878E+02  0.18834694631E+03  0.25945717601E+03  0.79981753732E+02 0.  0.
          5    1    3    3  501    0 -0.80647917395E+02  0.62996124125E+02 -0.90964038514E+02  0.13700052751E+03  0.47000000000E+01 0. -1.
        -11    1    4    4    0    0 -0.27932141220E+02 -0.12325551236E+02 -0.92524981960E+02  0.97432007129E+02  0.00000000000E+00 0.  1.
         12    1    4    4    0    0 -0.47780324888E+02 -0.56836586489E+02 -0.25567548580E+02  0.78530609004E+02  0.00000000000E+00 0. -1.
         -5    1    5    5    0  502  0.41451293135E+01  0.53882776478E+02  0.59976540197E+02  0.80869098375E+02  0.47000000000E+01 0.  1.
         13    1    6    6    0    0  0.41088480910E+02 -0.52084979866E+02  0.58059604658E+02  0.88159095301E+02  0.00000000000E+00 0. -1.
        -14    1    6    6    0    0  0.11112677328E+03  0.43682169882E+01  0.13028734166E+03  0.17129808071E+03  0.00000000000E+00 0.  1.
</event>
<event>
12    1  0.8226261E-002  0.1791347E+03  0.7818608E-02  0.1168931E+00
         21   -1    0    0  501  502  0.00000000000E+00  0.00000000000E+00  0.12219351176E+04  0.12219351176E+04  0.00000000000E+00 0. -1.
         21   -1    0    0  502  503 -0.00000000000E+00 -0.00000000000E+00 -0.26419350642E+02  0.26419350642E+02  0.00000000000E+00 0. -1.
         -6    2    1    2    0  503 -0.37168136285E+02  0.34934706429E+02  0.52986025777E+03  0.55932203826E+03  0.17171879821E+03 0.  0.
        -24    2    3    3    0    0  0.34401922860E+02  0.27083727661E+02  0.39839830821E+03  0.40936122533E+03  0.83296940048E+02 0.  0.
          6    2    1    2  501    0  0.37168136285E+02 -0.34934706429E+02  0.66565550917E+03  0.68903242996E+03  0.17048908638E+03 0.  0.
         24    2    5    5    0    0  0.37764585676E+02 -0.71607243850E+02  0.26087485326E+03  0.28256631802E+03  0.72348280654E+02 0.  0.
          5    1    5    5  501    0 -0.59644939114E+00  0.36672537421E+02  0.40478065591E+03  0.40646611194E+03  0.47000000000E+01 0. -1.
        -11    1    6    6    0    0 -0.48956452726E+01 -0.37515120319E+02  0.18648514861E+03  0.19028416184E+03  0.00000000000E+00 0.  1.
         12    1    6    6    0    0  0.42660230948E+02 -0.34092123531E+02  0.74389704649E+02  0.92282156180E+02  0.00000000000E+00 0. -1.
         -5    1    3    3    0  503 -0.71570059145E+02  0.78509787683E+01  0.13146194956E+03  0.14996081293E+03  0.47000000000E+01 0.  1.
         13    1    4    4    0    0  0.20322023519E+02 -0.29190470695E+02  0.13096438085E+03  0.13570828004E+03  0.00000000000E+00 0. -1.
        -14    1    4    4    0    0  0.14079899341E+02  0.56274198355E+02  0.26743392736E+03  0.27365294529E+03  0.00000000000E+00 0.  1.
</event>
<event>
12    1  0.8226261E-002  0.2468178E+03  0.7818608E-02  0.1115390E+00
         21   -1    0    0  501  502  0.00000000000E+00  0.00000000000E+00  0.37874774529E+03  0.37874774529E+03  0.00000000000E+00 0.  1.
         21   -1    0    0  502  503 -0.00000000000E+00 -0.00000000000E+00 -0.27206309779E+03  0.27206309779E+03  0.00000000000E+00 0. -1.
         -6    2    1    2    0  503 -0.68819253004E+02 -0.16447901717E+03 -0.15495554734E+03  0.29112398082E+03  0.17015438249E+03 0.  0.
        -24    2    3    3    0    0 -0.98772245359E+02 -0.15589919616E+03 -0.92604239942E+02  0.22126289999E+03  0.79506036507E+02 0.  0.
          6    2    1    2  501    0  0.68819253004E+02  0.16447901717E+03  0.26164019484E+03  0.35968686226E+03  0.17067398938E+03 0.  0.
         24    2    5    5    0    0  0.10786934019E+03  0.15617931332E+03  0.22659107399E+03  0.30635464625E+03  0.80510136019E+02 0.  0.
          5    1    5    5  501    0 -0.39050087181E+02  0.82997038535E+01  0.35049120849E+02  0.53332216016E+02  0.47000000000E+01 0. -1.
        -13    1    6    6    0    0  0.41891301542E+02  0.12367687214E+03  0.16502993330E+03  0.21044174665E+03  0.00000000000E+00 0.  1.
         14    1    6    6    0    0  0.65978038644E+02  0.32502441186E+02  0.61561140687E+02  0.95912899596E+02  0.00000000000E+00 0. -1.
         -5    1    3    3    0  503  0.29952992354E+02 -0.85798210153E+01 -0.62351307402E+02  0.69861080827E+02  0.47000000000E+01 0.  1.
         13    1    4    4    0    0 -0.56155287307E+02 -0.22150466714E+02 -0.32544321208E+02  0.68579824374E+02  0.00000000000E+00 0. -1.
        -14    1    4    4    0    0 -0.42616958051E+02 -0.13374872945E+03 -0.60059918735E+02  0.15268307562E+03  0.00000000000E+00 0.  1.
</event>
<event>
12    1  0.8226261E-002  0.1906057E+03  0.7818608E-02  0.1160029E+00
         21   -1    0    0  503  502  0.00000000000E+00  0.00000000000E+00  0.30451773957E+02  0.30451773957E+02  0.00000000000E+00 0.  1.
         21   -1    0    0  501  503 -0.00000000000E+00 -0.00000000000E+00 -0.12593950520E+04  0.12593950520E+04  0.00000000000E+00 0.  1.
          6    2    1    2  501    0 -0.48504803628E+01  0.57143012855E+02 -0.80232229426E+03  0.82258246108E+03  0.17213945028E+03 0.  0.
         24    2    3    3    0    0 -0.17510348911E+02  0.78927378640E+02 -0.30149515428E+03  0.32109991403E+03  0.75297299526E+02 0.  0.
         -6    2    1    2    0  502  0.48504803628E+01 -0.57143012855E+02 -0.42662098374E+03  0.46726436482E+03  0.18177368289E+03 0.  0.
        -24    2    5    5    0    0 -0.65206650561E+01 -0.53790122454E+02 -0.89471779737E+02  0.12987405586E+03  0.76981651521E+02 0.  0.
          5    1    3    3  501    0  0.12659868548E+02 -0.21784365786E+02 -0.50082713998E+03  0.50148254706E+03  0.47000000000E+01 0. -1.
        -13    1    4    4    0    0 -0.41998926751E+02  0.40581204278E+02 -0.11309928742E+03  0.12728783447E+03  0.00000000000E+00 0.  1.
         14    1    4    4    0    0  0.24488577840E+02  0.38346174362E+02 -0.18839586686E+03  0.19381207956E+03  0.00000000000E+00 0. -1.
         -5    1    5    5    0  502  0.11371145419E+02 -0.33528904005E+01 -0.33714920400E+03  0.33739030896E+03  0.47000000000E+01 0.  1.
         13    1    6    6    0    0  0.33197129102E+02 -0.21148716931E+02 -0.22143801878E+02  0.45162656809E+02  0.00000000000E+00 0. -1.
        -14    1    6    6    0    0 -0.39717794158E+02 -0.32641405524E+02 -0.67327977859E+02  0.84711399055E+02  0.00000000000E+00 0.  1.
</event>
<event>
12    1  0.8226261E-002  0.2577545E+03  0.7818608E-02  0.1108679E+00
         21   -1    0    0  501  502  0.00000000000E+00  0.00000000000E+00  0.45919723327E+03  0.45919723327E+03  0.00000000000E+00 0.  1.
         21   -1    0    0  502  503 -0.00000000000E+00 -0.00000000000E+00 -0.17364011360E+03  0.17364011360E+03  0.00000000000E+00 0.  1.
         -6    2    1    2    0  503  0.18951830406E+03 -0.22716981574E+02  0.11821840696E+02  0.25684744384E+03  0.17145729692E+03 0.  0.
        -24    2    3    3    0    0  0.16937268358E+02  0.63076171149E+01  0.12530871809E+01  0.81460928503E+02  0.79420750135E+02 0.  0.
          6    2    1    2  501    0 -0.18951830406E+03  0.22716981574E+02  0.27373527897E+03  0.37598990304E+03  0.17321707597E+03 0.  0.
         24    2    5    5    0    0 -0.10746568175E+03 -0.51648481957E+02  0.12768397441E+03  0.19264343169E+03  0.81190245761E+02 0.  0.
          5    1    5    5  501    0 -0.82052622302E+02  0.74365463531E+02  0.14605130456E+03  0.18334647135E+03  0.47000000000E+01 0. -1.
        -13    1    6    6    0    0 -0.59070976017E+02 -0.21485547666E+02  0.11951478357E+03  0.13503626349E+03  0.00000000000E+00 0.  1.
         14    1    6    6    0    0 -0.48394705738E+02 -0.30162934291E+02  0.81691908440E+01  0.57607168196E+02  0.00000000000E+00 0. -1.
         -5    1    3    3    0  503  0.17258103570E+03 -0.29024598688E+02  0.10568753515E+02  0.17538651534E+03  0.47000000000E+01 0.  1.
         11    1    4    4    0    0  0.14138083043E+02  0.27379015968E+02  0.31777755990E+02  0.44264225773E+02  0.00000000000E+00 0. -1.
        -12    1    4    4    0    0  0.27991853148E+01 -0.21071398854E+02 -0.30524668809E+02  0.37196702730E+02  0.00000000000E+00 0.  1.
</event>
<event>
12    1  0.8226261E-002  0.2155402E+03  0.7818608E-02  0.1137267E+00
         21   -1    0    0  501  502  0.00000000000E+00  0.00000000000E+00  0.22493128336E+03  0.22493128336E+03  0.00000000000E+00 0.  1.
         21   -1    0    0  502  503 -0.00000000000E+00 -0.00000000000E+00 -0.23149210412E+03  0.23149210412E+03  0.00000000000E+00 0.  1.
         -6    2    1    2    0  503  0.12982536488E+03  0.13832275465E+02 -0.78315896500E+02  0.22932716950E+03  0.17149814522E+03 0.  0.
        -24    2    3    3    0    0  0.41606879246E+01 -0.22343796385E+02 -0.48336416073E+02  0.95084186608E+02  0.78664076066E+02 0.  0.
          6    2    1    2  501    0 -0.12982536488E+03 -0.13832275465E+02  0.71755075744E+02  0.22709621798E+03  0.17139995367E+03 0.  0.
         24    2    5    5    0    0 -0.13063309459E+03 -0.11233564065E+02  0.11002135807E+03  0.18844645612E+03  0.78842686589E+02 0.  0.
          5    1    5    5  501    0  0.80772971591E+00 -0.25987113999E+01 -0.38266282331E+02  0.38649761857E+02  0.47000000000E+01 0. -1.
        -13    1    6    6    0    0 -0.46211823282E+02 -0.20741752963E+02  0.15642054363E+01  0.50677407843E+02  0.00000000000E+00 0.  1.
         14    1    6    6    0    0 -0.84421271310E+02  0.95081888983E+01  0.10845715264E+03  0.13776904828E+03  0.00000000000E+00 0. -1.
         -5    1    3    3    0  503  0.12566467695E+03  0.36176071850E+02 -0.29979480427E+02  0.13424298289E+03  0.47000000000E+01 0.  1.
         11    1    4    4    0    0  0.39691612443E+02 -0.90488543654E+01 -0.38177677317E+02  0.55810759796E+02  0.00000000000E+00 0. -1.
        -12    1    4    4    0    0 -0.35530924519E+02 -0.13294942020E+02 -0.10158738756E+02  0.39273426812E+02  0.00000000000E+00 0.  1.
</event>
<event>
12    1  0.8226261E-002  0.2281710E+03  0.7818608E-02  0.1128045E+00
         21   -1    0    0  501  502  0.00000000000E+00  0.00000000000E+00  0.10041876844E+04  0.10041876844E+04  0.00000000000E+00 0. -1.
         21   -1    0    0  502  503 -0.00000000000E+00 -0.00000000000E+00 -0.54121952446E+02  0.54121952446E+02  0.00000000000E+00 0.  1.
         -6    2    1    2    0  503  0.13098275623E+03 -0.70338102920E+02  0.36253381868E+03  0.42802734214E+03  0.17225766973E+03 0.  0.
        -24    2    3    3    0    0  0.11539011536E+03 -0.37489184416E+02  0.36319328809E+03  0.39135709813E+03  0.80812722174E+02 0.  0.
          6    2    1    2  501    0 -0.13098275623E+03  0.70338102920E+02  0.58753191326E+03  0.63028229469E+03  0.17308405689E+03 0.  0.
         24    2    5    5    0    0 -0.12386705571E+03  0.26225120605E+02  0.26353009007E+03  0.30318007851E+03  0.80244920013E+02 0.  0.
          5    1    5    5  501    0 -0.71157005151E+01  0.44112982315E+02  0.32400182319E+03  0.32710221618E+03  0.47000000000E+01 0. -1.
        -13    1    6    6    0    0 -0.10310261501E+03 -0.40095188480E+00  0.13260719272E+03  0.16797314531E+03  0.00000000000E+00 0.  1.
         14    1    6    6    0    0 -0.20764440708E+02  0.26626072490E+02  0.13092289735E+03  0.13520693319E+03  0.00000000000E+00 0. -1.
         -5    1    3    3    0  503  0.15592640865E+02 -0.32848918504E+02 -0.65946941768E+00  0.36670244012E+02  0.47000000000E+01 0.  1.
         11    1    4    4    0    0  0.96067670778E+02 -0.61025294321E+02  0.26128518271E+03  0.28499654492E+03  0.00000000000E+00 0. -1.
        -12    1    4    4    0    0  0.19322444587E+02  0.23536109904E+02  0.10190810539E+03  0.10636055320E+03  0.00000000000E+00 0.  1.
</event>
<event>
12    1  0.8226261E-002  0.1887099E+03  0.7818608E-02  0.1159759E+00
         21   -1    0    0  503  502  0.00000000000E+00  0.00000000000E+00  0.21533358697E+03  0.21533358697E+03  0.00000000000E+00 0. -1.
         21   -1    0    0  501  503 -0.00000000000E+00 -0.00000000000E+00 -0.18563250683E+03  0.18563250683E+03  0.00000000000E+00 0. -1.
          6    2    1    2  501    0 -0.76899796665E+02  0.43206008903E+01 -0.52160978851E+02  0.19578609579E+03  0.17227646755E+03 0.  0.
         24    2    3    3    0    0  0.15562218889E+02  0.32546036633E+02 -0.67008363112E+01  0.88853340739E+02  0.80923345185E+02 0.  0.
         -6    2    1    2    0  502  0.76899796665E+02 -0.43206008903E+01  0.81862058993E+02  0.20517999801E+03  0.17165427045E+03 0.  0.
        -24    2    5    5    0    0  0.88788623246E+02  0.17701690641E+01  0.11685918355E+03  0.16742644979E+03  0.80554293451E+02 0.  0.
          5    1    3    3  501    0 -0.92462015553E+02 -0.28225435743E+02 -0.45460142540E+02  0.10693275505E+03  0.47000000000E+01 0. -1.
        -11    1    4    4    0    0  0.13836999783E+01  0.23562023673E+02  0.35957247925E+02  0.43011710772E+02  0.00000000000E+00 0.  1.
         12    1    4    4    0    0  0.14178518910E+02  0.89840129603E+01 -0.42658084236E+02  0.45841629967E+02  0.00000000000E+00 0. -1.
         -5    1    5    5    0  502 -0.11888826581E+02 -0.60907699544E+01 -0.34997124555E+02  0.37753548221E+02  0.47000000000E+01 0.  1.
         11    1    6    6    0    0  0.43797397306E+02 -0.35907549639E+02  0.34559529615E+02  0.66347006105E+02  0.00000000000E+00 0. -1.
        -12    1    6    6    0    0  0.44991225940E+02  0.37677718703E+02  0.82299653934E+02  0.10107944369E+03  0.00000000000E+00 0.  1.
</event>
<event>
12    1  0.8226261E-002  0.2280112E+03  0.7818608E-02  0.1128387E+00
         21   -1    0    0  501  502  0.00000000000E+00  0.00000000000E+00  0.86547102034E+03  0.86547102034E+03  0.00000000000E+00 0.  1.
         21   -1    0    0  502  503 -0.00000000000E+00 -0.00000000000E+00 -0.84496468724E+02  0.84496468724E+02  0.00000000000E+00 0.  1.
         -6    2    1    2    0  503 -0.12426367978E+03  0.79717955337E+02  0.13366138564E+03  0.26429997808E+03  0.17376046123E+03 0.  0.
        -24    2    3    3    0    0 -0.10317489919E+03  0.11901317395E+03  0.78521680004E+02  0.19322728283E+03  0.79761727686E+02 0.  0.
          6    2    1    2  501    0  0.12426367978E+03 -0.79717955337E+02  0.64731316598E+03  0.68566751098E+03  0.17125766042E+03 0.  0.
         24    2    5    5    0    0  0.12909724750E+03 -0.10166704236E+03  0.43214689260E+03  0.46927957001E+03  0.80436877315E+02 0.  0.
          5    1    5    5  501    0 -0.48335677228E+01  0.21949087024E+02  0.21516627338E+03  0.21638794097E+03  0.47000000000E+01 0. -1.
        -13    1    6    6    0    0  0.86274386941E+02 -0.16800038762E+02  0.20694873594E+03  0.22484058898E+03  0.00000000000E+00 0.  1.
         14    1    6    6    0    0  0.42822860562E+02 -0.84867003599E+02  0.22519815666E+03  0.24443898103E+03  0.00000000000E+00 0. -1.
         -5    1    3    3    0  503 -0.21088780589E+02 -0.39295218611E+02  0.55139705631E+02  0.71072695246E+02  0.47000000000E+01 0.  1.
         11    1    4    4    0    0 -0.10343101274E+02  0.13722888168E+02  0.46047787640E+02  0.49149731944E+02  0.00000000000E+00 0. -1.
        -12    1    4    4    0    0 -0.92831797918E+02  0.10529028578E+03  0.32473892363E+02  0.14407755089E+03  0.00000000000E+00 0.  1.
</event>
<event>
12    1  0.8226261E-002  0.2998055E+03  0.7818608E-02  0.1086681E+00
         21   -1    0    0  503  502  0.00000000000E+00  0.00000000000E+00  0.36335987236E+03  0.36335987236E+03  0.00000000000E+00 0. -1.
         21   -1    0    0  501  503 -0.00000000000E+00 -0.00000000000E+00 -0.47926142335E+03  0.47926142335E+03  0.00000000000E+00 0.  1.
          6    2    1    2  501    0 -0.10011695617E+03 -0.20938190459E+03 -0.35586931265E+03  0.45860585925E+03  0.17266203859E+03 0.  0.
         24    2    3    3    0    0 -0.49041742458E+02 -0.17071578898E+03 -0.15977961971E+03  0.25226390126E+03  0.80985034981E+02 0.  0.
         -6    2    1    2    0  502  0.10011695617E+03  0.20938190459E+03  0.23996776166E+03  0.38401543646E+03  0.18978709630E+03 0.  0.
        -24    2    5    5    0    0  0.87846734144E+01  0.17858908644E+03  0.19959266086E+03  0.27941131471E+03  0.79134191319E+02 0.  0.
          5    1    3    3  501    0 -0.51075213710E+02 -0.38666115603E+02 -0.19608969294E+03  0.20634195799E+03  0.47000000000E+01 0. -1.
        -11    1    4    4    0    0 -0.22779096036E+02 -0.10121826174E+03 -0.14201423820E+03  0.17587514770E+03  0.00000000000E+00 0.  1.
         12    1    4    4    0    0 -0.26262646423E+02 -0.69497527239E+02 -0.17765381507E+02  0.76388753554E+02  0.00000000000E+00 0. -1.
         -5    1    5    5    0  502  0.91332282754E+02  0.30792818146E+02  0.40375100798E+02  0.10460412175E+03  0.47000000000E+01 0.  1.
         11    1    6    6    0    0  0.15378171336E+01  0.32821402859E+01  0.46244153620E+02  0.46385979244E+02  0.00000000000E+00 0. -1.
        -12    1    6    6    0    0  0.72468562807E+01  0.17530694615E+03  0.15334850724E+03  0.23302533547E+03  0.00000000000E+00 0.  1.
</event>
<event>
12    1  0.8226261E-002  0.1797290E+03  0.7818608E-02  0.1169196E+00
         21   -1    0    0  503  502  0.00000000000E+00  0.00000000000E+00  0.47120937914E+03  0.47120937914E+03  0.00000000000E+00 0.  1.
         21   -1    0    0  501  503 -0.00000000000E+00 -0.00000000000E+00 -0.71308006304E+02  0.71308006304E+02  0.00000000000E+00 0.  1.
          6    2    1    2  501    0  0.43113349825E+02  0.31416465594E+02  0.12940294035E+03  0.21775295910E+03  0.16680969690E+03 0.  0.
         24    2    3    3    0    0  0.70527930337E+02  0.35718871822E+02  0.14703416248E+03  0.18454121543E+03  0.78653598091E+02 0.  0.
         -6    2    1    2    0  502 -0.43113349825E+02 -0.31416465594E+02  0.27049843249E+03  0.32476442635E+03  0.17162976257E+03 0.  0.
        -24    2    5    5    0    0 -0.48115427698E+02 -0.35868406261E+02  0.61645406818E+02  0.11575122846E+03  0.77437418337E+02 0.  0.
          5    1    3    3  501    0 -0.27414580513E+02 -0.43024062281E+01 -0.17631222129E+02  0.33211743673E+02  0.47000000000E+01 0. -1.
        -11    1    4    4    0    0  0.24993090179E+02  0.28147501637E+02  0.85974796923E+01  0.38611566430E+02  0.00000000000E+00 0.  1.
         12    1    4    4    0    0  0.45534840159E+02  0.75713701851E+01  0.13843668279E+03  0.14592964900E+03  0.00000000000E+00 0. -1.
         -5    1    5    5    0  502  0.50020778732E+01  0.44519406665E+01  0.20885302567E+03  0.20901319788E+03  0.47000000000E+01 0.  1.
         11    1    6    6    0    0 -0.59436069986E+02  0.74288778218E+00  0.33771695117E+02  0.68364652334E+02  0.00000000000E+00 0. -1.
        -12    1    6    6    0    0  0.11320642288E+02 -0.36611294043E+02  0.27873711701E+02  0.47386576129E+02  0.00000000000E+00 0.  1.
</event>
<event>
12    1  0.8226261E-002  0.1809235E+03  0.7818608E-02  0.1167484E+00
         21   -1    0    0  501  502  0.00000000000E+00  0.00000000000E+00  0.81982478573E+03  0.81982478573E+03  0.00000000000E+00 0. -1.
         21   -1    0    0  502  503 -0.00000000000E+00 -0.00000000000E+00 -0.40100842467E+02  0.40100842467E+02  0.00000000000E+00 0.  1.
         -6    2    1    2    0  503 -0.73226816425E+01  0.52472809614E+02  0.33081077560E+03  0.37592527878E+03  0.17051987732E+03 0.  0.
        -24    2    3    3    0    0 -0.73280392073E+01  0.17687668724E+02  0.33059795585E+03  0.34082340778E+03  0.80616580779E+02 0.  0.
          6    2    1    2  501    0  0.73226816425E+01 -0.52472809614E+02  0.44891316767E+03  0.48400034942E+03  0.17299216373E+03 0.  0.
         24    2    5    5    0    0  0.69638608400E+02 -0.11989764796E+02  0.26522934052E+03  0.28579845739E+03  0.79629548131E+02 0.  0.
          5    1    5    5  501    0 -0.62315926758E+02 -0.40483044818E+02  0.18368382715E+03  0.19820189202E+03  0.47000000000E+01 0. -1.
        -11    1    6    6    0    0 -0.77173510447E+01 -0.26242684554E+02  0.57476962999E+02  0.63654043669E+02  0.00000000000E+00 0.  1.
         12    1    6    6    0    0  0.77355959445E+02  0.14252919758E+02  0.20775237752E+03  0.22214441372E+03  0.00000000000E+00 0. -1.
         -5    1    3    3    0  503  0.53575647630E-02  0.34785140890E+02  0.21281974519E+00  0.35101871000E+02  0.47000000000E+01 0.  1.
         11    1    4    4    0    0  0.29890020886E+02  0.31153588153E+02  0.16385075693E+03  0.16944329420E+03  0.00000000000E+00 0. -1.
        -12    1    4    4    0    0 -0.37218060093E+02 -0.13465919429E+02  0.16674719892E+03  0.17138011358E+03  0.00000000000E+00 0.  1.
</event>
<event>
12    1  0.8226261E-002  0.1775437E+03  0.7818608E-02  0.1170395E+00
         21   -1    0    0  503  502  0.00000000000E+00  0.00000000000E+00  0.60028855688E+02  0.60028855688E+02  0.00000000000E+00 0.  1.
         21   -1    0    0  501  503 -0.00000000000E+00 -0.00000000000E+00 -0.52374817737E+03  0.52374817737E+03  0.00000000000E+00 0.  1.
          6    2    1    2  501    0 -0.31748633679E+02 -0.32210605626E+02 -0.24477598417E+03  0.30238561153E+03  0.17168656551E+03 0.  0.
         24    2    3    3    0    0 -0.49285172007E+02 -0.81812595836E+02 -0.16930503917E+03  0.21026698611E+03  0.80160340215E+02 0.  0.
         -6    2    1    2    0  502  0.31748633679E+02  0.32210605626E+02 -0.21894333751E+03  0.28139142153E+03  0.17087846036E+03 0.  0.
        -24    2    5    5    0    0 -0.28214668776E+02 -0.21998521014E+02 -0.67607834646E+02  0.10975590225E+03  0.78711729185E+02 0.  0.
          5    1    3    3  501    0  0.17536538329E+02  0.49601990210E+02 -0.75470944997E+02  0.92118625413E+02  0.47000000000E+01 0. -1.
        -13    1    4    4    0    0 -0.46698464447E+02 -0.96388273506E+02 -0.16076852947E+03  0.19317858556E+03  0.00000000000E+00 0.  1.
         14    1    4    4    0    0 -0.25867075606E+01  0.14575677671E+02 -0.85365096998E+01  0.17088400552E+02  0.00000000000E+00 0. -1.
         -5    1    5    5    0  502  0.59963302455E+02  0.54209126640E+02 -0.15133550287E+03  0.17163551928E+03  0.47000000000E+01 0.  1.
         13    1    6    6    0    0 -0.42363841928E+01 -0.13319020829E+02 -0.80134682116E+02  0.81344394673E+02  0.00000000000E+00 0. -1.
        -14    1    6    6    0    0 -0.23978284583E+02 -0.86795001846E+01  0.12526847470E+02  0.28411507572E+02  0.00000000000E+00 0.  1.
</event>
<event>
12    1  0.8226261E-002  0.1888192E+03  0.7818608E-02  0.1160516E+00
         21   -1    0    0  501  502  0.00000000000E+00  0.00000000000E+00  0.38877872350E+03  0.38877872350E+03  0.00000000000E+00 0.  1.
         21   -1    0    0  502  503 -0.00000000000E+00 -0.00000000000E+00 -0.10272195533E+03  0.10272195533E+03  0.00000000000E+00 0.  1.
         -6    2    1    2    0  503  0.22726050008E+02  0.76740157539E+02  0.56755307486E+02  0.19716453484E+03  0.17101802168E+03 0.  0.
        -24    2    3    3    0    0  0.41567568822E+02  0.34625813488E+02  0.96304665578E+02  0.13621486272E+03  0.79706276258E+02 0.  0.
          6    2    1    2  501    0 -0.22726050008E+02 -0.76740157539E+02  0.22930146069E+03  0.29433614400E+03  0.16628012708E+03 0.  0.
         24    2    5    5    0    0  0.14578349319E+02 -0.10726602818E+03  0.14744699429E+03  0.19922730815E+03  0.78945393252E+02 0.  0.
          5    1    5    5  501    0 -0.37304399327E+02  0.30525870643E+02  0.81854466399E+02  0.95108835852E+02  0.47000000000E+01 0. -1.
        -13    1    6    6    0    0 -0.28144153539E+02 -0.40343197781E+02  0.30511569434E+02  0.57884564911E+02  0.00000000000E+00 0.  1.
         14    1    6    6    0    0  0.42722502858E+02 -0.66922830401E+02  0.11693542485E+03  0.14134274323E+03  0.00000000000E+00 0. -1.
         -5    1    3    3    0  503 -0.18841518814E+02  0.42114344051E+02 -0.39549358092E+02  0.60949672120E+02  0.47000000000E+01 0.  1.
         11    1    4    4    0    0  0.27370018067E+02 -0.19395620614E+02  0.13126098955E+02  0.36022249538E+02  0.00000000000E+00 0. -1.
        -12    1    4    4    0    0  0.14197550755E+02  0.54021434102E+02  0.83178566622E+02  0.10019261318E+03  0.00000000000E+00 0.  1.
</event>
<event>
12    1  0.8226261E-002  0.1872283E+03  0.7818608E-02  0.1161386E+00
         21   -1    0    0  503  502  0.00000000000E+00  0.00000000000E+00  0.38520097653E+02  0.38520097653E+02  0.00000000000E+00 0.  1.
         21   -1    0    0  501  503 -0.00000000000E+00 -0.00000000000E+00 -0.91128207903E+03  0.91128207903E+03  0.00000000000E+00 0. -1.
          6    2    1    2  501    0 -0.68543099190E+02 -0.16143217710E+02 -0.38545676444E+03  0.42776690928E+03  0.17160667673E+03 0.  0.
         24    2    3    3    0    0 -0.79897819746E+02 -0.54936994142E+01 -0.14440702525E+03  0.18616929199E+03  0.85975426747E+02 0.  0.
         -6    2    1    2    0  502  0.68543099190E+02  0.16143217710E+02 -0.48730521694E+03  0.52203526740E+03  0.17348108263E+03 0.  0.
        -24    2    5    5    0    0  0.62259479739E+02  0.45039435771E+02 -0.47757249796E+03  0.49055049155E+03  0.81605761826E+02 0.  0.
          5    1    3    3  501    0  0.11354720556E+02 -0.10649518296E+02 -0.24104973919E+03  0.24159761729E+03  0.47000000000E+01 0. -1.
        -11    1    4    4    0    0 -0.39050686612E+02  0.12529947581E+02 -0.68902498463E+01  0.41586431131E+02  0.00000000000E+00 0.  1.
         12    1    4    4    0    0 -0.40847133134E+02 -0.18023646995E+02 -0.13751677540E+03  0.14458286086E+03  0.00000000000E+00 0. -1.
         -5    1    5    5    0  502  0.62836194509E+01 -0.28896218061E+02 -0.97327189810E+01  0.31484775851E+02  0.47000000000E+01 0.  1.
         13    1    6    6    0    0  0.38534499860E+02 -0.96274919318E+01 -0.31320372943E+03  0.31571216703E+03  0.00000000000E+00 0. -1.
        -14    1    6    6    0    0  0.23724979879E+02  0.54666927703E+02 -0.16436876853E+03  0.17483832452E+03  0.00000000000E+00 0.  1.
</event>
<event>
12    1  0.8226261E-002  0.2035074E+03  0.7818608E-02  0.1151235E+00
         21   -1    0    0  501  502  0.00000000000E+00  0.00000000000E+00  0.31565874383E+04  0.31565874383E+04  0.00000000000E+00 0.  1.
         21   -1    0    0  502  503 -0.00000000000E+00 -0.00000000000E+00 -0.23336400938E+02  0.23336400938E+02  0.00000000000E+00 0.  1.
         -6    2    1    2    0  503  0.44743770753E+01 -0.60279175678E+02  0.41001675151E+03  0.44909608437E+03  0.17297386336E+03 0.  0.
        -24    2    3    3    0    0  0.22319444672E+02  0.21251751463E+02  0.29303243169E+03  0.30531444576E+03  0.79994438653E+02 0.  0.
          6    2    1    2  501    0 -0.44743770753E+01  0.60279175678E+02  0.27232342858E+04  0.27308277549E+04  0.19432357566E+03 0.  0.
         24    2    5    5    0    0 -0.48222050271E+02  0.33077512027E+02  0.24935634689E+04  0.24954035344E+04  0.75898209597E+02 0.  0.
          5    1    5    5  501    0  0.43747673196E+02  0.27201663650E+02  0.22967081692E+03  0.23542422042E+03  0.47000000000E+01 0. -1.
        -11    1    6    6    0    0 -0.67307949631E+02  0.22223198223E+02  0.21288845078E+04  0.21300641958E+04  0.00000000000E+00 0.  1.
         12    1    6    6    0    0  0.19085899360E+02  0.10854313805E+02  0.36467896111E+03  0.36533933864E+03  0.00000000000E+00 0. -1.
         -5    1    3    3    0  503 -0.17845067597E+02 -0.81530927140E+02  0.11698431981E+03  0.14378163861E+03  0.47000000000E+01 0.  1.
         11    1    4    4    0    0 -0.21925631376E+02  0.29336355104E+02  0.17948042562E+03  0.18317908784E+03  0.00000000000E+00 0. -1.
        -12    1    4    4    0    0  0.44245076048E+02 -0.80846036409E+01  0.11355200607E+03  0.12213535792E+03  0.00000000000E+00 0.  1.
</event>
<event>
12    1  0.8226261E-002  0.1872697E+03  0.7818608E-02  0.1161210E+00
         21   -1    0    0  501  502  0.00000000000E+00  0.00000000000E+00  0.19940364697E+03  0.19940364697E+03  0.00000000000E+00 0. -1.
         21   -1    0    0  502  503 -0.00000000000E+00 -0.00000000000E+00 -0.29680424261E+03  0.29680424261E+03  0.00000000000E+00 0. -1.
         -6    2    1    2    0  503  0.79469250479E+01 -0.79066416042E+02 -0.20785212498E+03  0.27977210065E+03  0.16957379126E+03 0.  0.
        -24    2    3    3    0    0 -0.44846202344E+02 -0.70350158441E+02 -0.82563577128E+02  0.14345483224E+03  0.82475559816E+02 0.  0.
          6    2    1    2  501    0 -0.79469250479E+01  0.79066416042E+02  0.11045152934E+03  0.21643578893E+03  0.16831594883E+03 0.  0.
         24    2    5    5    0    0 -0.38165353053E+01 -0.18885241086E+02  0.24162152184E+02  0.85747098275E+02  0.79984604717E+02 0.  0.
          5    1    5    5  501    0 -0.41303897426E+01  0.97951657128E+02  0.86289377160E+02  0.13068869065E+03  0.47000000000E+01 0. -1.
        -11    1    6    6    0    0  0.27956301464E+02  0.12492831040E+02 -0.68523552184E+01  0.31378024013E+02  0.00000000000E+00 0.  1.
         12    1    6    6    0    0 -0.31772836769E+02 -0.31378072126E+02  0.31014507402E+02  0.54369074262E+02  0.00000000000E+00 0. -1.
         -5    1    3    3    0  503  0.52793127392E+02 -0.87162576010E+01 -0.12528854785E+03  0.13631726842E+03  0.47000000000E+01 0.  1.
         11    1    4    4    0    0 -0.68725733166E+01 -0.28624661808E+02 -0.81902980488E+02  0.87032762454E+02  0.00000000000E+00 0. -1.
        -12    1    4    4    0    0 -0.37973629028E+02 -0.41725496633E+02 -0.66059664011E+00  0.56422069784E+02  0.00000000000E+00 0.  1.
</event>
<event>
12    1  0.8226261E-002  0.1823071E+03  0.7818608E-02  0.1167414E+00
         21   -1    0    0  503  502  0.00000000000E+00  0.00000000000E+00  0.18011227616E+04  0.18011227616E+04  0.00000000000E+00 0.  1.
         21   -1    0    0  501  503 -0.00000000000E+00 -0.00000000000E+00 -0.93244363368E+02  0.93244363368E+02  0.00000000000E+00 0.  1.
          6    2    1    2  501    0  0.38779635988E+02  0.37091730176E+02 -0.19769142363E+01  0.17482036333E+03  0.16636885115E+03 0.  0.
         24    2    3    3    0    0  0.91571345795E+01 -0.43255172416E+02 -0.13817905234E+00  0.89038149019E+02  0.77284602819E+02 0.  0.
         -6    2    1    2    0  502 -0.38779635988E+02 -0.37091730176E+02  0.17098553124E+04  0.17195467616E+04  0.17423036260E+03 0.  0.
        -24    2    5    5    0    0 -0.73182320483E+02 -0.74212781136E+02  0.12808356793E+04  0.12875265622E+04  0.79507370332E+02 0.  0.
          5    1    3    3  501    0  0.29622501409E+02  0.80346902592E+02 -0.18387351840E+01  0.85782214315E+02  0.47000000000E+01 0. -1.
        -11    1    4    4    0    0  0.33361371767E+02 -0.38308207785E+02  0.22473470611E+02  0.55547788356E+02  0.00000000000E+00 0.  1.
         12    1    4    4    0    0 -0.24204237188E+02 -0.49469646307E+01 -0.22611649663E+02  0.33490360664E+02  0.00000000000E+00 0. -1.
         -5    1    5    5    0  502  0.34402684495E+02  0.37121050961E+02  0.42901963311E+03  0.43202019944E+03  0.47000000000E+01 0.  1.
         13    1    6    6    0    0 -0.57610953823E+02 -0.28383519598E+02  0.37979891156E+03  0.38519067928E+03  0.00000000000E+00 0. -1.
        -14    1    6    6    0    0 -0.15571366660E+02 -0.45829261538E+02  0.90103676777E+03  0.90233588289E+03  0.00000000000E+00 0.  1.
</event>
<event>
12    1  0.8226261E-002  0.1866231E+03  0.7818608E-02  0.1161550E+00
         21   -1    0    0  503  502  0.00000000000E+00  0.00000000000E+00  0.23083355925E+03  0.23083355925E+03  0.00000000000E+00 0. -1.
         21   -1    0    0  501  503 -0.00000000000E+00 -0.00000000000E+00 -0.26189596726E+03  0.26189596726E+03  0.00000000000E+00 0. -1.
          6    2    1    2  501    0 -0.50234529745E+02  0.49121181761E+02 -0.17595092378E+03  0.25648959021E+03  0.17289240536E+03 0.  0.
         24    2    3    3    0    0  0.20283887059E+02  0.13078356574E+02 -0.15598287837E+03  0.17468039028E+03  0.74833822012E+02 0.  0.
         -6    2    1    2    0  502  0.50234529745E+02 -0.49121181761E+02  0.14488851577E+03  0.23623993630E+03  0.17285898016E+03 0.  0.
        -24    2    5    5    0    0  0.19635605188E+01 -0.75359979060E+02  0.14341356098E+03  0.18107811576E+03  0.80863171587E+02 0.  0.
          5    1    3    3  501    0 -0.70518416804E+02  0.36042825187E+02 -0.19968045407E+02  0.81809199931E+02  0.47000000000E+01 0. -1.
        -11    1    4    4    0    0 -0.22243664925E+02 -0.15688094604E+02 -0.57514595343E+02  0.63630382830E+02  0.00000000000E+00 0.  1.
         12    1    4    4    0    0  0.42527551984E+02  0.28766451178E+02 -0.98468283032E+02  0.11105000745E+03  0.00000000000E+00 0. -1.
         -5    1    5    5    0  502  0.48270969226E+02  0.26238797299E+02  0.14749547948E+01  0.55161820541E+02  0.47000000000E+01 0.  1.
         13    1    6    6    0    0  0.10965737698E+02 -0.87111653813E+02  0.14096768075E+03  0.16607400354E+03  0.00000000000E+00 0. -1.
        -14    1    6    6    0    0 -0.90021771794E+01  0.11751674752E+02  0.24458802258E+01  0.15004112221E+02  0.00000000000E+00 0.  1.
</event>
<event>
12    1  0.8226261E-002  0.3956939E+03  0.7818608E-02  0.1045603E+00
         21   -1    0    0  501  502  0.00000000000E+00  0.00000000000E+00  0.33375622074E+03  0.33375622074E+03  0.00000000000E+00 0. -1.
         21   -1    0    0  502  503 -0.00000000000E+00 -0.00000000000E+00 -0.92808799495E+03  0.92808799495E+03  0.00000000000E+00 0.  1.
         -6    2    1    2    0  503 -0.21417541298E+03  0.28416130766E+03 -0.74361731623E+03  0.84234220305E+03  0.17307489057E+03 0.  0.
        -24    2    3    3    0    0 -0.85472017848E+02  0.50096042846E+02 -0.24609062243E+03  0.27762456285E+03  0.81851842403E+02 0.  0.
          6    2    1    2  501    0  0.21417541298E+03 -0.28416130766E+03  0.14928554203E+03  0.41950201264E+03  0.16455093208E+03 0.  0.
         24    2    5    5    0    0  0.22952952874E+03 -0.23725038047E+03  0.14524603629E+03  0.36975473565E+03  0.81551246973E+02 0.  0.
          5    1    5    5  501    0 -0.15354115756E+02 -0.46910927194E+02  0.40395057404E+01  0.49747276985E+02  0.47000000000E+01 0. -1.
        -13    1    6    6    0    0 -0.65781080215E+00  0.41061983700E+01 -0.26264267218E+01  0.49185056095E+01  0.00000000000E+00 0.  1.
         14    1    6    6    0    0  0.23018733954E+03 -0.24135657884E+03  0.14787246301E+03  0.36483623004E+03  0.00000000000E+00 0. -1.
         -5    1    3    3    0  503 -0.12870339514E+03  0.23406526482E+03 -0.49752669380E+03  0.56471764020E+03  0.47000000000E+01 0.  1.
         11    1    4    4    0    0 -0.61995237118E+02  0.64451123859E+02 -0.12655831691E+03  0.15496568772E+03  0.00000000000E+00 0. -1.
        -12    1    4    4    0    0 -0.23476780730E+02 -0.14355081013E+02 -0.11953230552E+03  0.12265887513E+03  0.00000000000E+00 0.  1.
</event>
<event>
12    1  0.8226261E-002  0.2528762E+03  0.7818608E-02  0.1111849E+00
         21   -1    0    0  501  502  0.00000000000E+00  0.00000000000E+00  0.15816272655E+03  0.15816272655E+03  0.00000000000E+00 0. -1.
         21   -1    0    0  502  503 -0.00000000000E+00 -0.00000000000E+00 -0.40446290637E+03  0.40446290637E+03  0.00000000000E+00 0.  1.
         -6    2    1    2    0  503  0.18362785446E+03  0.24528004647E+02 -0.96734677297E+02  0.27074702288E+03  0.17212071537E+03 0.  0.
        -24    2    3    3    0    0  0.10514311766E+03  0.78832583296E+02 -0.83959688624E+02  0.17434094678E+03  0.77947963603E+02 0.  0.
          6    2    1    2  501    0 -0.18362785446E+03 -0.24528004647E+02 -0.14956550253E+03  0.29187861004E+03  0.16882674998E+03 0.  0.
         24    2    5    5    0    0 -0.96942312135E+02 -0.14958071071E+02 -0.15994380904E+03  0.20392540588E+03  0.79887379106E+02 0.  0.
          5    1    5    5  501    0 -0.86685542326E+02 -0.95699335760E+01  0.10378306508E+02  0.87953204166E+02  0.47000000000E+01 0. -1.
        -11    1    6    6    0    0 -0.81334497899E+02  0.44291585157E+01 -0.60636255772E+02  0.10154641061E+03  0.00000000000E+00 0.  1.
         12    1    6    6    0    0 -0.15607814235E+02 -0.19387229586E+02 -0.99307553267E+02  0.10237899527E+03  0.00000000000E+00 0. -1.
         -5    1    3    3    0  503  0.78484736803E+02 -0.54304578649E+02 -0.12774988673E+02  0.96406076100E+02  0.47000000000E+01 0.  1.
         11    1    4    4    0    0  0.73397402146E+02  0.44809128507E+02 -0.94744171188E+01  0.86514745675E+02  0.00000000000E+00 0. -1.
        -12    1    4    4    0    0  0.31745715512E+02  0.34023454788E+02 -0.74485271505E+02  0.87826201103E+02  0.00000000000E+00 0.  1.
</event>
<event>
12    1  0.8226261E-002  0.1985874E+03  0.7818608E-02  0.1151352E+00
         21   -1    0    0  501  502  0.00000000000E+00  0.00000000000E+00  0.86214523283E+02  0.86214523283E+02  0.00000000000E+00 0. -1.
         21   -1    0    0  502  503 -0.00000000000E+00 -0.00000000000E+00 -0.46588902997E+03  0.46588902997E+03  0.00000000000E+00 0. -1.
         -6    2    1    2    0  503 -0.56495664184E+02  0.79675885926E+02 -0.14295004655E+03  0.24311254376E+03  0.17067216016E+03 0.  0.
        -24    2    3    3    0    0 -0.26747473738E+02  0.45075861612E+02 -0.21431852348E+01  0.95022102769E+02  0.79229704785E+02 0.  0.
          6    2    1    2  501    0  0.56495664184E+02 -0.79675885926E+02 -0.23672446013E+03  0.30899100949E+03  0.17290739445E+03 0.  0.
         24    2    5    5    0    0  0.29387681159E+02 -0.63242368008E+02 -0.61103062100E+02  0.13046966987E+03  0.91790618491E+02 0.  0.
          5    1    5    5  501    0  0.27107983025E+02 -0.16433517918E+02 -0.17562139803E+03  0.17852133962E+03  0.47000000000E+01 0. -1.
        -13    1    6    6    0    0  0.79286596575E+01  0.16245162728E+02 -0.42322968554E+02  0.46021762496E+02  0.00000000000E+00 0.  1.
         14    1    6    6    0    0  0.21459021502E+02 -0.79487530736E+02 -0.18780093546E+02  0.84447907374E+02  0.00000000000E+00 0. -1.
         -5    1    3    3    0  503 -0.29748190446E+02  0.34600024314E+02 -0.14080686132E+03  0.14809044099E+03  0.47000000000E+01 0.  1.
         13    1    4    4    0    0 -0.85252463297E+01  0.49082463162E+02 -0.32434802615E+02  0.59445642698E+02  0.00000000000E+00 0. -1.
        -14    1    4    4    0    0 -0.18222227409E+02 -0.40066015500E+01  0.30291617380E+02  0.35576460072E+02  0.00000000000E+00 0.  1.
</event>
<event>
12    1  0.8226261E-002  0.3854514E+03  0.7818608E-02  0.1049021E+00
         21   -1    0    0  503  502  0.00000000000E+00  0.00000000000E+00  0.17972449994E+03  0.17972449994E+03  0.00000000000E+00 0. -1.
         21   -1    0    0  501  503 -0.00000000000E+00 -0.00000000000E+00 -0.95512966087E+03  0.95512966087E+03  0.00000000000E+00 0. -1.
          6    2    1    2  501    0  0.88989404916E+02  0.33237701724E+03 -0.59778733240E+03  0.71128229686E+03  0.17372166034E+03 0.  0.
         24    2    3    3    0    0  0.61258018049E+02  0.93522856147E+02 -0.28753938782E+03  0.31873138653E+03  0.80073265272E+02 0.  0.
         -6    2    1    2    0  502 -0.88989404916E+02 -0.33237701724E+03 -0.17761782853E+03  0.42357186395E+03  0.17167246471E+03 0.  0.
        -24    2    5    5    0    0 -0.33350663045E+02 -0.29290250444E+03 -0.18102295564E+03  0.35510587496E+03  0.80166876744E+02 0.  0.
          5    1    3    3  501    0  0.27731386868E+02  0.23885416109E+03 -0.31024794458E+03  0.39255091033E+03  0.47000000000E+01 0. -1.
        -11    1    4    4    0    0  0.10938136682E+02  0.56787299200E+02 -0.62170682003E+02  0.84909562978E+02  0.00000000000E+00 0.  1.
         12    1    4    4    0    0  0.50319881367E+02  0.36735556947E+02 -0.22536870582E+03  0.23382182355E+03  0.00000000000E+00 0. -1.
         -5    1    5    5    0  502 -0.55638741872E+02 -0.39474512798E+02  0.34051271111E+01  0.68465988989E+02  0.47000000000E+01 0.  1.
         11    1    6    6    0    0 -0.58537699767E+02 -0.17809600258E+03 -0.12102750019E+03  0.22314234074E+03  0.00000000000E+00 0. -1.
        -12    1    6    6    0    0  0.25187036722E+02 -0.11480650186E+03 -0.59995455458E+02  0.13196353422E+03  0.00000000000E+00 0.  1.
</event>
<event>
12    1  0.8226261E-002  0.3305322E+03  0.7818608E-02  0.1071238E+00
         21   -1    0    0  501  502  0.00000000000E+00  0.00000000000E+00  0.33389774780E+03  0.33389774780E+03  0.00000000000E+00 0. -1.
         21   -1    0    0  502  503 -0.00000000000E+00 -0.00000000000E+00 -0.56208529625E+03  0.56208529625E+03  0.00000000000E+00 0.  1.
         -6    2    1    2    0  503 -0.17309237386E+03 -0.22296527340E+03 -0.40522856904E+03  0.52102300383E+03  0.16607315956E+03 0.  0.
        -24    2    3    3    0    0 -0.14267577126E+03 -0.18887011008E+03 -0.40342910081E+03  0.47505586381E+03  0.83034572179E+02 0.  0.
          6    2    1    2  501    0  0.17309237386E+03  0.22296527340E+03  0.17704102059E+03  0.37496004022E+03  0.17197972484E+03 0.  0.
         24    2    5    5    0    0  0.10540947273E+03  0.22121179233E+03  0.16532722550E+03  0.30608803722E+03  0.79441683202E+02 0.  0.
          5    1    5    5  501    0  0.67682901128E+02  0.17534810673E+01  0.11713795082E+02  0.68872002992E+02  0.47000000000E+01 0. -1.
        -13    1    6    6    0    0  0.59507102052E+02  0.80816143957E+02  0.27495245002E+02  0.10405927549E+03  0.00000000000E+00 0.  1.
         14    1    6    6    0    0  0.45902370683E+02  0.14039564837E+03  0.13783198050E+03  0.20202876173E+03  0.00000000000E+00 0. -1.
         -5    1    3    3    0  503 -0.30416602599E+02 -0.34095163320E+02 -0.17994682293E+01  0.45967140017E+02  0.47000000000E+01 0.  1.
         13    1    4    4    0    0 -0.32572715511E+02 -0.25021018553E+02 -0.13979938456E+03  0.14570827391E+03  0.00000000000E+00 0. -1.
        -14    1    4    4    0    0 -0.11010305575E+03 -0.16384909153E+03 -0.26362971625E+03  0.32934758990E+03  0.00000000000E+00 0.  1.
</event>
<event>
12    1  0.8226261E-002  0.4035259E+03  0.7818608E-02  0.1042580E+00
         21   -1    0    0  501  502  0.00000000000E+00  0.00000000000E+00  0.72293675971E+03  0.72293675971E+03  0.00000000000E+00 0.  1.
         21   -1    0    0  502  503 -0.00000000000E+00 -0.00000000000E+00 -0.67424707660E+03  0.67424707660E+03  0.00000000000E+00 0. -1.
         -6    2    1    2    0  503 -0.24652353875E+03 -0.26927610440E+03 -0.54580096865E+03  0.67877232942E+03  0.17190026835E+03 0.  0.
        -24    2    3    3    0    0 -0.66213271810E+02 -0.16696241766E+03 -0.25416594562E+03  0.32092744751E+03  0.78316360850E+02 0.  0.
          6    2    1    2  501    0  0.24652353875E+03  0.26927610440E+03  0.59449065175E+03  0.71841150689E+03  0.17150067829E+03 0.  0.
         24    2    5    5    0    0  0.21645793689E+03  0.15207159502E+03  0.46671281930E+03  0.54237144923E+03  0.79787999013E+02 0.  0.
          5    1    5    5  501    0  0.30065601859E+02  0.11720450938E+03  0.12777783244E+03  0.17604005765E+03  0.47000000000E+01 0. -1.
        -13    1    6    6    0    0  0.20778975547E+03  0.11409012176E+03  0.39168689412E+03  0.45783377047E+03  0.00000000000E+00 0.  1.
         14    1    6    6    0    0  0.86681814159E+01  0.37981473257E+02  0.75025925185E+02  0.84537678758E+02  0.00000000000E+00 0. -1.
         -5    1    3    3    0  503 -0.18031026694E+03 -0.10231368674E+03 -0.29163502302E+03  0.35784488191E+03  0.47000000000E+01 0.  1.
         11    1    4    4    0    0 -0.19502057345E+02 -0.10204544226E+02 -0.75734293592E+02  0.78867903417E+02  0.00000000000E+00 0. -1.
        -12    1    4    4    0    0 -0.46711214465E+02 -0.15675787343E+03 -0.17843165203E+03  0.24205954409E+03  0.00000000000E+00 0.  1.
</event>
<event>
12    1  0.8226261E-002  0.1860239E+03  0.7818608E-02  0.1162161E+00
         21   -1    0    0  501  502  0.00000000000E+00  0.00000000000E+00  0.52729409186E+03  0.52729409186E+03  0.00000000000E+00 0.  1.
         21   -1    0    0  502  503 -0.00000000000E+00 -0.00000000000E+00 -0.16792899892E+03  0.16792899892E+03  0.00000000000E+00 0.  1.
         -6    2    1    2    0  503  0.67473560064E+02 -0.23019790022E+02 -0.91811909838E+02  0.20720097020E+03  0.17152324397E+03 0.  0.
        -24    2    3    3    0    0  0.70954809873E+02 -0.48655400598E+02 -0.65037027583E+01  0.11793236527E+03  0.80397833164E+02 0.  0.
          6    2    1    2  501    0 -0.67473560064E+02  0.23019790022E+02  0.45117700278E+03  0.48802212059E+03  0.17182057591E+03 0.  0.
         24    2    5    5    0    0 -0.76483232046E+02 -0.20784713319E+02  0.17267680097E+03  0.20591494041E+03  0.79385111938E+02 0.  0.
          5    1    5    5  501    0  0.90096719818E+01  0.43804503341E+02  0.27850020181E+03  0.28210718018E+03  0.47000000000E+01 0. -1.
        -11    1    6    6    0    0 -0.15530145915E+02 -0.34681937181E+02  0.11403069450E+03  0.12019576318E+03  0.00000000000E+00 0.  1.
         12    1    6    6    0    0 -0.60953086130E+02  0.13897223862E+02  0.58646106470E+02  0.85719177224E+02  0.00000000000E+00 0. -1.
         -5    1    3    3    0  503 -0.34812498087E+01  0.25635610576E+02 -0.85308207080E+02  0.89268604924E+02  0.47000000000E+01 0.  1.
         11    1    4    4    0    0  0.22896985340E+02 -0.48006505953E+02 -0.33450225658E+02  0.62831633339E+02  0.00000000000E+00 0. -1.
        -12    1    4    4    0    0  0.48057824532E+02 -0.64889464453E+00  0.26946522900E+02  0.55100731932E+02  0.00000000000E+00 0.  1.
</event>
<event>
12    1  0.8226261E-002  0.1872811E+03  0.7818608E-02  0.1161024E+00
         21   -1    0    0  501  502  0.00000000000E+00  0.00000000000E+00  0.17372810815E+03  0.17372810815E+03  0.00000000000E+00 0.  1.
         21   -1    0    0  502  503 -0.00000000000E+00 -0.00000000000E+00 -0.35362678735E+03  0.35362678735E+03  0.00000000000E+00 0. -1.
         -6    2    1    2    0  503  0.73046424862E+02 -0.12247835933E+02 -0.26295499885E+03  0.32283050179E+03  0.17201282450E+03 0.  0.
        -24    2    3    3    0    0  0.76695254019E+02 -0.73906134986E+02 -0.17528225251E+03  0.21548218905E+03  0.66063809877E+02 0.  0.
          6    2    1    2  501    0 -0.73046424862E+02  0.12247835933E+02  0.83056319645E+02  0.20452439371E+03  0.17159861806E+03 0.  0.
         24    2    5    5    0    0 -0.21611615756E+02  0.54403274204E+02  0.94250028173E+02  0.13692254703E+03  0.80236761494E+02 0.  0.
          5    1    5    5  501    0 -0.51434809107E+02 -0.42155438272E+02 -0.11193708528E+02  0.67601846678E+02  0.47000000000E+01 0. -1.
        -13    1    6    6    0    0  0.27638321701E+02  0.37616582770E+02  0.37032074398E+02  0.59584047026E+02  0.00000000000E+00 0.  1.
         14    1    6    6    0    0 -0.49249937457E+02  0.16786691434E+02  0.57217953775E+02  0.77338500005E+02  0.00000000000E+00 0. -1.
         -5    1    3    3    0  503 -0.36488291571E+01  0.61658299054E+02 -0.87672746343E+02  0.10734831274E+03  0.47000000000E+01 0.  1.
         13    1    4    4    0    0  0.32183943007E+02 -0.22985317204E+01 -0.89774831248E+02  0.95397116105E+02  0.00000000000E+00 0. -1.
        -14    1    4    4    0    0  0.44511311013E+02 -0.71607603266E+02 -0.85507421260E+02  0.12008507294E+03  0.00000000000E+00 0.  1.
</event>
<event>
12    1  0.8226261E-002  0.1973990E+03  0.7818608E-02  0.1152265E+00
         21   -1    0    0  503  502  0.00000000000E+00  0.00000000000E+00  0.25145579981E+03  0.25145579981E+03  0.00000000000E+00 0.  1.
         21   -1    0    0  501  503 -0.00000000000E+00 -0.00000000000E+00 -0.16621375211E+03  0.16621375211E+03  0.00000000000E+00 0.  1.
          6    2    1    2  501    0  0.81964563345E+02 -0.50302435680E+02 -0.14533528947E+02  0.19648746263E+03  0.17072660844E+03 0.  0.
         24    2    3    3    0    0  0.10062012842E+03 -0.22363778794E+01  0.26033764570E+02  0.13071382563E+03  0.79239735515E+02 0.  0.
         -6    2    1    2    0  502 -0.81964563345E+02  0.50302435680E+02  0.99775576640E+02  0.22118208929E+03  0.17238859083E+03 0.  0.
        -24    2    5    5    0    0 -0.28180350310E+02  0.31241842126E+02 -0.16228546830E+02  0.91817896172E+02  0.79981094530E+02 0.  0.
          5    1    3    3  501    0 -0.18655565078E+02 -0.48066057801E+02 -0.40567293517E+02  0.65773637000E+02  0.47000000000E+01 0. -1.
        -13    1    4    4    0    0  0.80163294355E+02  0.24837646372E+02 -0.58828637243E+01  0.84128892331E+02  0.00000000000E+00 0.  1.
         14    1    4    4    0    0  0.20456834068E+02 -0.27074024252E+02  0.31916628294E+02  0.46584933304E+02  0.00000000000E+00 0. -1.
         -5    1    5    5    0  502 -0.53784213035E+02  0.19060593554E+02  0.11600412347E+03  0.12936419312E+03  0.47000000000E+01 0.  1.
         13    1    6    6    0    0  0.23939519817E+02  0.29221368669E+02 -0.11285049070E+02  0.39425135745E+02  0.00000000000E+00 0. -1.
        -14    1    6    6    0    0 -0.52119870127E+02  0.20204734570E+01 -0.49434977600E+01  0.52392760427E+02  0.00000000000E+00 0.  1.
</event>
<event>
12    1  0.8226261E-002  0.2458338E+03  0.7818608E-02  0.1116041E+00
         21   -1    0    0  503  502  0.00000000000E+00  0.00000000000E+00  0.13497282058E+04  0.13497282058E+04  0.00000000000E+00 0. -1.
         21   -1    0    0  501  503 -0.00000000000E+00 -0.00000000000E+00 -0.45227925179E+02  0.45227925179E+02  0.00000000000E+00 0. -1.
          6    2    1    2  501    0  0.16830252753E+03 -0.52655426102E+02  0.57690286911E+03  0.62709742430E+03  0.17127733212E+03 0.  0.
         24    2    3    3    0    0  0.38726043476E+02 -0.32440436212E+02  0.37016082618E+03  0.38222383782E+03  0.80770889665E+02 0.  0.
         -6    2    1    2    0  502 -0.16830252753E+03  0.52655426102E+02  0.72759741149E+03  0.76785870667E+03  0.17061847942E+03 0.  0.
        -24    2    5    5    0    0 -0.18325795546E+03  0.10824816572E+02  0.57108123248E+03  0.60509240484E+03  0.79387589755E+02 0.  0.
          5    1    3    3  501    0  0.12957648406E+03 -0.20214989891E+02  0.20674204293E+03  0.24487358648E+03  0.47000000000E+01 0. -1.
        -13    1    4    4    0    0  0.22576920875E+02  0.21030495952E+02  0.21725912709E+03  0.21943912008E+03  0.00000000000E+00 0.  1.
         14    1    4    4    0    0  0.16149122601E+02 -0.53470932164E+02  0.15290169909E+03  0.16278471775E+03  0.00000000000E+00 0. -1.
         -5    1    5    5    0  502  0.14955427930E+02  0.41830609530E+02  0.15651617901E+03  0.16276630183E+03  0.47000000000E+01 0.  1.
         11    1    6    6    0    0 -0.79824297833E+02 -0.33637570024E+02  0.22181488951E+03  0.23812864139E+03  0.00000000000E+00 0. -1.
        -12    1    6    6    0    0 -0.10343365763E+03  0.44462386596E+02  0.34926634297E+03  0.36696376345E+03  0.00000000000E+00 0.  1.
</event>
<event>
12    1  0.8226261E-002  0.1818213E+03  0.7818608E-02  0.1166197E+00
         21   -1    0    0  503  502  0.00000000000E+00  0.00000000000E+00  0.32777711685E+03  0.32777711685E+03  0.00000000000E+00 0.  1.
         21   -1    0    0  501  503 -0.00000000000E+00 -0.00000000000E+00 -0.10098977323E+03  0.10098977323E+03  0.00000000000E+00 0.  1.
          6    2    1    2  501    0 -0.56605603096E+02 -0.19664320499E+02  0.99002560391E+02  0.20702776743E+03  0.17166277907E+03 0.  0.
         24    2    3    3    0    0  0.46064610494E+00  0.59750036904E+01 -0.39612072365E+01  0.86455966468E+02  0.86157008486E+02 0.  0.
         -6    2    1    2    0  502  0.56605603096E+02  0.19664320499E+02  0.12778478323E+03  0.22173912265E+03  0.17102165911E+03 0.  0.
        -24    2    5    5    0    0  0.41494077623E+02 -0.47025687338E+02  0.11334047670E+03  0.15169168630E+03  0.78937508749E+02 0.  0.
          5    1    3    3  501    0 -0.57066249201E+02 -0.25639324189E+02  0.10296376763E+03  0.12057180096E+03  0.47000000000E+01 0. -1.
        -11    1    4    4    0    0  0.59701115324E+01 -0.38842160225E+02  0.71763066637E+01  0.39948154150E+02  0.00000000000E+00 0.  1.
         12    1    4    4    0    0 -0.55094654275E+01  0.44817163915E+02 -0.11137513900E+02  0.46507812318E+02  0.00000000000E+00 0. -1.
         -5    1    5    5    0  502  0.15111525473E+02  0.66690007837E+02  0.14444306531E+02  0.70047436345E+02  0.47000000000E+01 0.  1.
         11    1    6    6    0    0  0.67726978843E+01 -0.17846334581E+02 -0.90814836521E+01  0.21138458788E+02  0.00000000000E+00 0. -1.
        -12    1    6    6    0    0  0.34721379739E+02 -0.29179352757E+02  0.12242196035E+03  0.13055322751E+03  0.00000000000E+00 0.  1.
</event>
<event>
12    1  0.8226261E-002  0.1959928E+03  0.7818608E-02  0.1153814E+00
         21   -1    0    0  503  502  0.00000000000E+00  0.00000000000E+00  0.28390077167E+03  0.28390077167E+03  0.00000000000E+00 0.  1.
         21   -1    0    0  501  503 -0.00000000000E+00 -0.00000000000E+00 -0.17647479056E+03  0.17647479056E+03  0.00000000000E+00 0.  1.
          6    2    1    2  501    0  0.82353939491E+02  0.29031398250E+02 -0.59882832572E+02  0.20493687268E+03  0.17546559410E+03 0.  0.
         24    2    3    3    0    0  0.11527598719E+03 -0.67810994087E+01 -0.18455386170E+02  0.14086878758E+03  0.78542202046E+02 0.  0.
         -6    2    1    2    0  502 -0.82353939491E+02 -0.29031398250E+02  0.16730881368E+03  0.25543868955E+03  0.17213858239E+03 0.  0.
        -24    2    5    5    0    0 -0.13937624231E+02 -0.48050913395E+02  0.15708453919E+03  0.18354181938E+03  0.80677750110E+02 0.  0.
          5    1    3    3  501    0 -0.32922047702E+02  0.35812497658E+02 -0.41427446402E+02  0.64068085104E+02  0.47000000000E+01 0. -1.
        -11    1    4    4    0    0  0.23784593094E+02 -0.27236921225E+02 -0.29236201284E+02  0.46500668941E+02  0.00000000000E+00 0.  1.
         12    1    4    4    0    0  0.91491394100E+02  0.20455821816E+02  0.10780815115E+02  0.94368118636E+02  0.00000000000E+00 0. -1.
         -5    1    5    5    0  502 -0.68416315260E+02  0.19019515146E+02  0.10224274488E+02  0.71896870161E+02  0.47000000000E+01 0.  1.
         13    1    6    6    0    0  0.70745395207E+01  0.14487844828E+02  0.82088366709E+02  0.83656719432E+02  0.00000000000E+00 0. -1.
        -14    1    6    6    0    0 -0.21012163752E+02 -0.62538758223E+02  0.74996172481E+02  0.99885099952E+02  0.00000000000E+00 0.  1.
</event>
<event>
12    1  0.8226261E-002  0.1946571E+03  0.7818608E-02  0.1156156E+00
         21   -1    0    0  501  502  0.00000000000E+00  0.00000000000E+00  0.17054058495E+03  0.17054058495E+03  0.00000000000E+00 0. -1.
         21   -1    0    0  502  503 -0.00000000000E+00 -0.00000000000E+00 -0.21437828691E+03  0.21437828691E+03  0.00000000000E+00 0.  1.
         -6    2    1    2    0  503  0.65309166243E+02 -0.33246570732E+02 -0.38132191938E+02  0.19835691555E+03  0.18033518854E+03 0.  0.
        -24    2    3    3    0    0  0.43442228081E+02 -0.58772299583E+02  0.39239350029E+02  0.11386921631E+03  0.78006803888E+02 0.  0.
          6    2    1    2  501    0 -0.65309166243E+02  0.33246570732E+02 -0.57055100193E+01  0.18656195631E+03  0.17147066524E+03 0.  0.
         24    2    5    5    0    0  0.25386834852E+02 -0.11914411756E+02 -0.57243567727E+01  0.85135286694E+02  0.80179824075E+02 0.  0.
          5    1    5    5  501    0 -0.90696001094E+02  0.45160982488E+02  0.18846753379E-01  0.10142666961E+03  0.47000000000E+01 0. -1.
        -11    1    6    6    0    0  0.20041655161E+02 -0.45821307186E+02  0.15947713838E+01  0.50038019841E+02  0.00000000000E+00 0.  1.
         12    1    6    6    0    0  0.53451796910E+01  0.33906895430E+02 -0.73191281565E+01  0.35097266853E+02  0.00000000000E+00 0. -1.
         -5    1    3    3    0  503  0.21866938162E+02  0.25525728851E+02 -0.77371541967E+02  0.84487699248E+02  0.47000000000E+01 0.  1.
         11    1    4    4    0    0  0.30501603552E+02 -0.35428178350E+01 -0.16057024101E+02  0.34651513682E+02  0.00000000000E+00 0. -1.
        -12    1    4    4    0    0  0.12940624529E+02 -0.55229481748E+02  0.55296374130E+02  0.79217702625E+02  0.00000000000E+00 0.  1.
</event>
<event>
12    1  0.8226261E-002  0.3114032E+03  0.7818608E-02  0.1079676E+00
         21   -1    0    0  503  502  0.00000000000E+00  0.00000000000E+00  0.29166255509E+03  0.29166255509E+03  0.00000000000E+00 0. -1.
         21   -1    0    0  501  503 -0.00000000000E+00 -0.00000000000E+00 -0.33812761015E+03  0.33812761015E+03  0.00000000000E+00 0.  1.
          6    2    1    2  501    0  0.25180776610E+03  0.62947385838E+02  0.17473629656E+02  0.31189301712E+03  0.17205348570E+03 0.  0.
         24    2    3    3    0    0  0.24664017291E+03  0.32207520064E+02 -0.21785858599E+02  0.26154382859E+03  0.77857892339E+02 0.  0.
         -6    2    1    2    0  502 -0.25180776610E+03 -0.62947385838E+02 -0.63938684715E+02  0.31789714812E+03  0.17204917009E+03 0.  0.
        -24    2    5    5    0    0 -0.15592967470E+03 -0.71990705338E+02  0.20022649595E+02  0.19004572773E+03  0.78865372773E+02 0.  0.
          5    1    3    3  501    0  0.51675931901E+01  0.30739865774E+02  0.39259488255E+02  0.50349188525E+02  0.47000000000E+01 0. -1.
        -13    1    4    4    0    0  0.68685359632E+02 -0.10444730663E+02 -0.35530956075E+02  0.78033453505E+02  0.00000000000E+00 0.  1.
         14    1    4    4    0    0  0.17795481327E+03  0.42652250727E+02  0.13745097476E+02  0.18351037509E+03  0.00000000000E+00 0. -1.
         -5    1    5    5    0  502 -0.95878091393E+02  0.90433195009E+01 -0.83961334310E+02  0.12785142039E+03  0.47000000000E+01 0.  1.
         13    1    6    6    0    0 -0.28335261830E+02 -0.27944007791E+02  0.36575937875E+02  0.54051400221E+02  0.00000000000E+00 0. -1.
        -14    1    6    6    0    0 -0.12759441287E+03 -0.44046697547E+02 -0.16553288280E+02  0.13599432751E+03  0.00000000000E+00 0.  1.
</event>
<event>
12    1  0.8226261E-002  0.1974525E+03  0.7818608E-02  0.1152505E+00
         21   -1    0    0  501  502  0.00000000000E+00  0.00000000000E+00  0.10604485488E+03  0.10604485488E+03  0.00000000000E+00 0.  1.
         21   -1    0    0  502  503 -0.00000000000E+00 -0.00000000000E+00 -0.43030254746E+03  0.43030254746E+03  0.00000000000E+00 0.  1.
         -6    2    1    2    0  503 -0.43990392502E+02 -0.84584941286E+02 -0.26953703685E+03  0.33412231781E+03  0.17290963566E+03 0.  0.
        -24    2    3    3    0    0 -0.72653542400E+02 -0.72010263368E+02 -0.11038180580E+03  0.17185039708E+03  0.82972288585E+02 0.  0.
          6    2    1    2  501    0  0.43990392502E+02  0.84584941286E+02 -0.54720655725E+02  0.20222508453E+03  0.16973764380E+03 0.  0.
         24    2    5    5    0    0 -0.28692043449E+02  0.76783601868E+02 -0.59531613421E+02  0.12881641537E+03  0.79565702412E+02 0.  0.
          5    1    5    5  501    0  0.72682435952E+02  0.78013394177E+01  0.48109576959E+01  0.73408669151E+02  0.47000000000E+01 0. -1.
        -11    1    6    6    0    0  0.26055489099E+02  0.11361082612E+02 -0.97747956575E+01  0.30058432103E+02  0.00000000000E+00 0.  1.
         12    1    6    6    0    0 -0.54747532549E+02  0.65422519256E+02 -0.49756817763E+02  0.98757983272E+02  0.00000000000E+00 0. -1.
         -5    1    3    3    0  503  0.28663149898E+02 -0.12574677918E+02 -0.15915523105E+03  0.16227192073E+03  0.47000000000E+01 0.  1.
         11    1    4    4    0    0 -0.10036696993E+02 -0.21332688228E+02  0.11123019031E+02  0.26067996201E+02  0.00000000000E+00 0. -1.
        -12    1    4    4    0    0 -0.62616845407E+02 -0.50677575140E+02 -0.12150482483E+03  0.14578240088E+03  0.00000000000E+00 0.  1.
</event>
<event>
12    1  0.8226261E-002  0.2716495E+03  0.7818608E-02  0.1101428E+00
         21   -1    0    0  503  502  0.00000000000E+00  0.00000000000E+00  0.66971798487E+02  0.66971798487E+02  0.00000000000E+00 0. -1.
         21   -1    0    0  501  503 -0.00000000000E+00 -0.00000000000E+00 -0.11687636949E+04  0.11687636949E+04  0.00000000000E+00 0. -1.
          6    2    1    2  501    0 -0.88786694748E+02  0.18994451514E+03 -0.36548863215E+03  0.45091962525E+03  0.16057575223E+03 0.  0.
         24    2    3    3    0    0 -0.37658489279E+02  0.16276276541E+03 -0.33960844419E+03  0.38732076487E+03  0.82301882792E+02 0.  0.
         -6    2    1    2    0  502  0.88786694748E+02 -0.18994451514E+03 -0.73630326423E+03  0.78481586811E+03  0.17271784484E+03 0.  0.
        -24    2    5    5    0    0  0.10637561475E+03 -0.82969299209E+02 -0.34786749592E+03  0.38150766954E+03  0.79602959589E+02 0.  0.
          5    1    3    3  501    0 -0.51128205469E+02  0.27181749729E+02 -0.25880187960E+02  0.63598860380E+02  0.47000000000E+01 0. -1.
        -11    1    4    4    0    0  0.85905317031E+00 -0.61672944409E+01 -0.45850249172E+02  0.46271144812E+02  0.00000000000E+00 0.  1.
         12    1    4    4    0    0 -0.38517542449E+02  0.16893005985E+03 -0.29375819502E+03  0.34104962005E+03  0.00000000000E+00 0. -1.
         -5    1    5    5    0  502 -0.17588920004E+02 -0.10697521593E+03 -0.38843576831E+03  0.40330819857E+03  0.47000000000E+01 0.  1.
         11    1    6    6    0    0  0.76725095285E+02 -0.95906462989E+01 -0.18094677691E+03  0.19677514278E+03  0.00000000000E+00 0. -1.
        -12    1    6    6    0    0  0.29650519467E+02 -0.73378652910E+02 -0.16692071901E+03  0.18473252676E+03  0.00000000000E+00 0.  1.
</event>
<event>
12    1  0.8226261E-002  0.1973828E+03  0.7818608E-02  0.1152321E+00
         21   -1    0    0  501  502  0.00000000000E+00  0.00000000000E+00  0.90964375824E+02  0.90964375824E+02  0.00000000000E+00 0.  1.
         21   -1    0    0  502  503 -0.00000000000E+00 -0.00000000000E+00 -0.44262436768E+03  0.44262436768E+03  0.00000000000E+00 0.  1.
         -6    2    1    2    0  503 -0.49045520408E+02 -0.84725249284E+02 -0.22875488170E+03  0.30106854871E+03  0.16949821291E+03 0.  0.
        -24    2    3    3    0    0  0.18629836264E+02  0.49031220117E+01 -0.78922721854E+02  0.11375873859E+03  0.79631295205E+02 0.  0.
          6    2    1    2  501    0  0.49045520408E+02  0.84725249284E+02 -0.12290511015E+03  0.23252019480E+03  0.17139470221E+03 0.  0.
         24    2    5    5    0    0  0.89734209858E+02  0.33828770359E+02 -0.10935276455E+03  0.16579855597E+03  0.79589697353E+02 0.  0.
          5    1    5    5  501    0 -0.40688689450E+02  0.50896478925E+02 -0.13552345608E+02  0.66721638826E+02  0.47000000000E+01 0. -1.
        -13    1    6    6    0    0  0.45799404137E+02  0.57489450693E+02 -0.76294293756E+02  0.10594074580E+03  0.00000000000E+00 0.  1.
         14    1    6    6    0    0  0.43934805721E+02 -0.23660680334E+02 -0.33058470790E+02  0.59857810172E+02  0.00000000000E+00 0. -1.
         -5    1    3    3    0  503 -0.67675356672E+02 -0.89628371296E+02 -0.14983215984E+03  0.18730981012E+03  0.47000000000E+01 0.  1.
         11    1    4    4    0    0 -0.64521117066E+01  0.36166827348E+02 -0.57706549600E+02  0.68408442554E+02  0.00000000000E+00 0. -1.
        -12    1    4    4    0    0  0.25081947971E+02 -0.31263705337E+02 -0.21216172253E+02  0.45350296035E+02  0.00000000000E+00 0.  1.
</event>
<event>
12    1  0.8226261E-002  0.2738666E+03  0.7818608E-02  0.1099552E+00
         21   -1    0    0  501  502  0.00000000000E+00  0.00000000000E+00  0.50934087662E+03  0.50934087662E+03  0.00000000000E+00 0.  1.
         21   -1    0    0  502  503 -0.00000000000E+00 -0.00000000000E+00 -0.20537577944E+03  0.20537577944E+03  0.00000000000E+00 0. -1.
         -6    2    1    2    0  503 -0.20738999524E+03 -0.38236865808E+02 -0.41631720803E+02  0.27376306354E+03  0.16952978131E+03 0.  0.
        -24    2    3    3    0    0 -0.14062497891E+03  0.21733235098E+02  0.19725146741E+02  0.16494791936E+03  0.81061806585E+02 0.  0.
          6    2    1    2  501    0  0.20738999524E+03  0.38236865808E+02  0.34559681799E+03  0.44095359252E+03  0.17472905346E+03 0.  0.
         24    2    5    5    0    0  0.68592221795E+02  0.75870473892E+02  0.15559168922E+03  0.20261528396E+03  0.79893415503E+02 0.  0.
          5    1    5    5  501    0  0.13879777344E+03 -0.37633608083E+02  0.19000512877E+03  0.23833830856E+03  0.47000000000E+01 0. -1.
        -13    1    6    6    0    0  0.33099806085E+02  0.17784205344E+02  0.12011255287E+03  0.12585269357E+03  0.00000000000E+00 0.  1.
         14    1    6    6    0    0  0.35492415710E+02  0.58086268547E+02  0.35479136346E+02  0.76762590385E+02  0.00000000000E+00 0. -1.
         -5    1    3    3    0  503 -0.66765016326E+02 -0.59970100906E+02 -0.61356867544E+02  0.10881514418E+03  0.47000000000E+01 0.  1.
         13    1    4    4    0    0 -0.10342696594E+03  0.18848822892E+02 -0.23625829969E+02  0.10775247213E+03  0.00000000000E+00 0. -1.
        -14    1    4    4    0    0 -0.37198012973E+02  0.28844122057E+01  0.43350976711E+02  0.57195447237E+02  0.00000000000E+00 0.  1.
</event>
<event>
12    1  0.8226261E-002  0.2697374E+03  0.7818608E-02  0.1101586E+00
         21   -1    0    0  501  502  0.00000000000E+00  0.00000000000E+00  0.75455371627E+02  0.75455371627E+02  0.00000000000E+00 0. -1.
         21   -1    0    0  502  503 -0.00000000000E+00 -0.00000000000E+00 -0.11883336704E+04  0.11883336704E+04  0.00000000000E+00 0. -1.
         -6    2    1    2    0  503 -0.19457524037E+03  0.72882221255E+02 -0.27876742140E+03  0.38714815388E+03  0.17029702133E+03 0.  0.
        -24    2    3    3    0    0 -0.12875825479E+03  0.50608959833E+02 -0.82471850388E+02  0.17886465726E+03  0.77788202938E+02 0.  0.
          6    2    1    2  501    0  0.19457524037E+03 -0.72882221255E+02 -0.83411087739E+03  0.87664088817E+03  0.17200857155E+03 0.  0.
         24    2    5    5    0    0  0.21141436167E+03 -0.43055902312E+02 -0.65420384541E+03  0.69344210143E+03  0.79557737758E+02 0.  0.
          5    1    5    5  501    0 -0.16839121295E+02 -0.29826318942E+02 -0.17990703198E+03  0.18319878674E+03  0.47000000000E+01 0. -1.
        -11    1    6    6    0    0  0.30098868196E+02  0.21283735795E+02 -0.86648428275E+02  0.94164161966E+02  0.00000000000E+00 0.  1.
         12    1    6    6    0    0  0.18131549347E+03 -0.64339638107E+02 -0.56755541713E+03  0.59927793946E+03  0.00000000000E+00 0. -1.
         -5    1    3    3    0  503 -0.65816985581E+02  0.22273261421E+02 -0.19629557101E+03  0.20828349662E+03  0.47000000000E+01 0.  1.
         11    1    4    4    0    0 -0.52086525415E+02  0.13113891572E+02 -0.76277674083E+02  0.93291284939E+02  0.00000000000E+00 0. -1.
        -12    1    4    4    0    0 -0.76671729379E+02  0.37495068261E+02 -0.61941763048E+01  0.85573372318E+02  0.00000000000E+00 0.  1.
</event>
<event>
12    1  0.8226261E-002  0.2528721E+03  0.7818608E-02  0.1111517E+00
         21   -1    0    0  503  502  0.00000000000E+00  0.00000000000E+00  0.26166875416E+03  0.26166875416E+03  0.00000000000E+00 0.  1.
         21   -1    0    0  501  503 -0.00000000000E+00 -0.00000000000E+00 -0.43097288912E+03  0.43097288912E+03  0.00000000000E+00 0. -1.
          6    2    1    2  501    0 -0.10168950304E+03  0.15508621425E+03 -0.31259771206E+03  0.40207164169E+03  0.17190633085E+03 0.  0.
         24    2    3    3    0    0 -0.16380134633E+02  0.39256649750E+02 -0.19685404396E+03  0.21737496317E+03  0.81798329018E+02 0.  0.
         -6    2    1    2    0  502  0.10168950304E+03 -0.15508621425E+03  0.14329357709E+03  0.29057000160E+03  0.17177132389E+03 0.  0.
        -24    2    5    5    0    0  0.42960707100E+02 -0.47056049376E+02  0.13415320895E+03  0.16717946579E+03  0.76759339331E+02 0.  0.
          5    1    3    3  501    0 -0.85309368411E+02  0.11582956450E+03 -0.11574366810E+03  0.18469667852E+03  0.47000000000E+01 0. -1.
        -11    1    4    4    0    0  0.11745571090E+02  0.34006458562E+02 -0.26624768822E+02  0.44757971123E+02  0.00000000000E+00 0.  1.
         12    1    4    4    0    0 -0.28125705723E+02  0.52501911871E+01 -0.17022927513E+03  0.17261699204E+03  0.00000000000E+00 0. -1.
         -5    1    5    5    0  502  0.58728795944E+02 -0.10803016488E+03  0.91403681481E+01  0.12339053580E+03  0.47000000000E+01 0.  1.
         13    1    6    6    0    0  0.41367698109E+02  0.53029711610E+01  0.32686412185E+02  0.52988767597E+02  0.00000000000E+00 0. -1.
        -14    1    6    6    0    0  0.15930089916E+01 -0.52359020537E+02  0.10146679676E+03  0.11419069819E+03  0.00000000000E+00 0.  1.
</event>
<event>
12    1  0.8226261E-002  0.1868684E+03  0.7818608E-02  0.1161615E+00
         21   -1    0    0  501  502  0.00000000000E+00  0.00000000000E+00  0.12689238726E+03  0.12689238726E+03  0.00000000000E+00 0.  1.
         21   -1    0    0  502  503 -0.00000000000E+00 -0.00000000000E+00 -0.28698424044E+03  0.28698424044E+03  0.00000000000E+00 0.  1.
         -6    2    1    2    0  503 -0.35701041192E+02 -0.64786864260E+02 -0.12550816010E+03  0.22510465434E+03  0.17160391905E+03 0.  0.
        -24    2    3    3    0    0 -0.25666662962E+02  0.31378321969E+02 -0.13281412280E+02  0.76897486111E+02  0.63980081126E+02 0.  0.
          6    2    1    2  501    0  0.35701041192E+02  0.64786864260E+02 -0.34583693079E+02  0.18877197336E+03  0.17019672140E+03 0.  0.
         24    2    5    5    0    0 -0.60801142548E+01 -0.21551468360E+02  0.10684043733E+02  0.82605921220E+02  0.78791851433E+02 0.  0.
          5    1    5    5  501    0  0.41781155447E+02  0.86338332620E+02 -0.45267736812E+02  0.10616605214E+03  0.47000000000E+01 0. -1.
        -13    1    6    6    0    0 -0.31093910417E+02  0.87254706907E+01  0.24962387564E+02  0.40817715476E+02  0.00000000000E+00 0.  1.
         14    1    6    6    0    0  0.25013796162E+02 -0.30276939051E+02 -0.14278343832E+02  0.41788205744E+02  0.00000000000E+00 0. -1.
         -5    1    3    3    0  503 -0.10034378230E+02 -0.96165186229E+02 -0.11222674782E+03  0.14820716823E+03  0.47000000000E+01 0.  1.
         11    1    4    4    0    0  0.37389570418E+01 -0.11313209441E+02  0.13946406954E+02  0.18343139713E+02  0.00000000000E+00 0. -1.
        -12    1    4    4    0    0 -0.29405620004E+02  0.42691531410E+02 -0.27227819234E+02  0.58554346399E+02  0.00000000000E+00 0.  1.
</event>
<event>
12    1  0.8226261E-002  0.1975297E+03  0.7818608E-02  0.1152673E+00
         21   -1    0    0  503  502  0.00000000000E+00  0.00000000000E+00  0.25686835448E+03  0.25686835448E+03  0.00000000000E+00 0.  1.
         21   -1    0    0  501  503 -0.00000000000E+00 -0.00000000000E+00 -0.14968268940E+03  0.14968268940E+03  0.00000000000E+00 0.  1.
          6    2    1    2  501    0  0.86989128479E+02  0.17100580275E+02  0.67241075165E+02  0.20502301863E+03  0.17220202572E+03 0.  0.
         24    2    3    3    0    0  0.11985464893E+03 -0.16525572330E+02  0.59136655546E+02  0.15707896592E+03  0.80860534833E+02 0.  0.
         -6    2    1    2    0  502 -0.86989128479E+02 -0.17100580275E+02  0.39944589919E+02  0.20152802525E+03  0.17651752428E+03 0.  0.
        -24    2    5    5    0    0 -0.11688975073E+03  0.27033931780E+02  0.25301805833E+02  0.14604466296E+03  0.79339869589E+02 0.  0.
          5    1    3    3  501    0 -0.32865520451E+02  0.33626152605E+02  0.81044196182E+01  0.47944052716E+02  0.47000000000E+01 0. -1.
        -11    1    4    4    0    0  0.10099192016E+03  0.36479026228E+01  0.11095782614E+02  0.10166509490E+03  0.00000000000E+00 0.  1.
         12    1    4    4    0    0  0.18862728775E+02 -0.20173474953E+02  0.48040872932E+02  0.55413871012E+02  0.00000000000E+00 0. -1.
         -5    1    5    5    0  502  0.29900622253E+02 -0.44134512055E+02  0.14642784086E+02  0.55483362292E+02  0.47000000000E+01 0.  1.
         13    1    6    6    0    0 -0.17595294927E+02  0.39941127647E+02  0.96465516221E+01  0.44698367302E+02  0.00000000000E+00 0. -1.
        -14    1    6    6    0    0 -0.99294455806E+02 -0.12907195867E+02  0.15655254211E+02  0.10134629566E+03  0.00000000000E+00 0.  1.
</event>
<event>
12    1  0.8226261E-002  0.1968124E+03  0.7818608E-02  0.1152794E+00
         21   -1    0    0  501  502  0.00000000000E+00  0.00000000000E+00  0.30054806635E+03  0.30054806635E+03  0.00000000000E+00 0. -1.
         21   -1    0    0  502  503 -0.00000000000E+00 -0.00000000000E+00 -0.16661543870E+03  0.16661543870E+03  0.00000000000E+00 0.  1.
         -6    2    1    2    0  503 -0.95472816448E+02  0.12094223523E+01 -0.45887450544E+02  0.20057319725E+03  0.17031567149E+03 0.  0.
        -24    2    3    3    0    0  0.39868614439E+01 -0.14655860488E+02  0.15471325337E+02  0.82543861479E+02  0.79645702014E+02 0.  0.
          6    2    1    2  501    0  0.95472816448E+02 -0.12094223523E+01  0.17982007819E+03  0.26659030780E+03  0.17210058196E+03 0.  0.
         24    2    5    5    0    0  0.89893028628E+02 -0.22734077297E+02  0.20115551384E+03  0.23541763359E+03  0.79751655730E+02 0.  0.
          5    1    5    5  501    0  0.55797878202E+01  0.21524654945E+02 -0.21335435653E+02  0.31172674205E+02  0.47000000000E+01 0. -1.
        -11    1    6    6    0    0  0.68232515459E+02 -0.44942532981E+02  0.97438135256E+02  0.12716012598E+03  0.00000000000E+00 0.  1.
         12    1    6    6    0    0  0.21660513169E+02  0.22208455684E+02  0.10371737858E+03  0.10825750761E+03  0.00000000000E+00 0. -1.
         -5    1    3    3    0  503 -0.99459677892E+02  0.15865282840E+02 -0.61358775881E+02  0.11802933578E+03  0.47000000000E+01 0.  1.
         11    1    4    4    0    0 -0.24948950070E+02  0.12832560738E+02  0.29050139379E+02  0.40386078327E+02  0.00000000000E+00 0. -1.
        -12    1    4    4    0    0  0.28935811514E+02 -0.27488421226E+02 -0.13578814042E+02  0.42157783152E+02  0.00000000000E+00 0.  1.
</event>
<event>
12    1  0.8226261E-002  0.2133207E+03  0.7818608E-02  0.1139123E+00
         21   -1    0    0  503  502  0.00000000000E+00  0.00000000000E+00  0.47535752204E+03  0.47535752204E+03  0.00000000000E+00 0. -1.
         21   -1    0    0  501  503 -0.00000000000E+00 -0.00000000000E+00 -0.96140424364E+02  0.96140424364E+02  0.00000000000E+00 0. -1.
          6    2    1    2  501    0 -0.11493662681E+03  0.52689930174E+02  0.21497270780E+03  0.30227324191E+03  0.17078990236E+03 0.  0.
         24    2    3    3    0    0 -0.38094967574E+02  0.73692408791E+02  0.65680100936E+02  0.13299206408E+03  0.80568081651E+02 0.  0.
         -6    2    1    2    0  502  0.11493662681E+03 -0.52689930174E+02  0.16424438987E+03  0.26922470449E+03  0.17181113171E+03 0.  0.
        -24    2    5    5    0    0  0.55094995463E+02 -0.67096399873E+02  0.28298574808E+02  0.11991990938E+03  0.77734097586E+02 0.  0.
          5    1    3    3  501    0 -0.76841659240E+02 -0.21002478616E+02  0.14929260687E+03  0.16928117783E+03  0.47000000000E+01 0. -1.
        -11    1    4    4    0    0  0.16920489603E+02  0.95544764492E+01 -0.78703835177E+01  0.20965064401E+02  0.00000000000E+00 0.  1.
         12    1    4    4    0    0 -0.55015457176E+02  0.64137932341E+02  0.73550484453E+02  0.11202699968E+03  0.00000000000E+00 0. -1.
         -5    1    5    5    0  502  0.59841631350E+02  0.14406469699E+02  0.13594581506E+03  0.14930479512E+03  0.47000000000E+01 0.  1.
         13    1    6    6    0    0  0.57791900952E+02 -0.48046846328E+02  0.50496631941E+02  0.90544536528E+02  0.00000000000E+00 0. -1.
        -14    1    6    6    0    0 -0.26969054884E+01 -0.19049553545E+02 -0.22198057133E+02  0.29375372848E+02  0.00000000000E+00 0.  1.
</event>
<event>
12    1  0.8226261E-002  0.2163251E+03  0.7818608E-02  0.1136889E+00
         21   -1    0    0  503  502  0.00000000000E+00  0.00000000000E+00  0.42631006551E+03  0.42631006551E+03  0.00000000000E+00 0.  1.
         21   -1    0    0  501  503 -0.00000000000E+00 -0.00000000000E+00 -0.14217719077E+03  0.14217719077E+03  0.00000000000E+00 0. -1.
          6    2    1    2  501    0  0.12286734982E+03  0.43462569592E+02  0.53716913553E+01  0.21639179796E+03  0.17265912819E+03 0.  0.
         24    2    3    3    0    0 -0.41475445152E+01  0.28796397556E+02  0.20828662366E+02  0.87516323420E+02  0.79867634566E+02 0.  0.
         -6    2    1    2    0  502 -0.12286734982E+03 -0.43462569592E+02  0.27876118339E+03  0.35209545832E+03  0.17110825170E+03 0.  0.
        -24    2    5    5    0    0 -0.13990791582E+03 -0.74107030896E+02  0.25038757640E+03  0.30674553581E+03  0.79578944374E+02 0.  0.
          5    1    3    3  501    0  0.12701489433E+03  0.14666172036E+02 -0.15456971011E+02  0.12887547454E+03  0.47000000000E+01 0. -1.
        -13    1    4    4    0    0  0.23083846080E+02  0.34814343273E+02  0.36547284076E+02  0.55503210905E+02  0.00000000000E+00 0.  1.
         14    1    4    4    0    0 -0.27231390596E+02 -0.60179457167E+01 -0.15718621710E+02  0.32013112515E+02  0.00000000000E+00 0. -1.
         -5    1    5    5    0  502  0.17040565998E+02  0.30644461304E+02  0.28373606991E+02  0.45349922511E+02  0.47000000000E+01 0.  1.
         11    1    6    6    0    0 -0.48534049317E+02 -0.68230190248E+02  0.14211824773E+03  0.16495002014E+03  0.00000000000E+00 0. -1.
        -12    1    6    6    0    0 -0.91373866499E+02 -0.58768406482E+01  0.10826932866E+03  0.14179551567E+03  0.00000000000E+00 0.  1.
</event>
<event>
12    1  0.8226261E-002  0.1885780E+03  0.7818608E-02  0.1160649E+00
         21   -1    0    0  501  502  0.00000000000E+00  0.00000000000E+00  0.39104595595E+02  0.39104595595E+02  0.00000000000E+00 0.  1.
         21   -1    0    0  502  503 -0.00000000000E+00 -0.00000000000E+00 -0.10750868436E+04  0.10750868436E+04  0.00000000000E+00 0.  1.
         -6    2    1    2    0  503 -0.19270714454E+02  0.68827319168E+02 -0.29176113410E+03  0.34739920382E+03  0.17450812917E+03 0.  0.
        -24    2    3    3    0    0 -0.77808161658E+02  0.25194567138E+02 -0.14609128352E+03  0.18438924971E+03  0.77251899989E+02 0.  0.
          6    2    1    2  501    0  0.19270714454E+02 -0.68827319168E+02 -0.74422111386E+03  0.76679223533E+03  0.17028419052E+03 0.  0.
         24    2    5    5    0    0 -0.24572544646E+02  0.14972963480E+02 -0.25401710544E+03  0.26752599512E+03  0.78850926573E+02 0.  0.
          5    1    5    5  501    0  0.43843259100E+02 -0.83800282648E+02 -0.49020400842E+03  0.49926624021E+03  0.47000000000E+01 0. -1.
        -11    1    6    6    0    0 -0.50553731483E+01  0.18276883075E+02 -0.24507080216E+03  0.24580337533E+03  0.00000000000E+00 0.  1.
         12    1    6    6    0    0 -0.19517171498E+02 -0.33039195947E+01 -0.89463032784E+01  0.21722619785E+02  0.00000000000E+00 0. -1.
         -5    1    3    3    0  503  0.58537447204E+02  0.43632752030E+02 -0.14566985058E+03  0.16300995412E+03  0.47000000000E+01 0.  1.
         11    1    4    4    0    0 -0.23077788527E+02  0.42768000285E+02 -0.98214491124E+02  0.10957998192E+03  0.00000000000E+00 0. -1.
        -12    1    4    4    0    0 -0.54730373132E+02 -0.17573433147E+02 -0.47876792398E+02  0.74809267781E+02  0.00000000000E+00 0.  1.
</event>
<event>
12    1  0.8226261E-002  0.1897011E+03  0.7818608E-02  0.1159308E+00
         21   -1    0    0  503  502  0.00000000000E+00  0.00000000000E+00  0.95024220888E+02  0.95024220888E+02  0.00000000000E+00 0.  1.
         21   -1    0    0  501  503 -0.00000000000E+00 -0.00000000000E+00 -0.37508968850E+03  0.37508968850E+03  0.00000000000E+00 0.  1.
          6    2    1    2  501    0  0.66546808588E+02  0.42989759614E+02 -0.12650471634E+03  0.22801301611E+03  0.17236558558E+03 0.  0.
         24    2    3    3    0    0  0.19401990955E+02 -0.46460538756E+02 -0.58998154787E+02  0.10634455034E+03  0.72755496047E+02 0.  0.
         -6    2    1    2    0  502 -0.66546808588E+02 -0.42989759614E+02 -0.15356075127E+03  0.24210089328E+03  0.16957399869E+03 0.  0.
        -24    2    5    5    0    0 -0.40835901370E+02  0.36771600579E+02 -0.49221349294E+02  0.10819149804E+03  0.79138723592E+02 0.  0.
          5    1    3    3  501    0  0.47144817632E+02  0.89450298370E+02 -0.67506561555E+02  0.12166846576E+03  0.47000000000E+01 0. -1.
        -13    1    4    4    0    0 -0.81665691976E+01 -0.23129336464E+02  0.11532648715E+02  0.27104631414E+02  0.00000000000E+00 0.  1.
         14    1    4    4    0    0  0.27568560153E+02 -0.23331202293E+02 -0.70530803503E+02  0.79239918930E+02  0.00000000000E+00 0. -1.
         -5    1    5    5    0  502 -0.25710907218E+02 -0.79761360192E+02 -0.10433940198E+03  0.13390939524E+03  0.47000000000E+01 0.  1.
         11    1    6    6    0    0 -0.20152468519E+02 -0.22853353132E+02 -0.44034262795E+01  0.30786164096E+02  0.00000000000E+00 0. -1.
        -12    1    6    6    0    0 -0.20683432850E+02  0.59624953710E+02 -0.44817923015E+02  0.77405333942E+02  0.00000000000E+00 0.  1.
</event>
<event>
12    1  0.8226261E-002  0.2646198E+03  0.7818608E-02  0.1104438E+00
         21   -1    0    0  501  502  0.00000000000E+00  0.00000000000E+00  0.66950902249E+02  0.66950902249E+02  0.00000000000E+00 0. -1.
         21   -1    0    0  502  503 -0.00000000000E+00 -0.00000000000E+00 -0.12876710007E+04  0.12876710007E+04  0.00000000000E+00 0. -1.
         -6    2    1    2    0  503 -0.73114499641E+01  0.20053286103E+03 -0.90423765632E+03  0.94208733535E+03  0.17209277345E+03 0.  0.
        -24    2    3    3    0    0  0.37907398802E+02  0.19077499941E+03 -0.81144738120E+03  0.83829867844E+03  0.80409890771E+02 0.  0.
          6    2    1    2  501    0  0.73114499641E+01 -0.20053286103E+03 -0.31648244217E+03  0.41253456763E+03  0.17250144242E+03 0.  0.
         24    2    5    5    0    0  0.34901719009E+02 -0.11821105177E+03 -0.26668306856E+03  0.31233391474E+03  0.10602184914E+03 0.  0.
          5    1    5    5  501    0 -0.27590269045E+02 -0.82321809268E+02 -0.49799373611E+02  0.10020065289E+03  0.47000000000E+01 0. -1.
        -11    1    6    6    0    0  0.29640299453E+02  0.12135323843E+02 -0.48303731752E+02  0.57957432117E+02  0.00000000000E+00 0.  1.
         12    1    6    6    0    0  0.52614195552E+01 -0.13034637561E+03 -0.21837933680E+03  0.25437648263E+03  0.00000000000E+00 0. -1.
         -5    1    3    3    0  503 -0.45218848766E+02  0.97578616227E+01 -0.92790275114E+02  0.10378865691E+03  0.47000000000E+01 0.  1.
         13    1    4    4    0    0  0.19923485132E+02  0.51413642837E+02 -0.11153284817E+03  0.12441818255E+03  0.00000000000E+00 0. -1.
        -14    1    4    4    0    0  0.17983913670E+02  0.13936135657E+03 -0.69991453304E+03  0.71388049589E+03  0.00000000000E+00 0.  1.
</event>
<event>
12    1  0.8226261E-002  0.2143634E+03  0.7818608E-02  0.1139591E+00
         21   -1    0    0  501  502  0.00000000000E+00  0.00000000000E+00  0.28445151942E+03  0.28445151942E+03  0.00000000000E+00 0.  1.
         21   -1    0    0  502  503 -0.00000000000E+00 -0.00000000000E+00 -0.16050578619E+03  0.16050578619E+03  0.00000000000E+00 0.  1.
         -6    2    1    2    0  503  0.96869138124E+02  0.61224025221E+02  0.97832523670E+02  0.22900928915E+03  0.17245880854E+03 0.  0.
        -24    2    3    3    0    0  0.11505421605E+03  0.45422951340E+02  0.12408424477E+03  0.19307025945E+03  0.81108002966E+02 0.  0.
          6    2    1    2  501    0 -0.96869138124E+02 -0.61224025221E+02  0.26113209560E+02  0.21594801646E+03  0.18116190249E+03 0.  0.
         24    2    5    5    0    0 -0.11123793260E+03 -0.23368615508E+02  0.72468137492E+02  0.15421987343E+03  0.74914408288E+02 0.  0.
          5    1    5    5  501    0  0.14368794473E+02 -0.37855409712E+02 -0.46354927931E+02  0.61728143036E+02  0.47000000000E+01 0. -1.
        -11    1    6    6    0    0 -0.65810248479E+02 -0.47303460988E+02  0.61436651369E+02  0.10170087688E+03  0.00000000000E+00 0.  1.
         12    1    6    6    0    0 -0.45427684118E+02  0.23934845479E+02  0.11031486123E+02  0.52518996549E+02  0.00000000000E+00 0. -1.
         -5    1    3    3    0  503 -0.18185077929E+02  0.15801073881E+02 -0.26251721096E+02  0.35939029697E+02  0.47000000000E+01 0.  1.
         13    1    4    4    0    0  0.28456185870E+02 -0.13179478852E+02  0.66914898015E+02  0.73898963142E+02  0.00000000000E+00 0. -1.
        -14    1    4    4    0    0  0.86598030183E+02  0.58602430191E+02  0.57169346751E+02  0.11917129631E+03  0.00000000000E+00 0.  1.
</event>
<event>
12    1  0.8226261E-002  0.2649184E+03  0.7818608E-02  0.1104265E+00
         21   -1    0    0  501  502  0.00000000000E+00  0.00000000000E+00  0.11004923093E+03  0.11004923093E+03  0.00000000000E+00 0. -1.
         21   -1    0    0  502  503 -0.00000000000E+00 -0.00000000000E+00 -0.12515056028E+04  0.12515056028E+04  0.00000000000E+00 0. -1.
         -6    2    1    2    0  503 -0.17513928784E+03  0.99566834576E+02 -0.10475887219E+04  0.10804980734E+04  0.17160020876E+03 0.  0.
        -24    2    3    3    0    0 -0.17533684819E+03  0.11741039451E+03 -0.76650794376E+03  0.79881221023E+03  0.77706552450E+02 0.  0.
          6    2    1    2  501    0  0.17513928784E+03 -0.99566834576E+02 -0.93867649934E+02  0.28105676032E+03  0.17203035233E+03 0.  0.
         24    2    5    5    0    0  0.63067684498E+02 -0.99185172547E+02 -0.92329170001E+02  0.16887544787E+03  0.78606678976E+02 0.  0.
          5    1    5    5  501    0  0.11207160334E+03 -0.38166202846E+00 -0.15384799334E+01  0.11218131245E+03  0.47000000000E+01 0. -1.
        -13    1    6    6    0    0 -0.14995124771E+02 -0.29264065983E+02 -0.67364456352E+01  0.33565145978E+02  0.00000000000E+00 0.  1.
         14    1    6    6    0    0  0.78062809269E+02 -0.69921106564E+02 -0.85592724365E+02  0.13531030189E+03  0.00000000000E+00 0. -1.
         -5    1    3    3    0  503  0.19756035052E+00 -0.17843559935E+02 -0.28108077818E+03  0.28168586319E+03  0.47000000000E+01 0.  1.
         13    1    4    4    0    0 -0.11327340166E+02  0.17740868432E+02 -0.24094834940E+02  0.31993876269E+02  0.00000000000E+00 0. -1.
        -14    1    4    4    0    0 -0.16400950803E+03  0.99669526079E+02 -0.74241310882E+03  0.76681833396E+03  0.00000000000E+00 0.  1.
</event>
<event>
12    1  0.8226261E-002  0.2834803E+03  0.7818608E-02  0.1093925E+00
         21   -1    0    0  501  502  0.00000000000E+00  0.00000000000E+00  0.15655401122E+03  0.15655401122E+03  0.00000000000E+00 0.  1.
         21   -1    0    0  502  503 -0.00000000000E+00 -0.00000000000E+00 -0.83868909465E+03  0.83868909465E+03  0.00000000000E+00 0. -1.
         -6    2    1    2    0  503  0.21891285789E+03  0.48840628173E+02 -0.65146335975E+03  0.71010833195E+03  0.17187520964E+03 0.  0.
        -24    2    3    3    0    0  0.78403023393E+02  0.15124429798E+02 -0.44045655063E+03  0.45432373679E+03  0.77667897891E+02 0.  0.
          6    2    1    2  501    0 -0.21891285789E+03 -0.48840628173E+02 -0.30671723683E+02  0.28513477392E+03  0.17335754485E+03 0.  0.
         24    2    5    5    0    0 -0.10696399115E+03  0.37397649224E+02 -0.36667854200E+02  0.14361575459E+03  0.80256301084E+02 0.  0.
          5    1    5    5  501    0 -0.11194886674E+03 -0.86238277397E+02  0.59961305171E+01  0.14151901934E+03  0.47000000000E+01 0. -1.
        -11    1    6    6    0    0 -0.11916252562E+03  0.26615637932E+02 -0.28408773587E+02  0.12536011372E+03  0.00000000000E+00 0.  1.
         12    1    6    6    0    0  0.12198534474E+02  0.10782011293E+02 -0.82590806131E+01  0.18255640865E+02  0.00000000000E+00 0. -1.
         -5    1    3    3    0  503  0.14050983450E+03  0.33716198375E+02 -0.21100680912E+03  0.25578459515E+03  0.47000000000E+01 0.  1.
         13    1    4    4    0    0  0.93541389461E+02  0.12575007365E+02 -0.40166446522E+03  0.41260448976E+03  0.00000000000E+00 0. -1.
        -14    1    4    4    0    0 -0.15138366067E+02  0.25494224331E+01 -0.38792085415E+02  0.41719247030E+02  0.00000000000E+00 0.  1.
</event>
<event>
12    1  0.8226261E-002  0.2872763E+03  0.7818608E-02  0.1091949E+00
         21   -1    0    0  501  502  0.00000000000E+00  0.00000000000E+00  0.62878782072E+03  0.62878782072E+03  0.00000000000E+00 0. -1.
         21   -1    0    0  502  503 -0.00000000000E+00 -0.00000000000E+00 -0.13328667786E+03  0.13328667786E+03  0.00000000000E+00 0.  1.
         -6    2    1    2    0  503 -0.21891195253E+03  0.70746984376E+02  0.30170779140E+03  0.41659962602E+03  0.17204673274E+03 0.  0.
        -24    2    3    3    0    0 -0.16945127204E+03  0.96554192248E+02  0.16246986393E+03  0.26652743893E+03  0.81264834819E+02 0.  0.
          6    2    1    2  501    0  0.21891195253E+03 -0.70746984376E+02  0.19379335147E+03  0.34547487256E+03  0.16991011077E+03 0.  0.
         24    2    5    5    0    0  0.23350682717E+03 -0.74383276830E+02  0.14791199547E+03  0.29696279349E+03  0.79060939174E+02 0.  0.
          5    1    5    5  501    0 -0.14594874641E+02  0.36362924540E+01  0.45881355993E+02  0.48512079077E+02  0.47000000000E+01 0. -1.
        -13    1    6    6    0    0  0.18422681150E+03 -0.30927370951E+02  0.82372090843E+02  0.20415969656E+03  0.00000000000E+00 0.  1.
         14    1    6    6    0    0  0.49280015670E+02 -0.43455905879E+02  0.65539904630E+02  0.92803096926E+02  0.00000000000E+00 0. -1.
         -5    1    3    3    0  503 -0.49460680489E+02 -0.25807207872E+02  0.13923792747E+03  0.15007218709E+03  0.47000000000E+01 0.  1.
         11    1    4    4    0    0 -0.82879884148E+02  0.74620112225E+02  0.13052324517E+03  0.17167863547E+03  0.00000000000E+00 0. -1.
        -12    1    4    4    0    0 -0.86571387890E+02  0.21934080023E+02  0.31946618760E+02  0.94848803460E+02  0.00000000000E+00 0.  1.
</event>
<event>
12    1  0.8226261E-002  0.2131164E+03  0.7818608E-02  0.1139181E+00
         21   -1    0    0  503  502  0.00000000000E+00  0.00000000000E+00  0.14096114965E+04  0.14096114965E+04  0.00000000000E+00 0.  1.
         21   -1    0    0  501  503 -0.00000000000E+00 -0.00000000000E+00 -0.68204887519E+02  0.68204887519E+02  0.00000000000E+00 0.  1.
          6    2    1    2  501    0  0.11821560393E+03 -0.42458264530E+02  0.13342390254E+03  0.25117837233E+03  0.17178767046E+03 0.  0.
         24    2    3    3    0    0  0.12990987455E+03  0.77634217925E+01  0.12531995598E+03  0.19876904404E+03  0.82868542139E+02 0.  0.
         -6    2    1    2    0  502 -0.11821560393E+03  0.42458264530E+02  0.12079827064E+04  0.12266380117E+04  0.17216550004E+03 0.  0.
        -24    2    5    5    0    0 -0.23437182151E+02 -0.22164798874E+02  0.72524969612E+03  0.73044012896E+03  0.80716048373E+02 0.  0.
          5    1    3    3  501    0 -0.11694270626E+02 -0.50221686322E+02  0.81039465523E+01  0.52409328294E+02  0.47000000000E+01 0. -1.
        -13    1    4    4    0    0  0.87634751654E+02 -0.19478393649E+02  0.36929119884E+02  0.97072227810E+02  0.00000000000E+00 0.  1.
         14    1    4    4    0    0  0.42275122897E+02  0.27241815442E+02  0.88390836099E+02  0.10169681623E+03  0.00000000000E+00 0. -1.
         -5    1    5    5    0  502 -0.94778421774E+02  0.64623063403E+02  0.48273301029E+03  0.49619788269E+03  0.47000000000E+01 0.  1.
         13    1    6    6    0    0  0.74943369604E+00 -0.22715071928E+02  0.51926329245E+02  0.56682270706E+02  0.00000000000E+00 0. -1.
        -14    1    6    6    0    0 -0.24186615847E+02  0.55027305403E+00  0.67332336687E+03  0.67375785826E+03  0.00000000000E+00 0.  1.
</event>
<event>
12    1  0.8226261E-002  0.1736723E+03  0.7818608E-02  0.1174311E+00
         21   -1    0    0  501  502  0.00000000000E+00  0.00000000000E+00  0.35199171493E+02  0.35199171493E+02  0.00000000000E+00 0. -1.
         21   -1    0    0  502  503 -0.00000000000E+00 -0.00000000000E+00 -0.11844269750E+04  0.11844269750E+04  0.00000000000E+00 0. -1.
         -6    2    1    2    0  503 -0.11388415826E+02  0.98038928374E+01 -0.89642948506E+03  0.91291935832E+03  0.17207591572E+03 0.  0.
        -24    2    3    3    0    0 -0.44760445280E+02  0.47481480176E+02 -0.76929100145E+03  0.77609985330E+03  0.79147640264E+02 0.  0.
          6    2    1    2  501    0  0.11388415826E+02 -0.98038928374E+01 -0.25279831842E+03  0.30670678815E+03  0.17302095761E+03 0.  0.
         24    2    5    5    0    0  0.43639292655E+02 -0.62908708880E+02 -0.18429253930E+03  0.21410348197E+03  0.77554287009E+02 0.  0.
          5    1    5    5  501    0 -0.32250876829E+02  0.53104816042E+02 -0.68505779120E+02  0.92603306183E+02  0.47000000000E+01 0. -1.
        -13    1    6    6    0    0 -0.20070502136E+02 -0.32747121752E+02 -0.61059172541E+02  0.72134746069E+02  0.00000000000E+00 0.  1.
         14    1    6    6    0    0  0.63709794791E+02 -0.30161587128E+02 -0.12323336676E+03  0.14196873590E+03  0.00000000000E+00 0. -1.
         -5    1    3    3    0  503  0.33372029454E+02 -0.37677587339E+02 -0.12713848361E+03  0.13681950502E+03  0.47000000000E+01 0.  1.
         13    1    4    4    0    0 -0.32199476776E+02 -0.26681491903E+01 -0.54376661341E+03  0.54472566966E+03  0.00000000000E+00 0. -1.
        -14    1    4    4    0    0 -0.12560968504E+02  0.50149629367E+02 -0.22552438804E+03  0.23137418364E+03  0.00000000000E+00 0.  1.
</event>
<event>
12    1  0.8226261E-002  0.1783524E+03  0.7818608E-02  0.1169706E+00
         21   -1    0    0  501  502  0.00000000000E+00  0.00000000000E+00  0.61402471145E+03  0.61402471145E+03  0.00000000000E+00 0. -1.
         21   -1    0    0  502  503 -0.00000000000E+00 -0.00000000000E+00 -0.83345403610E+02  0.83345403610E+02  0.00000000000E+00 0. -1.
         -6    2    1    2    0  503 -0.13599566351E+02  0.45781011499E+02  0.50205615640E+02  0.18528409622E+03  0.17183929484E+03 0.  0.
        -24    2    3    3    0    0  0.36860577011E+02 -0.23942862041E+02  0.31773791530E+02  0.97139517546E+02  0.80588766342E+02 0.  0.
          6    2    1    2  501    0  0.13599566351E+02 -0.45781011499E+02  0.48047369220E+03  0.51208601885E+03  0.17057629547E+03 0.  0.
         24    2    5    5    0    0 -0.41580371825E+02 -0.29388564496E+02  0.15748536011E+03  0.18397461922E+03  0.80326874851E+02 0.  0.
          5    1    5    5  501    0  0.55179938176E+02 -0.16392447002E+02  0.32298833210E+03  0.32811139963E+03  0.47000000000E+01 0. -1.
        -13    1    6    6    0    0 -0.27278269193E+02 -0.42866910480E+02  0.39484040230E+02  0.64348002433E+02  0.00000000000E+00 0.  1.
         14    1    6    6    0    0 -0.14302102633E+02  0.13478345984E+02  0.11800131988E+03  0.11962661678E+03  0.00000000000E+00 0. -1.
         -5    1    3    3    0  503 -0.50460143362E+02  0.69723873539E+02  0.18431824110E+02  0.88144578673E+02  0.47000000000E+01 0.  1.
         13    1    4    4    0    0 -0.12942464670E+02 -0.27776450078E+01 -0.18852760273E+02  0.23035825868E+02  0.00000000000E+00 0. -1.
        -14    1    4    4    0    0  0.49803041682E+02 -0.21165217033E+02  0.50626551803E+02  0.74103691678E+02  0.00000000000E+00 0.  1.
</event>
<event>
12    1  0.8226261E-002  0.1810797E+03  0.7818608E-02  0.1166767E+00
         21   -1    0    0  503  502  0.00000000000E+00  0.00000000000E+00  0.10810971229E+03  0.10810971229E+03  0.00000000000E+00 0. -1.
         21   -1    0    0  501  503 -0.00000000000E+00 -0.00000000000E+00 -0.36145921318E+03  0.36145921318E+03  0.00000000000E+00 0. -1.
          6    2    1    2  501    0  0.43926691614E+02  0.37534287338E+02 -0.32477090402E+02  0.18396906995E+03  0.17161433604E+03 0.  0.
         24    2    3    3    0    0  0.67773489830E+02 -0.25853598570E+02  0.91168112430E+00  0.10831463234E+03  0.80433661697E+02 0.  0.
         -6    2    1    2    0  502 -0.43926691614E+02 -0.37534287338E+02 -0.22087241048E+03  0.28559985552E+03  0.17159335302E+03 0.  0.
        -24    2    5    5    0    0 -0.38379664596E+02 -0.88231906366E+02 -0.11650364574E+03  0.16934174984E+03  0.76456921281E+02 0.  0.
          5    1    3    3  501    0 -0.23846798216E+02  0.63387885909E+02 -0.33388771527E+02  0.75654437604E+02  0.47000000000E+01 0. -1.
        -13    1    4    4    0    0  0.81343268396E+02 -0.67417441337E+01 -0.10411584774E+02  0.82283531310E+02  0.00000000000E+00 0.  1.
         14    1    4    4    0    0 -0.13569778566E+02 -0.19111854437E+02  0.11323265898E+02  0.26031101032E+02  0.00000000000E+00 0. -1.
         -5    1    5    5    0  502 -0.55470270177E+01  0.50697619028E+02 -0.10436876474E+03  0.11625810568E+03  0.47000000000E+01 0.  1.
         13    1    6    6    0    0  0.10496586785E+02 -0.62558871328E+02 -0.84051370272E+02  0.10530158385E+03  0.00000000000E+00 0. -1.
        -14    1    6    6    0    0 -0.48876251381E+02 -0.25673035038E+02 -0.32452275470E+02  0.64040165992E+02  0.00000000000E+00 0.  1.
</event>
<event>
12    1  0.8226261E-002  0.1781061E+03  0.7818608E-02  0.1170050E+00
         21   -1    0    0  503  502  0.00000000000E+00  0.00000000000E+00  0.46771151746E+03  0.46771151746E+03  0.00000000000E+00 0. -1.
         21   -1    0    0  501  503 -0.00000000000E+00 -0.00000000000E+00 -0.79134664743E+02  0.79134664743E+02  0.00000000000E+00 0. -1.
          6    2    1    2  501    0 -0.73349955893E+01  0.42099508764E+02  0.88887312505E+02  0.19905456581E+03  0.17290342694E+03 0.  0.
         24    2    3    3    0    0 -0.38064654874E+02  0.16017497876E+01  0.97169981437E+02  0.14733345749E+03  0.10398874386E+03 0.  0.
         -6    2    1    2    0  502  0.73349955893E+01 -0.42099508764E+02  0.29968954021E+03  0.34779161639E+03  0.17122796828E+03 0.  0.
        -24    2    5    5    0    0 -0.15470677231E+02 -0.39280231961E+02  0.61690971908E+02  0.10864008378E+03  0.78832818751E+02 0.  0.
          5    1    3    3  501    0  0.30729659285E+02  0.40497758976E+02 -0.82826689322E+01  0.51721108326E+02  0.47000000000E+01 0. -1.
        -13    1    4    4    0    0 -0.61596939307E+02  0.31172205741E+02  0.43166193712E+02  0.81419958378E+02  0.00000000000E+00 0.  1.
         14    1    4    4    0    0  0.23532284433E+02 -0.29570455954E+02  0.54003787726E+02  0.65913499108E+02  0.00000000000E+00 0. -1.
         -5    1    5    5    0  502  0.22805672820E+02 -0.28192768033E+01  0.23799856831E+03  0.23915153261E+03  0.47000000000E+01 0.  1.
         13    1    6    6    0    0 -0.19978494015E+02 -0.16131003619E+02  0.76565875025E+02  0.80756936044E+02  0.00000000000E+00 0. -1.
        -14    1    6    6    0    0  0.45078167842E+01 -0.23149228341E+02 -0.14874903118E+02  0.27883147737E+02  0.00000000000E+00 0.  1.
</event>
<event>
12    1  0.8226261E-002  0.1825686E+03  0.7818608E-02  0.1165643E+00
         21   -1    0    0  501  502  0.00000000000E+00  0.00000000000E+00  0.68265484327E+03  0.68265484327E+03  0.00000000000E+00 0.  1.
         21   -1    0    0  502  503 -0.00000000000E+00 -0.00000000000E+00 -0.19399123291E+03  0.19399123291E+03  0.00000000000E+00 0.  1.
         -6    2    1    2    0  503  0.24771299647E+02 -0.55269080458E+02 -0.13549360908E+03  0.22633574999E+03  0.17088319134E+03 0.  0.
        -24    2    3    3    0    0 -0.47443526220E+02 -0.82332304628E+01 -0.80169632121E+02  0.12381655820E+03  0.81146139192E+02 0.  0.
          6    2    1    2  501    0 -0.24771299647E+02  0.55269080458E+02  0.62415721944E+03  0.65031032619E+03  0.17222949001E+03 0.  0.
         24    2    5    5    0    0  0.26040382334E+02  0.20771482248E+01  0.47020897684E+03  0.47962535298E+03  0.90893241021E+02 0.  0.
          5    1    5    5  501    0 -0.50811681981E+02  0.53191932234E+02  0.15394824260E+03  0.17068497321E+03  0.47000000000E+01 0. -1.
        -13    1    6    6    0    0  0.16090291931E+02  0.45940623360E+02  0.21090442863E+03  0.21644887707E+03  0.00000000000E+00 0.  1.
         14    1    6    6    0    0  0.99500904034E+01 -0.43863475135E+02  0.25930454821E+03  0.26317647591E+03  0.00000000000E+00 0. -1.
         -5    1    3    3    0  503  0.72214825867E+02 -0.47035849996E+02 -0.55323976960E+02  0.10251919180E+03  0.47000000000E+01 0.  1.
         11    1    4    4    0    0  0.19817622649E+01  0.22220192538E+02  0.28739859572E+01  0.22492757354E+02  0.00000000000E+00 0. -1.
        -12    1    4    4    0    0 -0.49425288484E+02 -0.30453423001E+02 -0.83043618078E+02  0.10132380085E+03  0.00000000000E+00 0.  1.
</event>
<event>
12    1  0.8226261E-002  0.3762664E+03  0.7818608E-02  0.1052334E+00
         21   -1    0    0  503  502  0.00000000000E+00  0.00000000000E+00  0.60937266062E+03  0.60937266062E+03  0.00000000000E+00 0.  1.
         21   -1    0    0  501  503 -0.00000000000E+00 -0.00000000000E+00 -0.23417747444E+03  0.23417747444E+03  0.00000000000E+00 0. -1.
          6    2    1    2  501    0  0.15065288720E+03  0.29754666683E+03  0.14934236626E+03  0.40470403457E+03  0.17393073871E+03 0.  0.
         24    2    3    3    0    0  0.11732000306E+02  0.89404568348E+02  0.81833218824E+02  0.14547108727E+03  0.79588597521E+02 0.  0.
         -6    2    1    2    0  502 -0.15065288720E+03 -0.29754666683E+03  0.22585281992E+03  0.43884610049E+03  0.17420129817E+03 0.  0.
        -24    2    5    5    0    0 -0.49114607189E+02 -0.23814912309E+03  0.13347898665E+03  0.28920283942E+03  0.81819270251E+02 0.  0.
          5    1    3    3  501    0  0.13892088690E+03  0.20814209848E+03  0.67509147435E+02  0.25923294730E+03  0.47000000000E+01 0. -1.
        -13    1    4    4    0    0  0.43722562268E+02  0.31262950031E+02  0.32901922909E+02  0.63020401673E+02  0.00000000000E+00 0.  1.
         14    1    4    4    0    0 -0.31990561962E+02  0.58141618318E+02  0.48931295915E+02  0.82450685595E+02  0.00000000000E+00 0. -1.
         -5    1    5    5    0  502 -0.10153828001E+03 -0.59397543745E+02  0.92373833275E+02  0.14964326107E+03  0.47000000000E+01 0.  1.
         11    1    6    6    0    0 -0.13775409853E+02 -0.76926155146E+02  0.19835607073E+01  0.78174994565E+02  0.00000000000E+00 0. -1.
        -12    1    6    6    0    0 -0.35339197336E+02 -0.16122296794E+03  0.13149542594E+03  0.21102784485E+03  0.00000000000E+00 0.  1.
</event>
<event>
12    1  0.8226261E-002  0.3070869E+03  0.7818608E-02  0.1081928E+00
         21   -1    0    0  503  502  0.00000000000E+00  0.00000000000E+00  0.17151295917E+03  0.17151295917E+03  0.00000000000E+00 0. -1.
         21   -1    0    0  501  503 -0.00000000000E+00 -0.00000000000E+00 -0.60935485618E+03  0.60935485618E+03  0.00000000000E+00 0. -1.
          6    2    1    2  501    0 -0.61532839834E+02  0.24732184834E+03 -0.93783820354E+02  0.31969723636E+03  0.16869063676E+03 0.  0.
         24    2    3    3    0    0  0.17929809983E+02  0.11449203765E+03 -0.84034054236E+02  0.16453532330E+03  0.81118712831E+02 0.  0.
         -6    2    1    2    0  502  0.61532839834E+02 -0.24732184834E+03 -0.34405807665E+03  0.46117057899E+03  0.17131245073E+03 0.  0.
        -24    2    5    5    0    0  0.17946422313E+02 -0.24009353677E+03 -0.32676483862E+03  0.41349280260E+03  0.78956048343E+02 0.  0.
          5    1    3    3  501    0 -0.79462649817E+02  0.13282981069E+03 -0.97497661179E+01  0.15516191305E+03  0.47000000000E+01 0. -1.
        -13    1    4    4    0    0  0.43510729638E+02  0.98581646521E+02 -0.79857317407E+02  0.13412201821E+03  0.00000000000E+00 0.  1.
         14    1    4    4    0    0 -0.25580919655E+02  0.15910391131E+02 -0.41767368298E+01  0.30413305096E+02  0.00000000000E+00 0. -1.
         -5    1    5    5    0  502  0.43586417521E+02 -0.72283115695E+01 -0.17293238032E+02  0.47677776396E+02  0.47000000000E+01 0.  1.
         11    1    6    6    0    0 -0.17862244940E+00 -0.42686960349E+02 -0.17473592254E+02  0.46125209117E+02  0.00000000000E+00 0. -1.
        -12    1    6    6    0    0  0.18125044763E+02 -0.19740657642E+03 -0.30929124636E+03  0.36736759348E+03  0.00000000000E+00 0.  1.
</event>
<event>
12    1  0.8226261E-002  0.3860470E+03  0.7818608E-02  0.1048763E+00
         21   -1    0    0  501  502  0.00000000000E+00  0.00000000000E+00  0.25087670198E+03  0.25087670198E+03  0.00000000000E+00 0. -1.
         21   -1    0    0  502  503 -0.00000000000E+00 -0.00000000000E+00 -0.67822745303E+03  0.67822745303E+03  0.00000000000E+00 0. -1.
         -6    2    1    2    0  503  0.25115537122E+03 -0.23729553176E+03 -0.49426500487E+02  0.38919824476E+03  0.17217463485E+03 0.  0.
        -24    2    3    3    0    0  0.18283181680E+03 -0.21254124628E+03  0.15302595609E+02  0.29176709666E+03  0.79326002393E+02 0.  0.
          6    2    1    2  501    0 -0.25115537122E+03  0.23729553176E+03 -0.37792425057E+03  0.53990591025E+03  0.17112411538E+03 0.  0.
         24    2    5    5    0    0 -0.60694222177E+02  0.31369236316E+02 -0.53372473933E+02  0.11091053245E+03  0.69171581177E+02 0.  0.
          5    1    5    5  501    0 -0.19046114905E+03  0.20592629545E+03 -0.32455177664E+03  0.42899537780E+03  0.47000000000E+01 0. -1.
        -11    1    6    6    0    0  0.34876741952E+01  0.30836983625E+02 -0.72384506370E+01  0.31866574934E+02  0.00000000000E+00 0.  1.
         12    1    6    6    0    0 -0.64181896372E+02  0.53225269122E+00 -0.46134023296E+02  0.79043957519E+02  0.00000000000E+00 0. -1.
         -5    1    3    3    0  503  0.68323554426E+02 -0.24754285482E+02 -0.64729096095E+02  0.97431148102E+02  0.47000000000E+01 0.  1.
         11    1    4    4    0    0  0.90586835917E+02 -0.15629144922E+03 -0.95672969054E+01  0.18089921258E+03  0.00000000000E+00 0. -1.
        -12    1    4    4    0    0  0.92244980881E+02 -0.56249797061E+02  0.24869892514E+02  0.11086788408E+03  0.00000000000E+00 0.  1.
</event>
<event>
12    1  0.8226261E-002  0.1902651E+03  0.7818608E-02  0.1158264E+00
         21   -1    0    0  501  502  0.00000000000E+00  0.00000000000E+00  0.50033027380E+02  0.50033027380E+02  0.00000000000E+00 0. -1.
         21   -1    0    0  502  503 -0.00000000000E+00 -0.00000000000E+00 -0.73658527662E+03  0.73658527662E+03  0.00000000000E+00 0. -1.
         -6    2    1    2    0  503 -0.80678140299E+02 -0.21012192837E+02 -0.39716165085E+03  0.44038414842E+03  0.17102732737E+03 0.  0.
        -24    2    3    3    0    0 -0.20858606858E+01  0.17631183498E+02 -0.94485800368E+02  0.12525747958E+03  0.80291097103E+02 0.  0.
          6    2    1    2  501    0  0.80678140299E+02  0.21012192837E+02 -0.28939059839E+03  0.34623415557E+03  0.17082358584E+03 0.  0.
         24    2    5    5    0    0 -0.10009731778E+02  0.44798951111E+02 -0.11885753938E+03  0.15157107683E+03  0.82094676523E+02 0.  0.
          5    1    5    5  501    0  0.90687872077E+02 -0.23786758274E+02 -0.17053305901E+03  0.19466307874E+03  0.47000000000E+01 0. -1.
        -11    1    6    6    0    0 -0.33437708696E+02 -0.95995982211E+01 -0.46110558595E+02  0.57761719700E+02  0.00000000000E+00 0.  1.
         12    1    6    6    0    0  0.23427976918E+02  0.54398549332E+02 -0.72746980782E+02  0.93809357128E+02  0.00000000000E+00 0. -1.
         -5    1    3    3    0  503 -0.78592279613E+02 -0.38643376335E+02 -0.30267585048E+03  0.31512666884E+03  0.47000000000E+01 0.  1.
         11    1    4    4    0    0 -0.17026065290E+02  0.10656569960E+02 -0.10420154929E+03  0.10611980144E+03  0.00000000000E+00 0. -1.
        -12    1    4    4    0    0  0.14940204604E+02  0.69746135372E+01  0.97157489236E+01  0.19137678144E+02  0.00000000000E+00 0.  1.
</event>
<event>
12    1  0.8226261E-002  0.2332768E+03  0.7818608E-02  0.1127744E+00
         21   -1    0    0  503  502  0.00000000000E+00  0.00000000000E+00  0.14882150130E+04  0.14882150130E+04  0.00000000000E+00 0.  1.
         21   -1    0    0  501  503 -0.00000000000E+00 -0.00000000000E+00 -0.24293142445E+03  0.24293142445E+03  0.00000000000E+00 0. -1.
          6    2    1    2  501    0 -0.33157650141E+02  0.12624989142E+03 -0.17696920191E+03  0.29280742142E+03  0.19333810480E+03 0.  0.
         24    2    3    3    0    0 -0.97170072555E+02  0.78582004364E+02 -0.75493306115E+02  0.16362048281E+03  0.73859790941E+02 0.  0.
         -6    2    1    2    0  502  0.33157650141E+02 -0.12624989142E+03  0.14222527905E+04  0.14383390161E+04  0.17022825926E+03 0.  0.
        -24    2    5    5    0    0 -0.23551562714E+02 -0.68066226479E+02  0.45022372255E+03  0.46290891985E+03  0.79972372975E+02 0.  0.
          5    1    3    3  501    0  0.64012422413E+02  0.47667887055E+02 -0.10147589579E+03  0.12918693861E+03  0.47000000000E+01 0. -1.
        -11    1    4    4    0    0 -0.69304368039E+02  0.74842297707E+02 -0.23748053704E+02  0.10473029652E+03  0.00000000000E+00 0.  1.
         12    1    4    4    0    0 -0.27865704516E+02  0.37397066572E+01 -0.51745252412E+02  0.58890186290E+02  0.00000000000E+00 0. -1.
         -5    1    5    5    0  502  0.56709212855E+02 -0.58183664941E+02  0.97202906792E+03  0.97543009620E+03  0.47000000000E+01 0.  1.
         11    1    6    6    0    0  0.21313652087E+02 -0.49090891898E+02  0.16237245889E+03  0.17096491698E+03  0.00000000000E+00 0. -1.
        -12    1    6    6    0    0 -0.44865214801E+02 -0.18975334581E+02  0.28785126366E+03  0.29194400287E+03  0.00000000000E+00 0.  1.
</event>
<event>
12    1  0.8226261E-002  0.2059846E+03  0.7818608E-02  0.1144921E+00
         21   -1    0    0  503  502  0.00000000000E+00  0.00000000000E+00  0.38090325333E+02  0.38090325333E+02  0.00000000000E+00 0. -1.
         21   -1    0    0  501  503 -0.00000000000E+00 -0.00000000000E+00 -0.13229031913E+04  0.13229031913E+04  0.00000000000E+00 0. -1.
          6    2    1    2  501    0 -0.38788514155E+02 -0.10412777266E+03 -0.36874359130E+03  0.42205125305E+03  0.17265075213E+03 0.  0.
         24    2    3    3    0    0  0.30440542061E+02 -0.10372469441E+03 -0.21138043406E+03  0.25006846917E+03  0.78530965461E+02 0.  0.
         -6    2    1    2    0  502  0.38788514155E+02  0.10412777266E+03 -0.91606927463E+03  0.93894226355E+03  0.17344312173E+03 0.  0.
        -24    2    5    5    0    0  0.49163268215E+02  0.96349147555E+02 -0.91520851079E+03  0.92512294936E+03  0.80905302825E+02 0.  0.
          5    1    3    3  501    0 -0.69229056216E+02 -0.40307824580E+00 -0.15736315724E+03  0.17198278388E+03  0.47000000000E+01 0. -1.
        -11    1    4    4    0    0  0.10750752495E+01 -0.10252454864E+03 -0.17941782781E+03  0.20664751583E+03  0.00000000000E+00 0.  1.
         12    1    4    4    0    0  0.29365466812E+02 -0.12001457748E+01 -0.31962606254E+02  0.43420953347E+02  0.00000000000E+00 0. -1.
         -5    1    5    5    0  502 -0.10374754060E+02  0.77786251049E+01 -0.86076384397E+00  0.13819314192E+02  0.47000000000E+01 0.  1.
         13    1    6    6    0    0  0.62987200794E+02  0.85433669912E+02 -0.59237631568E+03  0.60181060044E+03  0.00000000000E+00 0. -1.
        -14    1    6    6    0    0 -0.13823932579E+02  0.10915477642E+02 -0.32283219511E+03  0.32331234892E+03  0.00000000000E+00 0.  1.
</event>
<event>
12    1  0.8226261E-002  0.2059571E+03  0.7818608E-02  0.1145208E+00
         21   -1    0    0  501  502  0.00000000000E+00  0.00000000000E+00  0.47790869972E+03  0.47790869972E+03  0.00000000000E+00 0. -1.
         21   -1    0    0  502  503 -0.00000000000E+00 -0.00000000000E+00 -0.97041884035E+02  0.97041884035E+02  0.00000000000E+00 0. -1.
         -6    2    1    2    0  503  0.26997427659E+02 -0.10840818024E+03  0.10145673231E+03  0.22783633239E+03  0.17068898964E+03 0.  0.
        -24    2    3    3    0    0  0.54036281122E+02 -0.76555724755E+02  0.21164032452E+02  0.13720142649E+03  0.97957217661E+02 0.  0.
          6    2    1    2  501    0 -0.26997427659E+02  0.10840818024E+03  0.27941008338E+03  0.34711425137E+03  0.17302344975E+03 0.  0.
         24    2    5    5    0    0  0.36081448711E+02  0.33024801001E+02  0.20308943433E+03  0.22258100287E+03  0.76840588753E+02 0.  0.
          5    1    5    5  501    0 -0.63078876371E+02  0.75383379238E+02  0.76320649046E+02  0.12453324849E+03  0.47000000000E+01 0. -1.
        -11    1    6    6    0    0  0.39634520739E+00 -0.21997500617E+02  0.27980482303E+02  0.35594304499E+02  0.00000000000E+00 0.  1.
         12    1    6    6    0    0  0.35685103504E+02  0.55022301618E+02  0.17510895203E+03  0.18698669837E+03  0.00000000000E+00 0. -1.
         -5    1    3    3    0  503 -0.27038853463E+02 -0.31852455483E+02  0.80292699856E+02  0.90634905897E+02  0.47000000000E+01 0.  1.
         11    1    4    4    0    0  0.29983202817E+02 -0.98401120445E+02  0.19242405178E+02  0.10465200960E+03  0.00000000000E+00 0. -1.
        -12    1    4    4    0    0  0.24053078305E+02  0.21845395690E+02  0.19216272741E+01  0.32549416895E+02  0.00000000000E+00 0.  1.
</event>
<event>
12    1  0.8226261E-002  0.1925716E+03  0.7818608E-02  0.1156587E+00
         21   -1    0    0  503  502  0.00000000000E+00  0.00000000000E+00  0.96197731733E+03  0.96197731733E+03  0.00000000000E+00 0.  1.
         21   -1    0    0  501  503 -0.00000000000E+00 -0.00000000000E+00 -0.91882403277E+02  0.91882403277E+02  0.00000000000E+00 0.  1.
          6    2    1    2  501    0  0.54603576567E+02 -0.67329072335E+02  0.33065584233E+02  0.19538973848E+03  0.17195657152E+03 0.  0.
         24    2    3    3    0    0  0.26272379718E+02 -0.43649837546E+02  0.87896272937E+02  0.12911864902E+03  0.79688923159E+02 0.  0.
         -6    2    1    2    0  502 -0.54603576567E+02  0.67329072335E+02  0.83702932982E+03  0.85846998212E+03  0.16981712715E+03 0.  0.
        -24    2    5    5    0    0  0.13042958592E+02  0.20236236464E+02  0.19183527655E+03  0.20801533706E+03  0.76746225238E+02 0.  0.
          5    1    3    3  501    0  0.28331196849E+02 -0.23679234789E+02 -0.54830688704E+02  0.66271089465E+02  0.47000000000E+01 0. -1.
        -13    1    4    4    0    0  0.22522028328E+02 -0.31986271863E+02 -0.12447126857E+01  0.39139655815E+02  0.00000000000E+00 0.  1.
         14    1    4    4    0    0  0.37503513903E+01 -0.11663565683E+02  0.89140985623E+02  0.89978993203E+02  0.00000000000E+00 0. -1.
         -5    1    5    5    0  502 -0.67646535159E+02  0.47092835870E+02  0.64519405327E+03  0.65045464506E+03  0.47000000000E+01 0.  1.
         11    1    6    6    0    0 -0.23919816412E+02  0.27441770877E+02  0.53973045085E+02  0.65102211958E+02  0.00000000000E+00 0. -1.
        -12    1    6    6    0    0  0.36962775004E+02 -0.72055344128E+01  0.13786223146E+03  0.14291312510E+03  0.00000000000E+00 0.  1.
</event>
<event>
12    1  0.8226261E-002  0.1927785E+03  0.7818608E-02  0.1156169E+00
         21   -1    0    0  503  502  0.00000000000E+00  0.00000000000E+00  0.10980881712E+04  0.10980881712E+04  0.00000000000E+00 0.  1.
         21   -1    0    0  501  503 -0.00000000000E+00 -0.00000000000E+00 -0.12646788959E+03  0.12646788959E+03  0.00000000000E+00 0.  1.
          6    2    1    2  501    0 -0.73010996930E+02  0.47172574788E+02 -0.38889925887E+02  0.19582168263E+03  0.17110770750E+03 0.  0.
         24    2    3    3    0    0 -0.68691972544E+02  0.94875838727E+02 -0.45386148633E+02  0.14725681599E+03  0.76841756232E+02 0.  0.
         -6    2    1    2    0  502  0.73010996930E+02 -0.47172574788E+02  0.10105102075E+04  0.10287343782E+04  0.17206883472E+03 0.  0.
        -24    2    5    5    0    0 -0.14648697708E+02 -0.21099302224E+02  0.27945445287E+03  0.29196532074E+03  0.80555523632E+02 0.  0.
          5    1    3    3  501    0 -0.43190243855E+01 -0.47703263938E+02  0.64962227459E+01  0.48564866642E+02  0.47000000000E+01 0. -1.
        -13    1    4    4    0    0 -0.52414263559E+02  0.55077533794E+02 -0.64969176631E+02  0.10000891793E+03  0.00000000000E+00 0.  1.
         14    1    4    4    0    0 -0.16277708985E+02  0.39798304933E+02  0.19583027998E+02  0.47247898058E+02  0.00000000000E+00 0. -1.
         -5    1    5    5    0  502  0.87659694638E+02 -0.26073272564E+02  0.73105575465E+03  0.73676905745E+03  0.47000000000E+01 0.  1.
         13    1    6    6    0    0 -0.10110133108E+02 -0.40415739169E+00  0.26739562434E+03  0.26758699156E+03  0.00000000000E+00 0. -1.
        -14    1    6    6    0    0 -0.45385646001E+01 -0.20695144833E+02  0.12058828531E+02  0.24378329184E+02  0.00000000000E+00 0.  1.
</event>
<event>
12    1  0.8226261E-002  0.2067583E+03  0.7818608E-02  0.1145218E+00
         21   -1    0    0  503  502  0.00000000000E+00  0.00000000000E+00  0.53744758445E+03  0.53744758445E+03  0.00000000000E+00 0. -1.
         21   -1    0    0  501  503 -0.00000000000E+00 -0.00000000000E+00 -0.18884789806E+03  0.18884789806E+03  0.00000000000E+00 0.  1.
          6    2    1    2  501    0 -0.37157880399E+02  0.97303538450E+02 -0.10355298178E+03  0.23124062779E+03  0.17860661028E+03 0.  0.
         24    2    3    3    0    0  0.32408083337E+02  0.82949941257E+02 -0.18532579470E+02  0.12035326209E+03  0.78806564285E+02 0.  0.
         -6    2    1    2    0  502  0.37157880399E+02 -0.97303538450E+02  0.45215266818E+03  0.49505485471E+03  0.17259370546E+03 0.  0.
        -24    2    5    5    0    0 -0.88140014632E+01 -0.33672763695E+01  0.29446935727E+03  0.30578374811E+03  0.81868632979E+02 0.  0.
          5    1    3    3  501    0 -0.69565963736E+02  0.14353597193E+02 -0.85020402312E+02  0.11088736570E+03  0.47000000000E+01 0. -1.
        -13    1    4    4    0    0  0.17838381821E+02  0.19377594792E+02  0.29356010134E+02  0.39439502747E+02  0.00000000000E+00 0.  1.
         14    1    4    4    0    0  0.14569701515E+02  0.63572346465E+02 -0.47888589603E+02  0.80913759346E+02  0.00000000000E+00 0. -1.
         -5    1    5    5    0  502  0.45971881863E+02 -0.93936262081E+02  0.15768331090E+03  0.18927110660E+03  0.47000000000E+01 0.  1.
         11    1    6    6    0    0 -0.12830210219E+02 -0.20434251164E+02  0.28468424454E+03  0.28570490371E+03  0.00000000000E+00 0. -1.
        -12    1    6    6    0    0  0.40162087557E+01  0.17066974795E+02  0.97851127344E+01  0.20078844405E+02  0.00000000000E+00 0.  1.
</event>
<event>
12    1  0.8226261E-002  0.2602973E+03  0.7818608E-02  0.1107175E+00
         21   -1    0    0  503  502  0.00000000000E+00  0.00000000000E+00  0.23940427965E+03  0.23940427965E+03  0.00000000000E+00 0.  1.
         21   -1    0    0  501  503 -0.00000000000E+00 -0.00000000000E+00 -0.41279888304E+03  0.41279888304E+03  0.00000000000E+00 0. -1.
          6    2    1    2  501    0  0.10441796210E+03 -0.16310580397E+03 -0.27045379148E+03  0.37439900221E+03  0.17182184213E+03 0.  0.
         24    2    3    3    0    0  0.12317493316E+03 -0.17513348426E+03 -0.21190644026E+03  0.31157885105E+03  0.79581653259E+02 0.  0.
         -6    2    1    2    0  502 -0.10441796210E+03  0.16310580397E+03  0.97059188091E+02  0.27780416047E+03  0.17391966962E+03 0.  0.
        -24    2    5    5    0    0 -0.11803525677E+03  0.13490329676E+03  0.22695467151E+02  0.19697801915E+03  0.78447654416E+02 0.  0.
          5    1    3    3  501    0 -0.18756971059E+02  0.12027680285E+02 -0.58547351225E+02  0.62820151161E+02  0.47000000000E+01 0. -1.
        -11    1    4    4    0    0 -0.56341193731E+01 -0.26104695952E+02 -0.75716712057E+01  0.27758397949E+02  0.00000000000E+00 0.  1.
         12    1    4    4    0    0  0.12880905253E+03 -0.14902878831E+03 -0.20433476905E+03  0.28382045310E+03  0.00000000000E+00 0. -1.
         -5    1    5    5    0  502  0.13617294672E+02  0.28202507215E+02  0.74363720940E+02  0.80826141312E+02  0.47000000000E+01 0.  1.
         11    1    6    6    0    0 -0.47090296317E+02  0.33276523463E+02 -0.26718027639E+02  0.63550578455E+02  0.00000000000E+00 0. -1.
        -12    1    6    6    0    0 -0.70944960454E+02  0.10162677329E+03  0.49413494790E+02  0.13342744070E+03  0.00000000000E+00 0.  1.
</event>
<event>
12    1  0.8226261E-002  0.1817128E+03  0.7818608E-02  0.1166485E+00
         21   -1    0    0  501  502  0.00000000000E+00  0.00000000000E+00  0.44419571734E+03  0.44419571734E+03  0.00000000000E+00 0. -1.
         21   -1    0    0  502  503 -0.00000000000E+00 -0.00000000000E+00 -0.14411715377E+03  0.14411715377E+03  0.00000000000E+00 0. -1.
         -6    2    1    2    0  503 -0.55719282353E+02 -0.19495662586E+02 -0.55758770774E+02  0.18876343246E+03  0.17040502818E+03 0.  0.
        -24    2    3    3    0    0 -0.94049213773E+02 -0.24229891306E+02 -0.67950731198E+01  0.12622440262E+03  0.80337317327E+02 0.  0.
          6    2    1    2  501    0  0.55719282353E+02  0.19495662586E+02  0.35583733435E+03  0.39954943865E+03  0.17185699324E+03 0.  0.
         24    2    5    5    0    0  0.87853652166E+02  0.56091162062E+02  0.25111610936E+03  0.28396192519E+03  0.81918202597E+02 0.  0.
          5    1    5    5  501    0 -0.32134369814E+02 -0.36595499476E+02  0.10472122499E+03  0.11558751346E+03  0.47000000000E+01 0. -1.
        -13    1    6    6    0    0  0.52435225986E+02  0.56715784778E+02  0.88207130798E+02  0.11724602804E+03  0.00000000000E+00 0.  1.
         14    1    6    6    0    0  0.35418426180E+02 -0.62462271666E+00  0.16290897856E+03  0.16671589715E+03  0.00000000000E+00 0. -1.
         -5    1    3    3    0  503  0.38329931420E+02  0.47342287198E+01 -0.48963697654E+02  0.62539029831E+02  0.47000000000E+01 0.  1.
         13    1    4    4    0    0 -0.22102774361E+02 -0.10083982033E+02 -0.39153113622E+02  0.46078038526E+02  0.00000000000E+00 0. -1.
        -14    1    4    4    0    0 -0.71946439412E+02 -0.14145909273E+02  0.32358040502E+02  0.80146364099E+02  0.00000000000E+00 0.  1.
</event>
<event>
12    1  0.8226261E-002  0.1881254E+03  0.7818608E-02  0.1160267E+00
         21   -1    0    0  501  502  0.00000000000E+00  0.00000000000E+00  0.15837541239E+04  0.15837541239E+04  0.00000000000E+00 0.  1.
         21   -1    0    0  502  503 -0.00000000000E+00 -0.00000000000E+00 -0.32613980312E+02  0.32613980312E+02  0.00000000000E+00 0.  1.
         -6    2    1    2    0  503  0.88667684714E+01  0.74359300154E+02  0.32155916369E+03  0.37254724610E+03  0.17257818437E+03 0.  0.
        -24    2    3    3    0    0 -0.25631760082E+02  0.10970389795E+03  0.26213169986E+03  0.29513211500E+03  0.75485130204E+02 0.  0.
          6    2    1    2  501    0 -0.88667684714E+01 -0.74359300154E+02  0.12295809798E+04  0.12438208581E+04  0.17208432772E+03 0.  0.
         24    2    5    5    0    0 -0.57207741636E+02 -0.17598759223E+02  0.91832424603E+03  0.92372485209E+03  0.79785584482E+02 0.  0.
          5    1    5    5  501    0  0.48340973165E+02 -0.56760540931E+02  0.31125673382E+03  0.32009600597E+03  0.47000000000E+01 0. -1.
        -13    1    6    6    0    0  0.11081629109E+02 -0.37225748913E+01  0.45861953297E+03  0.45876849945E+03  0.00000000000E+00 0.  1.
         14    1    6    6    0    0 -0.68289370745E+02 -0.13876184331E+02  0.45970471306E+03  0.46495635264E+03  0.00000000000E+00 0. -1.
         -5    1    3    3    0  503  0.34498528553E+02 -0.35344597801E+02  0.59427463837E+02  0.77415131105E+02  0.47000000000E+01 0.  1.
         11    1    4    4    0    0  0.21809938108E+02  0.66783085881E+02  0.11610042904E+03  0.13570174495E+03  0.00000000000E+00 0. -1.
        -12    1    4    4    0    0 -0.47441698190E+02  0.42920812074E+02  0.14603127082E+03  0.15943037004E+03  0.00000000000E+00 0.  1.
</event>
<event>
12    1  0.8226261E-002  0.1765923E+03  0.7818608E-02  0.1171357E+00
         21   -1    0    0  503  502  0.00000000000E+00  0.00000000000E+00  0.44857725849E+03  0.44857725849E+03  0.00000000000E+00 0. -1.
         21   -1    0    0  501  503 -0.00000000000E+00 -0.00000000000E+00 -0.15890920694E+03  0.15890920694E+03  0.00000000000E+00 0. -1.
          6    2    1    2  501    0  0.12767313516E+02 -0.44505653147E+02 -0.83254479915E+02  0.19523353819E+03  0.17041440242E+03 0.  0.
         24    2    3    3    0    0  0.57081191054E+02 -0.63767596183E+02 -0.88953813660E+02  0.14635292243E+03  0.78624603300E+02 0.  0.
         -6    2    1    2    0  502 -0.12767313516E+02  0.44505653147E+02  0.37292253146E+03  0.41225292724E+03  0.16952139716E+03 0.  0.
        -24    2    5    5    0    0 -0.57344774481E+02  0.70877730349E+02  0.29240367092E+03  0.31639880169E+03  0.79348718492E+02 0.  0.
          5    1    3    3  501    0 -0.44313877538E+02  0.19261943036E+02  0.56993337450E+01  0.48880615760E+02  0.47000000000E+01 0. -1.
        -13    1    4    4    0    0 -0.13083754346E+01  0.16718372424E+02 -0.12090356909E+02  0.20673474623E+02  0.00000000000E+00 0.  1.
         14    1    4    4    0    0  0.58389566488E+02 -0.80485968608E+02 -0.76863456751E+02  0.12567944781E+03  0.00000000000E+00 0. -1.
         -5    1    5    5    0  502  0.44577460965E+02 -0.26372077202E+02  0.80518860538E+02  0.95854125547E+02  0.47000000000E+01 0.  1.
         11    1    6    6    0    0 -0.84053605792E+01  0.31421813144E+01  0.15719232481E+03  0.15744824664E+03  0.00000000000E+00 0. -1.
        -12    1    6    6    0    0 -0.48939413902E+02  0.67735549035E+02  0.13521134611E+03  0.15895055506E+03  0.00000000000E+00 0.  1.
</event>
<event>
12    1  0.8226261E-002  0.1805663E+03  0.7818608E-02  0.1167531E+00
         21   -1    0    0  503  502  0.00000000000E+00  0.00000000000E+00  0.94408043432E+02  0.94408043432E+02  0.00000000000E+00 0.  1.
         21   -1    0    0  501  503 -0.00000000000E+00 -0.00000000000E+00 -0.96806586020E+03  0.96806586020E+03  0.00000000000E+00 0.  1.
          6    2    1    2  501    0 -0.10145598814E+02  0.53250157345E+02 -0.86314967325E+03  0.88160209061E+03  0.17104495110E+03 0.  0.
         24    2    3    3    0    0  0.51673899273E+02  0.46215273250E+01 -0.36131186576E+03  0.37361619610E+03  0.79694712882E+02 0.  0.
         -6    2    1    2    0  502  0.10145598814E+02 -0.53250157345E+02 -0.10508143517E+02  0.18087181302E+03  0.17223727597E+03 0.  0.
        -24    2    5    5    0    0  0.50197628470E+02 -0.68379312702E+02  0.28847645274E+02  0.12252779420E+03  0.83578354874E+02 0.  0.
          5    1    3    3  501    0 -0.61819498087E+02  0.48628630020E+02 -0.50183780749E+03  0.50798589451E+03  0.47000000000E+01 0. -1.
        -13    1    4    4    0    0  0.28999114727E+02  0.22877082254E+02 -0.32492531559E+03  0.32701799684E+03  0.00000000000E+00 0.  1.
         14    1    4    4    0    0  0.22674784546E+02 -0.18255554929E+02 -0.36386550173E+02  0.46598199252E+02  0.00000000000E+00 0. -1.
         -5    1    5    5    0  502 -0.40052029656E+02  0.15129155357E+02 -0.39355788791E+02  0.58344018826E+02  0.47000000000E+01 0.  1.
         13    1    6    6    0    0 -0.13501020959E+02 -0.24481050010E+02  0.35148936861E+02  0.44911547947E+02  0.00000000000E+00 0. -1.
        -14    1    6    6    0    0  0.63698649429E+02 -0.43898262692E+02 -0.63012915866E+01  0.77616246251E+02  0.00000000000E+00 0.  1.
</event>
<event>
12    1  0.8226261E-002  0.1846252E+03  0.7818608E-02  0.1164142E+00
         21   -1    0    0  501  502  0.00000000000E+00  0.00000000000E+00  0.37465104271E+02  0.37465104271E+02  0.00000000000E+00 0.  1.
         21   -1    0    0  502  503 -0.00000000000E+00 -0.00000000000E+00 -0.96810991527E+03  0.96810991527E+03  0.00000000000E+00 0.  1.
         -6    2    1    2    0  503 -0.13929672647E+02 -0.55543088976E+02 -0.60035732872E+03  0.62718858026E+03  0.17221359570E+03 0.  0.
        -24    2    3    3    0    0 -0.41568361979E+01  0.31619826122E+02 -0.23077496192E+03  0.24731215568E+03  0.83000762688E+02 0.  0.
          6    2    1    2  501    0  0.13929672647E+02  0.55543088976E+02 -0.33028748229E+03  0.37838643929E+03  0.17552038620E+03 0.  0.
         24    2    5    5    0    0  0.58433004684E+02  0.80715706641E+02 -0.18731171522E+03  0.22647078107E+03  0.79207920610E+02 0.  0.
          5    1    5    5  501    0 -0.44503332037E+02 -0.25172617665E+02 -0.14297576707E+03  0.15191565822E+03  0.47000000000E+01 0. -1.
        -11    1    6    6    0    0  0.23963201677E+02  0.25373081140E+02 -0.14406562342E+03  0.14823269589E+03  0.00000000000E+00 0.  1.
         12    1    6    6    0    0  0.34469803006E+02  0.55342625501E+02 -0.43246091799E+02  0.78238085179E+02  0.00000000000E+00 0. -1.
         -5    1    3    3    0  503 -0.97728364488E+01 -0.87162915098E+02 -0.36958236680E+03  0.37987642458E+03  0.47000000000E+01 0.  1.
         11    1    4    4    0    0  0.20472229135E+02  0.22496935319E+02 -0.21399306208E+03  0.21614406049E+03  0.00000000000E+00 0. -1.
        -12    1    4    4    0    0 -0.24629065333E+02  0.91228908036E+01 -0.16781899838E+02  0.31168095193E+02  0.00000000000E+00 0.  1.
</event>
<event>
12    1  0.8226261E-002  0.1789216E+03  0.7818608E-02  0.1169023E+00
         21   -1    0    0  501  502  0.00000000000E+00  0.00000000000E+00  0.47138345283E+03  0.47138345283E+03  0.00000000000E+00 0.  1.
         21   -1    0    0  502  503 -0.00000000000E+00 -0.00000000000E+00 -0.16564201928E+03  0.16564201928E+03  0.00000000000E+00 0.  1.
         -6    2    1    2    0  503 -0.50026535325E+02  0.25138985696E+00 -0.92240610354E+02  0.20067394851E+03  0.17105258250E+03 0.  0.
        -24    2    3    3    0    0 -0.95838414137E+02  0.43456067779E+01 -0.91327847774E+02  0.15443095998E+03  0.79399368384E+02 0.  0.
          6    2    1    2  501    0  0.50026535325E+02 -0.25138985696E+00  0.39798204390E+03  0.43635152360E+03  0.17178541105E+03 0.  0.
         24    2    5    5    0    0  0.46235368818E+02 -0.64332191883E+02  0.23955344455E+03  0.26534733294E+03  0.82140209763E+02 0.  0.
          5    1    5    5  501    0  0.37911665065E+01  0.64080802026E+02  0.15842859935E+03  0.17100419066E+03  0.47000000000E+01 0. -1.
        -13    1    6    6    0    0  0.51014344907E+02 -0.16052619829E+02  0.18388771750E+03  0.19150676916E+03  0.00000000000E+00 0.  1.
         14    1    6    6    0    0 -0.47789760890E+01 -0.48279572054E+02  0.55665727051E+02  0.73840563773E+02  0.00000000000E+00 0. -1.
         -5    1    3    3    0  503  0.45811878812E+02 -0.40942169210E+01 -0.91276257984E+00  0.46242988528E+02  0.47000000000E+01 0.  1.
         11    1    4    4    0    0 -0.82837255757E+00  0.25195765723E+02 -0.31058560290E+02  0.40001837192E+02  0.00000000000E+00 0. -1.
        -12    1    4    4    0    0 -0.95010041579E+02 -0.20850158945E+02 -0.60269287484E+02  0.11442912279E+03  0.00000000000E+00 0.  1.
</event>
<event>
12    1  0.8226261E-002  0.1720759E+03  0.7818608E-02  0.1176076E+00
         21   -1    0    0  503  502  0.00000000000E+00  0.00000000000E+00  0.11127861356E+04  0.11127861356E+04  0.00000000000E+00 0. -1.
         21   -1    0    0  501  503 -0.00000000000E+00 -0.00000000000E+00 -0.36806589599E+02  0.36806589599E+02  0.00000000000E+00 0. -1.
          6    2    1    2  501    0 -0.76181904176E+01  0.32223151165E+01  0.23375983719E+03  0.29026503822E+03  0.17187702228E+03 0.  0.
         24    2    3    3    0    0 -0.23632678352E+02  0.61111175825E+02  0.18918188944E+03  0.21531927487E+03  0.79243444786E+02 0.  0.
         -6    2    1    2    0  502  0.76181904176E+01 -0.32223151165E+01  0.84221970886E+03  0.85932768703E+03  0.17041600737E+03 0.  0.
        -24    2    5    5    0    0 -0.48518960014E+02 -0.20396153953E+02  0.26966679301E+03  0.28375384133E+03  0.70894080461E+02 0.  0.
          5    1    3    3  501    0  0.16014487934E+02 -0.57888860708E+02  0.44577947746E+02  0.74945763344E+02  0.47000000000E+01 0. -1.
        -13    1    4    4    0    0 -0.13348939323E+02  0.61126483101E+02  0.63247335904E+02  0.88965536116E+02  0.00000000000E+00 0.  1.
         14    1    4    4    0    0 -0.10283739029E+02 -0.15307276133E-01  0.12593455354E+03  0.12635373876E+03  0.00000000000E+00 0. -1.
         -5    1    5    5    0  502  0.56137150432E+02  0.17173838837E+02  0.57255291585E+03  0.57557384570E+03  0.47000000000E+01 0.  1.
         13    1    6    6    0    0 -0.14193152549E+02 -0.32562955305E+02  0.21597247790E+03  0.21887417127E+03  0.00000000000E+00 0. -1.
        -14    1    6    6    0    0 -0.34325807465E+02  0.12166801351E+02  0.53694315106E+02  0.64879670067E+02  0.00000000000E+00 0.  1.
</event>
<event>
12    1  0.8226261E-002  0.1901882E+03  0.7818608E-02  0.1158351E+00
         21   -1    0    0  503  502  0.00000000000E+00  0.00000000000E+00  0.92602173572E+03  0.92602173572E+03  0.00000000000E+00 0. -1.
         21   -1    0    0  501  503 -0.00000000000E+00 -0.00000000000E+00 -0.51977051150E+02  0.51977051150E+02  0.00000000000E+00 0. -1.
          6    2    1    2  501    0  0.86059370734E+01 -0.82776572284E+02  0.19297795036E+03  0.27094654111E+03  0.17101320342E+03 0.  0.
         24    2    3    3    0    0  0.35244368782E+02 -0.81875572651E+01  0.36017829642E+02  0.95072447794E+02  0.80201525251E+02 0.  0.
         -6    2    1    2    0  502 -0.86059370734E+01  0.82776572284E+02  0.68106673421E+03  0.70705224576E+03  0.17071894654E+03 0.  0.
        -24    2    5    5    0    0  0.48591029611E+01  0.11515839226E+03  0.62683291330E+03  0.64229665219E+03  0.79626767021E+02 0.  0.
          5    1    3    3  501    0 -0.26638431709E+02 -0.74589015019E+02  0.15696012072E+03  0.17587409332E+03  0.47000000000E+01 0. -1.
        -13    1    4    4    0    0  0.54525516024E+02  0.10579483886E+02  0.39194248140E+02  0.67979014881E+02  0.00000000000E+00 0.  1.
         14    1    4    4    0    0 -0.19281147241E+02 -0.18767041151E+02 -0.31764184979E+01  0.27093432913E+02  0.00000000000E+00 0. -1.
         -5    1    5    5    0  502 -0.13465040034E+02 -0.32381819974E+02  0.54233820917E+02  0.64755593574E+02  0.47000000000E+01 0.  1.
         11    1    6    6    0    0  0.40490918515E+02  0.42801157239E+02  0.29220360471E+03  0.29808455201E+03  0.00000000000E+00 0. -1.
        -12    1    6    6    0    0 -0.35631815554E+02  0.72357235019E+02  0.33462930859E+03  0.34421210017E+03  0.00000000000E+00 0.  1.
</event>
<event>
12    1  0.8226261E-002  0.1864780E+03  0.7818608E-02  0.1161728E+00
         21   -1    0    0  501  502  0.00000000000E+00  0.00000000000E+00  0.89237368610E+03  0.89237368610E+03  0.00000000000E+00 0.  1.
         21   -1    0    0  502  503 -0.00000000000E+00 -0.00000000000E+00 -0.41350660682E+02  0.41350660682E+02  0.00000000000E+00 0.  1.
         -6    2    1    2    0  503  0.29510404879E+01  0.74238442808E+02  0.53842686002E+03  0.56973202600E+03  0.17079532438E+03 0.  0.
        -24    2    3    3    0    0 -0.46447464979E+02  0.47211525597E+02  0.17756908648E+03  0.20447719808E+03  0.76771406848E+02 0.  0.
          6    2    1    2  501    0 -0.29510404879E+01 -0.74238442808E+02  0.31259616540E+03  0.36399232078E+03  0.17103798389E+03 0.  0.
         24    2    5    5    0    0 -0.56829350861E+01 -0.54731288932E+02  0.32582991419E+03  0.33980111561E+03  0.79195046845E+02 0.  0.
          5    1    5    5  501    0  0.27318945983E+01 -0.19507153876E+02 -0.13233748797E+02  0.24191205172E+02  0.47000000000E+01 0. -1.
        -13    1    6    6    0    0 -0.27678140770E+02 -0.38324498448E+02  0.83752421135E+02  0.96173357557E+02  0.00000000000E+00 0.  1.
         14    1    6    6    0    0  0.21995205683E+02 -0.16406790484E+02  0.24207749306E+03  0.24362775805E+03  0.00000000000E+00 0. -1.
         -5    1    3    3    0  503  0.49398505467E+02  0.27026917211E+02  0.36085777354E+03  0.36525482792E+03  0.47000000000E+01 0.  1.
         13    1    4    4    0    0 -0.30779809986E+02  0.53360712250E+02  0.17724302106E+03  0.18764288110E+03  0.00000000000E+00 0. -1.
        -14    1    4    4    0    0 -0.15667654993E+02 -0.61491866533E+01  0.32606542212E+00  0.16834316978E+02  0.00000000000E+00 0.  1.
</event>
<event>
12    1  0.8226261E-002  0.2011627E+03  0.7818608E-02  0.1149050E+00
         21   -1    0    0  501  502  0.00000000000E+00  0.00000000000E+00  0.10423331863E+03  0.10423331863E+03  0.00000000000E+00 0. -1.
         21   -1    0    0  502  503 -0.00000000000E+00 -0.00000000000E+00 -0.38597915500E+03  0.38597915500E+03  0.00000000000E+00 0. -1.
         -6    2    1    2    0  503  0.10269562060E+03 -0.50793918032E+01 -0.14817896034E+03  0.24874500178E+03  0.17130347607E+03 0.  0.
        -24    2    3    3    0    0  0.34486579012E+02  0.59157825631E+02 -0.72332304429E+02  0.12810629045E+03  0.80562317027E+02 0.  0.
          6    2    1    2  501    0 -0.10269562060E+03  0.50793918032E+01 -0.13356687604E+03  0.24146747185E+03  0.17289950513E+03 0.  0.
         24    2    5    5    0    0 -0.14003361601E+03 -0.17080710385E+02 -0.76587201788E+02  0.16967632122E+03  0.54984454392E+02 0.  0.
          5    1    5    5  501    0  0.37337995414E+02  0.22160102188E+02 -0.56979674250E+02  0.71791150626E+02  0.47000000000E+01 0. -1.
        -13    1    6    6    0    0 -0.30154507559E+02  0.64003537895E+00  0.64142766865E+01  0.30835805759E+02  0.00000000000E+00 0.  1.
         14    1    6    6    0    0 -0.10987910846E+03 -0.17720745764E+02 -0.83001478474E+02  0.13884051546E+03  0.00000000000E+00 0. -1.
         -5    1    3    3    0  503  0.68209041589E+02 -0.64237217434E+02 -0.75846655909E+02  0.12063871133E+03  0.47000000000E+01 0.  1.
         13    1    4    4    0    0  0.53749998456E+02  0.60897573818E+02 -0.40266066001E+02  0.90658330572E+02  0.00000000000E+00 0. -1.
        -14    1    4    4    0    0 -0.19263419444E+02 -0.17397481875E+01 -0.32066238428E+02  0.37447959882E+02  0.00000000000E+00 0.  1.
</event>
<event>
12    1  0.8226261E-002  0.1896669E+03  0.7818608E-02  0.1159643E+00
         21   -1    0    0  501  502  0.00000000000E+00  0.00000000000E+00  0.39213963318E+02  0.39213963318E+02  0.00000000000E+00 0.  1.
         21   -1    0    0  502  503 -0.00000000000E+00 -0.00000000000E+00 -0.94977791597E+03  0.94977791597E+03  0.00000000000E+00 0.  1.
         -6    2    1    2    0  503 -0.50927598648E+02 -0.61395829639E+02 -0.57425339694E+03  0.60476482434E+03  0.17207690332E+03 0.  0.
        -24    2    3    3    0    0  0.40096472557E+02 -0.37069329017E+02 -0.28209045343E+03  0.29774945708E+03  0.78088750850E+02 0.  0.
          6    2    1    2  501    0  0.50927598648E+02  0.61395829639E+02 -0.33631055570E+03  0.38422705494E+03  0.16781707801E+03 0.  0.
         24    2    5    5    0    0  0.70894179219E+02 -0.46400844989E-01 -0.12335520451E+03  0.16163800843E+03  0.76709533234E+02 0.  0.
          5    1    5    5  501    0 -0.19966580571E+02  0.61442230484E+02 -0.21295535120E+03  0.22258904652E+03  0.47000000000E+01 0. -1.
        -11    1    6    6    0    0  0.11609860601E+01 -0.27171055461E+02 -0.49646676039E+02  0.56607478174E+02  0.00000000000E+00 0.  1.
         12    1    6    6    0    0  0.69733193159E+02  0.27124654616E+02 -0.73708528468E+02  0.10503053025E+03  0.00000000000E+00 0. -1.
         -5    1    3    3    0  503 -0.91024071205E+02 -0.24326500622E+02 -0.29216294352E+03  0.30701536726E+03  0.47000000000E+01 0.  1.
         11    1    4    4    0    0  0.27972699810E+02 -0.27785854226E+02 -0.43649668901E+02  0.58820228025E+02  0.00000000000E+00 0. -1.
        -12    1    4    4    0    0  0.12123772747E+02 -0.92834747913E+01 -0.23844078453E+03  0.23892922905E+03  0.00000000000E+00 0.  1.
</event>
<event>
12    1  0.8226261E-002  0.2581073E+03  0.7818608E-02  0.1108334E+00
         21   -1    0    0  501  502  0.00000000000E+00  0.00000000000E+00  0.59641825289E+03  0.59641825289E+03  0.00000000000E+00 0.  1.
         21   -1    0    0  502  503 -0.00000000000E+00 -0.00000000000E+00 -0.11623314900E+03  0.11623314900E+03  0.00000000000E+00 0. -1.
         -6    2    1    2    0  503  0.72199370747E+02 -0.17780563483E+03  0.16852380319E+03  0.30798842504E+03  0.17213077820E+03 0.  0.
        -24    2    3    3    0    0  0.27899629313E+02 -0.17069575895E+03  0.76918122422E+02  0.20587717113E+03  0.80954188261E+02 0.  0.
          6    2    1    2  501    0 -0.72199370747E+02  0.17780563483E+03  0.31166130069E+03  0.40466297685E+03  0.17260291298E+03 0.  0.
         24    2    5    5    0    0 -0.34667061011E+02  0.84399778101E+02  0.26961434517E+03  0.29546881577E+03  0.79276719823E+02 0.  0.
          5    1    5    5  501    0 -0.37532309736E+02  0.93405856731E+02  0.42046955524E+02  0.10919416108E+03  0.47000000000E+01 0. -1.
        -11    1    6    6    0    0 -0.55892230819E+02  0.75586018408E+02  0.18141966691E+03  0.20432886038E+03  0.00000000000E+00 0.  1.
         12    1    6    6    0    0  0.21225169808E+02  0.88137596933E+01  0.88194678262E+02  0.91139955382E+02  0.00000000000E+00 0. -1.
         -5    1    3    3    0  503  0.44299741435E+02 -0.71098758832E+01  0.91605680770E+02  0.10211125391E+03  0.47000000000E+01 0.  1.
         13    1    4    4    0    0  0.41004392402E+02 -0.14080786102E+03  0.31585369339E+02  0.15001949699E+03  0.00000000000E+00 0. -1.
        -14    1    4    4    0    0 -0.13104763090E+02 -0.29887897930E+02  0.45332753083E+02  0.55857674140E+02  0.00000000000E+00 0.  1.
</event>
<event>
12    1  0.8226261E-002  0.1798358E+03  0.7818608E-02  0.1168959E+00
         21   -1    0    0  503  502  0.00000000000E+00  0.00000000000E+00  0.32238863177E+03  0.32238863177E+03  0.00000000000E+00 0. -1.
         21   -1    0    0  501  503 -0.00000000000E+00 -0.00000000000E+00 -0.10617335077E+03  0.10617335077E+03  0.00000000000E+00 0. -1.
          6    2    1    2  501    0  0.58856650951E+01 -0.50083489330E+02  0.47742767973E+02  0.18213976741E+03  0.16838208343E+03 0.  0.
         24    2    3    3    0    0 -0.10466056847E+02 -0.38662236961E+02  0.94213175236E+02  0.13135184988E+03  0.82297504005E+02 0.  0.
         -6    2    1    2    0  502 -0.58856650951E+01  0.50083489330E+02  0.16847251303E+03  0.24642221513E+03  0.17262075051E+03 0.  0.
        -24    2    5    5    0    0  0.35472553409E+02  0.84777470808E+02  0.13882285785E+03  0.18465356094E+03  0.79872586681E+02 0.  0.
          5    1    3    3  501    0  0.16351721942E+02 -0.11421252369E+02 -0.46470407263E+02  0.50787917533E+02  0.47000000000E+01 0. -1.
        -13    1    4    4    0    0 -0.25810389369E+02  0.18452443614E+02  0.25594339586E+02  0.40764434175E+02  0.00000000000E+00 0.  1.
         14    1    4    4    0    0  0.15344332523E+02 -0.57114680575E+02  0.68618835650E+02  0.90587415703E+02  0.00000000000E+00 0. -1.
         -5    1    5    5    0  502 -0.41358218504E+02 -0.34693981478E+02  0.29649655180E+02  0.61768654194E+02  0.47000000000E+01 0.  1.
         13    1    6    6    0    0 -0.25229929839E+02  0.15387420136E+02  0.32576489166E+02  0.43983516282E+02  0.00000000000E+00 0. -1.
        -14    1    6    6    0    0  0.60702483248E+02  0.69390050672E+02  0.10624636868E+03  0.14067004465E+03  0.00000000000E+00 0.  1.
</event>
<event>
12    1  0.8226261E-002  0.2175319E+03  0.7818608E-02  0.1135828E+00
         21   -1    0    0  503  502  0.00000000000E+00  0.00000000000E+00  0.20749929102E+03  0.20749929102E+03  0.00000000000E+00 0.  1.
         21   -1    0    0  501  503 -0.00000000000E+00 -0.00000000000E+00 -0.28631889969E+03  0.28631889969E+03  0.00000000000E+00 0.  1.
          6    2    1    2  501    0  0.10706129449E+03  0.81943293851E+02  0.72424710669E+02  0.22927160847E+03  0.17071411057E+03 0.  0.
         24    2    3    3    0    0  0.57513053140E+02  0.91783044147E+02 -0.78269698452E+01  0.13432809299E+03  0.79062612112E+02 0.  0.
         -6    2    1    2    0  502 -0.10706129449E+03 -0.81943293851E+02 -0.15124431934E+03  0.26454658223E+03  0.17009769503E+03 0.  0.
        -24    2    5    5    0    0 -0.63014209979E+02 -0.81715108535E+02 -0.28982242713E+02  0.13450696095E+03  0.81265014178E+02 0.  0.
          5    1    3    3  501    0  0.49548241350E+02 -0.98397502957E+01  0.80251680514E+02  0.94943515482E+02  0.47000000000E+01 0. -1.
        -11    1    4    4    0    0  0.37014758893E+02  0.44309856650E+02  0.34713783372E+02  0.67368408978E+02  0.00000000000E+00 0.  1.
         12    1    4    4    0    0  0.20498294246E+02  0.47473187497E+02 -0.42540753217E+02  0.66959684008E+02  0.00000000000E+00 0. -1.
         -5    1    5    5    0  502 -0.44047084511E+02 -0.22818531577E+00 -0.12226207663E+03  0.13003962128E+03  0.47000000000E+01 0.  1.
         13    1    6    6    0    0 -0.71979571834E+01  0.14676452380E+02 -0.15110696043E+02  0.22260772156E+02  0.00000000000E+00 0. -1.
        -14    1    6    6    0    0 -0.55816252795E+02 -0.96391560916E+02 -0.13871546670E+02  0.11224618879E+03  0.00000000000E+00 0.  1.
</event>
<event>
12    1  0.8226261E-002  0.2436098E+03  0.7818608E-02  0.1118634E+00
         21   -1    0    0  503  502  0.00000000000E+00  0.00000000000E+00  0.19275938571E+03  0.19275938571E+03  0.00000000000E+00 0. -1.
         21   -1    0    0  501  503 -0.00000000000E+00 -0.00000000000E+00 -0.48470457312E+03  0.48470457312E+03  0.00000000000E+00 0.  1.
          6    2    1    2  501    0 -0.13006309046E+03  0.96790888399E+02 -0.35720989982E+03  0.43237093758E+03  0.18182637752E+03 0.  0.
         24    2    3    3    0    0 -0.49373575268E+02  0.81840165308E+01 -0.60242746273E+02  0.11209987131E+03  0.80202647143E+02 0.  0.
         -6    2    1    2    0  502  0.13006309046E+03 -0.96790888399E+02  0.65264712405E+02  0.24509302125E+03  0.17183196095E+03 0.  0.
        -24    2    5    5    0    0  0.41886309644E+02 -0.78765418497E+02  0.92096898797E+02  0.15106048185E+03  0.79868493924E+02 0.  0.
          5    1    3    3  501    0 -0.80689515188E+02  0.88606871868E+02 -0.29696715355E+03  0.32027106627E+03  0.47000000000E+01 0. -1.
        -11    1    4    4    0    0  0.18681090394E+02 -0.58692291763E+01  0.81155089359E+00  0.19598204109E+02  0.00000000000E+00 0.  1.
         12    1    4    4    0    0 -0.68054665662E+02  0.14053245707E+02 -0.61054297167E+02  0.92501667206E+02  0.00000000000E+00 0. -1.
         -5    1    5    5    0  502  0.88176780813E+02 -0.18025469902E+02 -0.26832186392E+02  0.94032539401E+02  0.47000000000E+01 0.  1.
         11    1    6    6    0    0  0.46376366609E+02 -0.87969389092E+02  0.57265937664E+02  0.11475525440E+03  0.00000000000E+00 0. -1.
        -12    1    6    6    0    0 -0.44900569652E+01  0.92039705950E+01  0.34830961134E+02  0.36305227444E+02  0.00000000000E+00 0.  1.
</event>
<event>
12    1  0.8226261E-002  0.2258800E+03  0.7818608E-02  0.1129829E+00
         21   -1    0    0  503  502  0.00000000000E+00  0.00000000000E+00  0.19161188486E+03  0.19161188486E+03  0.00000000000E+00 0. -1.
         21   -1    0    0  501  503 -0.00000000000E+00 -0.00000000000E+00 -0.39034806003E+03  0.39034806003E+03  0.00000000000E+00 0. -1.
          6    2    1    2  501    0  0.13520645948E+03 -0.18501277474E+02  0.65985235888E+02  0.23396684127E+03  0.17822274688E+03 0.  0.
         24    2    3    3    0    0  0.15481712386E+02  0.15303708654E+02  0.72551135245E+02  0.10929931066E+03  0.78795844871E+02 0.  0.
         -6    2    1    2    0  502 -0.13520645948E+03  0.18501277474E+02 -0.26472141106E+03  0.34799310361E+03  0.17999636312E+03 0.  0.
        -24    2    5    5    0    0 -0.73885865734E+02  0.39224853822E+02 -0.25837500132E+03  0.28278536825E+03  0.78817592436E+02 0.  0.
          5    1    3    3  501    0  0.11972474710E+03 -0.33804986128E+02 -0.65658993574E+01  0.12466753061E+03  0.47000000000E+01 0. -1.
        -11    1    4    4    0    0  0.17551944952E+02  0.31781871559E+02  0.15047192705E+01  0.36337615655E+02  0.00000000000E+00 0.  1.
         12    1    4    4    0    0 -0.20702325661E+01 -0.16478162905E+02  0.71046415975E+02  0.72961695008E+02  0.00000000000E+00 0. -1.
         -5    1    5    5    0  502 -0.61320593748E+02 -0.20723576348E+02 -0.63464097387E+01  0.65207735361E+02  0.47000000000E+01 0.  1.
         11    1    6    6    0    0 -0.56255753349E+02 -0.14742708905E+02 -0.12946213715E+03  0.14192428336E+03  0.00000000000E+00 0. -1.
        -12    1    6    6    0    0 -0.17630112385E+02  0.53967562727E+02 -0.12891286417E+03  0.14086108489E+03  0.00000000000E+00 0.  1.
</event>
<event>
12    1  0.8226261E-002  0.1782073E+03  0.7818608E-02  0.1170888E+00
         21   -1    0    0  501  502  0.00000000000E+00  0.00000000000E+00  0.85801227234E+02  0.85801227234E+02  0.00000000000E+00 0. -1.
         21   -1    0    0  502  503 -0.00000000000E+00 -0.00000000000E+00 -0.73259413306E+03  0.73259413306E+03  0.00000000000E+00 0. -1.
         -6    2    1    2    0  503 -0.13411546164E+02 -0.46122139904E+01 -0.61314471238E+03  0.63703926601E+03  0.17225401602E+03 0.  0.
        -24    2    3    3    0    0 -0.55978250342E+02 -0.20034719074E+02 -0.53942781415E+03  0.55040180845E+03  0.91786870477E+02 0.  0.
          6    2    1    2  501    0  0.13411546164E+02  0.46122139904E+01 -0.33648193449E+02  0.18135609428E+03  0.17764202747E+03 0.  0.
         24    2    5    5    0    0 -0.61245148923E+02 -0.51886217154E+01 -0.51435010768E+01  0.10070694061E+03  0.79608681818E+02 0.  0.
          5    1    5    5  501    0  0.74656695087E+02  0.98008357059E+01 -0.28504692373E+02  0.80649153679E+02  0.47000000000E+01 0. -1.
        -13    1    6    6    0    0 -0.36755240141E+02 -0.25929242195E+02 -0.34907453470E+02  0.56936838570E+02  0.00000000000E+00 0.  1.
         14    1    6    6    0    0 -0.24489908783E+02  0.20740620480E+02  0.29763952393E+02  0.43770102035E+02  0.00000000000E+00 0. -1.
         -5    1    3    3    0  503  0.42566704178E+02  0.15422505084E+02 -0.73716898234E+02  0.86637457562E+02  0.47000000000E+01 0.  1.
         13    1    4    4    0    0 -0.47364256695E+02  0.16721337132E+02 -0.45685804083E+03  0.45961097180E+03  0.00000000000E+00 0. -1.
        -14    1    4    4    0    0 -0.86139936468E+01 -0.36756056207E+02 -0.82569773320E+02  0.90790836655E+02  0.00000000000E+00 0.  1.
</event>
<event>
12    1  0.8226261E-002  0.3325334E+03  0.7818608E-02  0.1070039E+00
         21   -1    0    0  501  502  0.00000000000E+00  0.00000000000E+00  0.42437628615E+03  0.42437628615E+03  0.00000000000E+00 0.  1.
         21   -1    0    0  502  503 -0.00000000000E+00 -0.00000000000E+00 -0.38325279696E+03  0.38325279696E+03  0.00000000000E+00 0. -1.
         -6    2    1    2    0  503  0.18161177181E+03 -0.21849395193E+03 -0.20802438551E+03  0.39224049348E+03  0.17278893794E+03 0.  0.
        -24    2    3    3    0    0  0.98274665208E+02 -0.19906544577E+03 -0.19542627417E+03  0.30561865676E+03  0.76982940988E+02 0.  0.
          6    2    1    2  501    0 -0.18161177181E+03  0.21849395193E+03  0.24914787469E+03  0.41538858963E+03  0.17248354773E+03 0.  0.
         24    2    5    5    0    0 -0.18720714076E+03  0.22789249418E+03  0.26046009339E+03  0.39896613421E+03  0.65977371411E+02 0.  0.
          5    1    5    5  501    0  0.55953689564E+01 -0.93985422509E+01 -0.11312218696E+02  0.16422455420E+02  0.47000000000E+01 0. -1.
        -11    1    6    6    0    0 -0.49869441033E+02  0.90937537656E+02  0.12483203516E+03  0.16229489797E+03  0.00000000000E+00 0.  1.
         12    1    6    6    0    0 -0.13733769973E+03  0.13695495653E+03  0.13562805823E+03  0.23667123624E+03  0.00000000000E+00 0. -1.
         -5    1    3    3    0  503  0.83337106598E+02 -0.19428506166E+02 -0.12598111333E+02  0.86621836722E+02  0.47000000000E+01 0.  1.
         11    1    4    4    0    0  0.41620714151E+02 -0.57853743796E+02 -0.11015689132E+03  0.13120167767E+03  0.00000000000E+00 0. -1.
        -12    1    4    4    0    0  0.56653951056E+02 -0.14121170197E+03 -0.85269382854E+02  0.17441697909E+03  0.00000000000E+00 0.  1.
</event>
<event>
12    1  0.8226261E-002  0.1790283E+03  0.7818608E-02  0.1169234E+00
         21   -1    0    0  503  502  0.00000000000E+00  0.00000000000E+00  0.44257007743E+02  0.44257007743E+02  0.00000000000E+00 0. -1.
         21   -1    0    0  501  503 -0.00000000000E+00 -0.00000000000E+00 -0.77705530670E+03  0.77705530670E+03  0.00000000000E+00 0. -1.
          6    2    1    2  501    0  0.15600778941E+02  0.40700630139E+02 -0.48320929425E+03  0.51530802925E+03  0.17364105898E+03 0.  0.
         24    2    3    3    0    0 -0.23332584119E+02 -0.36604750015E+02 -0.21690165758E+03  0.23524772162E+03  0.80067747950E+02 0.  0.
         -6    2    1    2    0  502 -0.15600778941E+02 -0.40700630139E+02 -0.24958900471E+03  0.30600428520E+03  0.17159261549E+03 0.  0.
        -24    2    5    5    0    0 -0.63150220481E+02 -0.64710273309E+02 -0.19779650783E+03  0.23155990939E+03  0.79505743878E+02 0.  0.
          5    1    3    3  501    0  0.38933363060E+02  0.77305380154E+02 -0.26630763668E+03  0.28006030763E+03  0.47000000000E+01 0. -1.
        -13    1    4    4    0    0 -0.15104735960E+02 -0.99005566262E+01 -0.20342411945E+03  0.20422425528E+03  0.00000000000E+00 0.  1.
         14    1    4    4    0    0 -0.82278481582E+01 -0.26704193388E+02 -0.13477538128E+02  0.31023466341E+02  0.00000000000E+00 0. -1.
         -5    1    5    5    0  502  0.47549441540E+02  0.24009643170E+02 -0.51792496883E+02  0.74444375807E+02  0.47000000000E+01 0.  1.
         11    1    6    6    0    0  0.12070375519E+02 -0.33376536299E+02 -0.87527728224E+02  0.94449935672E+02  0.00000000000E+00 0. -1.
        -12    1    6    6    0    0 -0.75220596000E+02 -0.31333737011E+02 -0.11026877960E+03  0.13710997372E+03  0.00000000000E+00 0.  1.
</event>
<event>
12    1  0.8226261E-002  0.2349775E+03  0.7818608E-02  0.1123342E+00
         21   -1    0    0  503  502  0.00000000000E+00  0.00000000000E+00  0.96827440282E+03  0.96827440282E+03  0.00000000000E+00 0.  1.
         21   -1    0    0  501  503 -0.00000000000E+00 -0.00000000000E+00 -0.33634323273E+03  0.33634323273E+03  0.00000000000E+00 0. -1.
          6    2    1    2  501    0 -0.11460482375E+03 -0.11261312457E+03 -0.27882244147E+03  0.36403985081E+03  0.17019717290E+03 0.  0.
         24    2    3    3    0    0 -0.13775089351E+03 -0.12775251100E+03 -0.26045560869E+03  0.33050819244E+03  0.78118681750E+02 0.  0.
         -6    2    1    2    0  502  0.11460482375E+03  0.11261312457E+03  0.91075361155E+03  0.94057778473E+03  0.17145975249E+03 0.  0.
        -24    2    5    5    0    0  0.13415625029E+03  0.10896008256E+03  0.60768183687E+03  0.63681769254E+03  0.79933469790E+02 0.  0.
          5    1    3    3  501    0  0.23146069764E+02  0.15139386435E+02 -0.18366832775E+02  0.33531658374E+02  0.47000000000E+01 0. -1.
        -13    1    4    4    0    0 -0.83327052572E+02 -0.11903731852E+03 -0.16155578489E+03  0.21728679786E+03  0.00000000000E+00 0.  1.
         14    1    4    4    0    0 -0.54423840940E+02 -0.87151924778E+01 -0.98899823800E+02  0.11322139458E+03  0.00000000000E+00 0. -1.
         -5    1    5    5    0  502 -0.19551426544E+02  0.36530420088E+01  0.30307177469E+03  0.30376009219E+03  0.47000000000E+01 0.  1.
         11    1    6    6    0    0  0.17182203206E+02 -0.17565408848E+01  0.15783863002E+02  0.23397518547E+02  0.00000000000E+00 0. -1.
        -12    1    6    6    0    0  0.11697404709E+03  0.11071662344E+03  0.59189797387E+03  0.61342017400E+03  0.00000000000E+00 0.  1.
</event>
<event>
12    1  0.8226261E-002  0.2485937E+03  0.7818608E-02  0.1114197E+00
         21   -1    0    0  503  502  0.00000000000E+00  0.00000000000E+00  0.64220982172E+02  0.64220982172E+02  0.00000000000E+00 0.  1.
         21   -1    0    0  501  503 -0.00000000000E+00 -0.00000000000E+00 -0.11066181047E+04  0.11066181047E+04  0.00000000000E+00 0. -1.
          6    2    1    2  501    0 -0.14204033164E+03  0.10998471055E+03 -0.73262613273E+03  0.77365283910E+03  0.17183006935E+03 0.  0.
         24    2    3    3    0    0 -0.82380866378E+02  0.16296250616E+02 -0.21312431593E+03  0.24238924448E+03  0.79236335534E+02 0.  0.
         -6    2    1    2    0  502  0.14204033164E+03 -0.10998471055E+03 -0.30977098978E+03  0.39718624775E+03  0.17183351513E+03 0.  0.
        -24    2    5    5    0    0  0.15731070704E+03 -0.92546519206E+02 -0.19024467836E+03  0.27534247891E+03  0.79428749728E+02 0.  0.
          5    1    3    3  501    0 -0.59659465258E+02  0.93688459937E+02 -0.51950181679E+03  0.53126359462E+03  0.47000000000E+01 0. -1.
        -11    1    4    4    0    0  0.70949634119E+01  0.24337494700E+02 -0.54069302418E+02  0.59717180258E+02  0.00000000000E+00 0.  1.
         12    1    4    4    0    0 -0.89475829790E+02 -0.80412440842E+01 -0.15905501351E+03  0.18267206422E+03  0.00000000000E+00 0. -1.
         -5    1    5    5    0  502 -0.15270375400E+02 -0.17438191346E+02 -0.11952631142E+03  0.12184376884E+03  0.47000000000E+01 0.  1.
         11    1    6    6    0    0  0.58129970632E+02 -0.18329688833E+01 -0.92056703319E+02  0.10888934698E+03  0.00000000000E+00 0. -1.
        -12    1    6    6    0    0  0.99180736404E+02 -0.90713550323E+02 -0.98187975042E+02  0.16645313193E+03  0.00000000000E+00 0.  1.
</event>
<event>
12    1  0.8226261E-002  0.2086283E+03  0.7818608E-02  0.1143110E+00
         21   -1    0    0  503  502  0.00000000000E+00  0.00000000000E+00  0.13171927669E+03  0.13171927669E+03  0.00000000000E+00 0.  1.
         21   -1    0    0  501  503 -0.00000000000E+00 -0.00000000000E+00 -0.41096115266E+03  0.41096115266E+03  0.00000000000E+00 0. -1.
          6    2    1    2  501    0 -0.10396234999E+03  0.46444407279E+02 -0.26295981138E+03  0.33566892366E+03  0.17481564784E+03 0.  0.
         24    2    3    3    0    0 -0.62483099055E+01  0.18999138691E+02 -0.43196973913E+02  0.93555167077E+02  0.80539320110E+02 0.  0.
         -6    2    1    2    0  502  0.10396234999E+03 -0.46444407279E+02 -0.16282064597E+02  0.20701150569E+03  0.17211451036E+03 0.  0.
        -24    2    5    5    0    0  0.27558436986E+02 -0.39268621449E+02 -0.65398161414E+02  0.11577811930E+03  0.82620586494E+02 0.  0.
          5    1    3    3  501    0 -0.97714040086E+02  0.27445268588E+02 -0.21976283747E+03  0.24211375659E+03  0.47000000000E+01 0. -1.
        -11    1    4    4    0    0 -0.31019151851E+02  0.37618617516E+02 -0.38684066808E+02  0.62239900307E+02  0.00000000000E+00 0.  1.
         12    1    4    4    0    0  0.24770841946E+02 -0.18619478824E+02 -0.45129071050E+01  0.31315266771E+02  0.00000000000E+00 0. -1.
         -5    1    5    5    0  502  0.76403913006E+02 -0.71757858309E+01  0.49116096818E+02  0.91233386386E+02  0.47000000000E+01 0.  1.
         11    1    6    6    0    0  0.55114742280E+02 -0.14347504891E+02 -0.29600639019E+02  0.64184760991E+02  0.00000000000E+00 0. -1.
        -12    1    6    6    0    0 -0.27556305294E+02 -0.24921116557E+02 -0.35797522395E+02  0.51593358309E+02  0.00000000000E+00 0.  1.
</event>
<event>
12    1  0.8226261E-002  0.1779259E+03  0.7818608E-02  0.1169953E+00
         21   -1    0    0  503  502  0.00000000000E+00  0.00000000000E+00  0.34733138347E+02  0.34733138347E+02  0.00000000000E+00 0. -1.
         21   -1    0    0  501  503 -0.00000000000E+00 -0.00000000000E+00 -0.98506925316E+03  0.98506925316E+03  0.00000000000E+00 0. -1.
          6    2    1    2  501    0  0.14921231324E+01  0.45235432122E+02 -0.61767810876E+03  0.64279379196E+03  0.17207307224E+03 0.  0.
         24    2    3    3    0    0  0.16681405131E+02  0.22833320179E+02 -0.60781408330E+03  0.61360547400E+03  0.79209141371E+02 0.  0.
         -6    2    1    2    0  502 -0.14921231324E+01 -0.45235432122E+02 -0.33265800605E+03  0.37700859955E+03  0.17153910455E+03 0.  0.
        -24    2    5    5    0    0 -0.24180677687E+02 -0.95239070569E+02 -0.24961001535E+03  0.27733817702E+03  0.70399708358E+02 0.  0.
          5    1    3    3  501    0 -0.15189281999E+02  0.22402111943E+02 -0.98640254610E+01  0.29188317962E+02  0.47000000000E+01 0. -1.
        -13    1    4    4    0    0 -0.21214869779E+02 -0.13657338262E+02 -0.10247824489E+03  0.10553854398E+03  0.00000000000E+00 0.  1.
         14    1    4    4    0    0  0.37896274910E+02  0.36490658441E+02 -0.50533583840E+03  0.50806693002E+03  0.00000000000E+00 0. -1.
         -5    1    5    5    0  502  0.22688554554E+02  0.50003638447E+02 -0.83047990709E+02  0.99670422526E+02  0.47000000000E+01 0.  1.
         13    1    6    6    0    0 -0.99751623470E+01 -0.82401135425E+02 -0.11757029396E+03  0.14391742426E+03  0.00000000000E+00 0. -1.
        -14    1    6    6    0    0 -0.14205515340E+02 -0.12837935144E+02 -0.13203972138E+03  0.13342075276E+03  0.00000000000E+00 0.  1.
</event>
<event>
12    1  0.8226261E-002  0.1751731E+03  0.7818608E-02  0.1173532E+00
         21   -1    0    0  503  502  0.00000000000E+00  0.00000000000E+00  0.11170744577E+03  0.11170744577E+03  0.00000000000E+00 0.  1.
         21   -1    0    0  501  503 -0.00000000000E+00 -0.00000000000E+00 -0.28901081096E+03  0.28901081096E+03  0.00000000000E+00 0. -1.
          6    2    1    2  501    0 -0.12775669140E+02  0.31775346073E+02 -0.34638640844E+02  0.17480048254E+03  0.16787639177E+03 0.  0.
         24    2    3    3    0    0  0.20993888925E+02  0.10970394254E+02 -0.78195423805E+02  0.11570300024E+03  0.81924154176E+02 0.  0.
         -6    2    1    2    0  502  0.12775669140E+02 -0.31775346073E+02 -0.14266472434E+03  0.22591777419E+03  0.17179268547E+03 0.  0.
        -24    2    5    5    0    0 -0.57744762785E+02 -0.24919202714E+02 -0.71425066651E+02  0.12533290033E+03  0.81555940718E+02 0.  0.
          5    1    3    3  501    0 -0.33769558065E+02  0.20804951819E+02  0.43556782961E+02  0.59097482298E+02  0.47000000000E+01 0. -1.
        -13    1    4    4    0    0 -0.28388689368E+01 -0.14769593560E+02  0.11797429777E+02  0.19114900474E+02  0.00000000000E+00 0.  1.
         14    1    4    4    0    0  0.23832757862E+02  0.25739987814E+02 -0.89992853582E+02  0.96588099763E+02  0.00000000000E+00 0. -1.
         -5    1    5    5    0  502  0.70520431925E+02 -0.68561433594E+01 -0.71239657693E+02  0.10058487386E+03  0.47000000000E+01 0.  1.
         11    1    6    6    0    0  0.17978936215E+02 -0.17298484184E+02 -0.28796129474E+02  0.38101138765E+02  0.00000000000E+00 0. -1.
        -12    1    6    6    0    0 -0.75723699000E+02 -0.76207185298E+01 -0.42628937178E+02  0.87231761567E+02  0.00000000000E+00 0.  1.
</event>
<event>
12    1  0.8226261E-002  0.2786857E+03  0.7818608E-02  0.1096472E+00
         21   -1    0    0  503  502  0.00000000000E+00  0.00000000000E+00  0.34267059626E+02  0.34267059626E+02  0.00000000000E+00 0.  1.
         21   -1    0    0  501  503 -0.00000000000E+00 -0.00000000000E+00 -0.26608133835E+04  0.26608133835E+04  0.00000000000E+00 0. -1.
          6    2    1    2  501    0 -0.11756161119E+03 -0.18393116516E+03 -0.18335562329E+04  0.18545454783E+04  0.17250816128E+03 0.  0.
         24    2    3    3    0    0  0.43013080069E+01 -0.10583298015E+03 -0.80697034087E+03  0.81779546917E+03  0.79807126390E+02 0.  0.
         -6    2    1    2    0  502  0.11756161119E+03  0.18393116516E+03 -0.79299009093E+03  0.84053496484E+03  0.17324646278E+03 0.  0.
        -24    2    5    5    0    0  0.50249007127E+02  0.92882672183E+02 -0.61796497088E+03  0.63202429992E+03  0.80136489449E+02 0.  0.
          5    1    3    3  501    0 -0.12186291920E+03 -0.78098185012E+02 -0.10265858921E+04  0.10367500091E+04  0.47000000000E+01 0. -1.
        -13    1    4    4    0    0  0.27159811158E+02 -0.65409106809E+02 -0.28133592666E+03  0.29011361606E+03  0.00000000000E+00 0.  1.
         14    1    4    4    0    0 -0.22858503151E+02 -0.40423873340E+02 -0.52563441421E+03  0.52768185311E+03  0.00000000000E+00 0. -1.
         -5    1    5    5    0  502  0.67312604063E+02  0.91048492978E+02 -0.17502512005E+03  0.20851066492E+03  0.47000000000E+01 0.  1.
         11    1    6    6    0    0  0.49321039106E+01  0.68529124819E+02 -0.21305982934E+03  0.22386392625E+03  0.00000000000E+00 0. -1.
        -12    1    6    6    0    0  0.45316903217E+02  0.24353547364E+02 -0.40490514155E+03  0.40816037367E+03  0.00000000000E+00 0.  1.
</event>
<event>
12    1  0.8226261E-002  0.2038111E+03  0.7818608E-02  0.1146759E+00
         21   -1    0    0  503  502  0.00000000000E+00  0.00000000000E+00  0.16005212088E+03  0.16005212088E+03  0.00000000000E+00 0.  1.
         21   -1    0    0  501  503 -0.00000000000E+00 -0.00000000000E+00 -0.11484785127E+04  0.11484785127E+04  0.00000000000E+00 0.  1.
          6    2    1    2  501    0 -0.10646133867E+03  0.18262928205E+02 -0.10704761874E+04  0.10897055625E+04  0.17283342848E+03 0.  0.
         24    2    3    3    0    0 -0.29350647544E+02 -0.21402896107E+02 -0.83617611966E+03  0.83982949713E+03  0.69307551501E+02 0.  0.
         -6    2    1    2    0  502  0.10646133867E+03 -0.18262928205E+02  0.82049795529E+02  0.21882507111E+03  0.17171107018E+03 0.  0.
        -24    2    5    5    0    0  0.11400668641E+03 -0.30131376411E+02  0.11523772996E+03  0.18247508724E+03  0.78179272625E+02 0.  0.
          5    1    3    3  501    0 -0.77110691129E+02  0.39665824312E+02 -0.23430006770E+03  0.24987606534E+03  0.47000000000E+01 0. -1.
        -11    1    4    4    0    0 -0.46976648746E+02  0.36441218418E+01 -0.45906403321E+03  0.46147575423E+03  0.00000000000E+00 0.  1.
         12    1    4    4    0    0  0.17626001201E+02 -0.25047017949E+02 -0.37711208645E+03  0.37835374290E+03  0.00000000000E+00 0. -1.
         -5    1    5    5    0  502 -0.75453477331E+01  0.11868448207E+02 -0.33187934433E+02  0.36349983868E+02  0.47000000000E+01 0.  1.
         11    1    6    6    0    0  0.64893881695E+02 -0.38181225957E+02  0.24842929464E+02  0.79285515962E+02  0.00000000000E+00 0. -1.
        -12    1    6    6    0    0  0.49112804712E+02  0.80498495454E+01  0.90394800498E+02  0.10318957128E+03  0.00000000000E+00 0.  1.
</event>
<event>
12    1  0.8226261E-002  0.3282602E+03  0.7818608E-02  0.1072058E+00
         21   -1    0    0  503  502  0.00000000000E+00  0.00000000000E+00  0.11022381378E+03  0.11022381378E+03  0.00000000000E+00 0.  1.
         21   -1    0    0  501  503 -0.00000000000E+00 -0.00000000000E+00 -0.97362628571E+03  0.97362628571E+03  0.00000000000E+00 0.  1.
          6    2    1    2  501    0 -0.24861886001E+03 -0.12662575356E+03 -0.43153145014E+03  0.54138593533E+03  0.17039342563E+03 0.  0.
         24    2    3    3    0    0 -0.25981661115E+03 -0.13145321624E+03 -0.35242102920E+03  0.46120337659E+03  0.61019285961E+02 0.  0.
         -6    2    1    2    0  502  0.24861886001E+03  0.12662575356E+03 -0.43187102179E+03  0.54246416416E+03  0.17294325925E+03 0.  0.
        -24    2    5    5    0    0  0.13291178764E+03  0.13689075001E+03 -0.32043144912E+03  0.38142266297E+03  0.80014458127E+02 0.  0.
          5    1    3    3  501    0  0.11197751144E+02  0.48274626737E+01 -0.79110420935E+02  0.80182558746E+02  0.47000000000E+01 0. -1.
        -13    1    4    4    0    0 -0.14689920266E+03 -0.10049860666E+03 -0.24079415035E+03  0.29943474836E+03  0.00000000000E+00 0.  1.
         14    1    4    4    0    0 -0.11291740850E+03 -0.30954609574E+02 -0.11162687885E+03  0.16176862822E+03  0.00000000000E+00 0. -1.
         -5    1    5    5    0  502  0.11570707237E+03 -0.10264996449E+02 -0.11143957267E+03  0.16104150119E+03  0.47000000000E+01 0.  1.
         13    1    6    6    0    0  0.14605306720E+02  0.70572699403E+01 -0.91202095398E+02  0.92633375457E+02  0.00000000000E+00 0. -1.
        -14    1    6    6    0    0  0.11830648092E+03  0.12983348007E+03 -0.22922935373E+03  0.28878928752E+03  0.00000000000E+00 0.  1.
</event>
<event>
12    1  0.8226261E-002  0.1869958E+03  0.7818608E-02  0.1161587E+00
         21   -1    0    0  501  502  0.00000000000E+00  0.00000000000E+00  0.98160635271E+03  0.98160635271E+03  0.00000000000E+00 0.  1.
         21   -1    0    0  502  503 -0.00000000000E+00 -0.00000000000E+00 -0.38413220786E+02  0.38413220786E+02  0.00000000000E+00 0.  1.
         -6    2    1    2    0  503  0.21972385370E+02  0.64790631004E+02  0.61474307757E+03  0.64206870149E+03  0.17222820451E+03 0.  0.
        -24    2    3    3    0    0 -0.28671608443E+00 -0.29088239181E+02  0.35113412033E+03  0.36131884450E+03  0.80062032604E+02 0.  0.
          6    2    1    2  501    0 -0.21972385370E+02 -0.64790631004E+02  0.32845005435E+03  0.37795087200E+03  0.17403106578E+03 0.  0.
         24    2    5    5    0    0  0.51482778893E+02 -0.42268125721E+02  0.14575222502E+03  0.17969974025E+03  0.81309375662E+02 0.  0.
          5    1    5    5  501    0 -0.73455164264E+02 -0.22522505283E+02  0.18269782933E+03  0.19825113175E+03  0.47000000000E+01 0. -1.
        -11    1    6    6    0    0  0.36638204492E+02 -0.54493448265E+02  0.14640644787E+03  0.16045791320E+03  0.00000000000E+00 0.  1.
         12    1    6    6    0    0  0.14844574401E+02  0.12225322544E+02 -0.65422284237E+00  0.19241827044E+02  0.00000000000E+00 0. -1.
         -5    1    3    3    0  503  0.22259101455E+02  0.93878870184E+02  0.26360895724E+03  0.28074985699E+03  0.47000000000E+01 0.  1.
         13    1    4    4    0    0  0.98670776432E+01 -0.47988918734E+02  0.12639788521E+03  0.13556076470E+03  0.00000000000E+00 0. -1.
        -14    1    4    4    0    0 -0.10153793728E+02  0.18900679554E+02  0.22473623512E+03  0.22575807980E+03  0.00000000000E+00 0.  1.
</event>
<event>
12    1  0.8226261E-002  0.2257634E+03  0.7818608E-02  0.1129900E+00
         21   -1    0    0  501  502  0.00000000000E+00  0.00000000000E+00  0.86804473819E+03  0.86804473819E+03  0.00000000000E+00 0.  1.
         21   -1    0    0  502  503 -0.00000000000E+00 -0.00000000000E+00 -0.61333504051E+02  0.61333504051E+02  0.00000000000E+00 0. -1.
         -6    2    1    2    0  503 -0.19474394950E+02 -0.14143643912E+03  0.30004879214E+03  0.37469280495E+03  0.17315282858E+03 0.  0.
        -24    2    3    3    0    0 -0.40800004797E+02 -0.12145645659E+03  0.11971806199E+03  0.19194914959E+03  0.78075286882E+02 0.  0.
          6    2    1    2  501    0  0.19474394950E+02  0.14143643912E+03  0.50666244201E+03  0.55468543730E+03  0.17488735187E+03 0.  0.
         24    2    5    5    0    0  0.32000414214E+02  0.37789613929E+01  0.16455164259E+03  0.18567544907E+03  0.79748493726E+02 0.  0.
          5    1    5    5  501    0 -0.12526019264E+02  0.13765747772E+03  0.34211079942E+03  0.36900998823E+03  0.47000000000E+01 0. -1.
        -13    1    6    6    0    0 -0.49688514797E+00  0.11521188364E+02  0.14789946228E+03  0.14834835900E+03  0.00000000000E+00 0.  1.
         14    1    6    6    0    0  0.32497299362E+02 -0.77422269709E+01  0.16652180310E+02  0.37327090073E+02  0.00000000000E+00 0. -1.
         -5    1    3    3    0  503  0.21325609847E+02 -0.19979982526E+02  0.18033073015E+03  0.18274365536E+03  0.47000000000E+01 0.  1.
         11    1    4    4    0    0 -0.62017022166E+02 -0.66309876388E+02  0.68144861058E+02  0.11352018690E+03  0.00000000000E+00 0. -1.
        -12    1    4    4    0    0  0.21217017369E+02 -0.55146580204E+02  0.51573200929E+02  0.78428962688E+02  0.00000000000E+00 0.  1.
</event>
<event>
12    1  0.8226261E-002  0.2181365E+03  0.7818608E-02  0.1135570E+00
         21   -1    0    0  503  502  0.00000000000E+00  0.00000000000E+00  0.84845712561E+02  0.84845712561E+02  0.00000000000E+00 0.  1.
         21   -1    0    0  501  503 -0.00000000000E+00 -0.00000000000E+00 -0.70240424736E+03  0.70240424736E+03  0.00000000000E+00 0. -1.
          6    2    1    2  501    0  0.12424071996E+03 -0.44725309578E+02 -0.48707440312E+03  0.53306566681E+03  0.17170154673E+03 0.  0.
         24    2    3    3    0    0  0.14877721118E+03 -0.54411895895E+02 -0.46698100552E+03  0.49957381731E+03  0.80046401846E+02 0.  0.
         -6    2    1    2    0  502 -0.12424071996E+03  0.44725309578E+02 -0.13048413168E+03  0.25418429311E+03  0.17363017143E+03 0.  0.
        -24    2    5    5    0    0 -0.13290171684E+03  0.41358957139E+02 -0.41097586401E+02  0.16419323981E+03  0.76791788087E+02 0.  0.
          5    1    3    3  501    0 -0.24536491219E+02  0.96865863165E+01 -0.20093397598E+02  0.33491849499E+02  0.47000000000E+01 0. -1.
        -11    1    4    4    0    0  0.64825628536E+00  0.10933501568E+02 -0.10267601119E+02  0.15012838688E+02  0.00000000000E+00 0.  1.
         12    1    4    4    0    0  0.14812895489E+03 -0.65345397463E+02 -0.45671340440E+03  0.48456097862E+03  0.00000000000E+00 0. -1.
         -5    1    5    5    0  502  0.86609968830E+01  0.33663524393E+01 -0.89386545282E+02  0.89991053295E+02  0.47000000000E+01 0.  1.
         13    1    6    6    0    0  0.33871781177E+01  0.40961531733E+01 -0.20779714349E+02  0.21448728980E+02  0.00000000000E+00 0. -1.
        -14    1    6    6    0    0 -0.13628889496E+03  0.37262803966E+02 -0.20317872052E+02  0.14274451084E+03  0.00000000000E+00 0.  1.
</event>
<event>
12    1  0.8226261E-002  0.1827073E+03  0.7818608E-02  0.1166165E+00
         21   -1    0    0  503  502  0.00000000000E+00  0.00000000000E+00  0.15221335559E+03  0.15221335559E+03  0.00000000000E+00 0.  1.
         21   -1    0    0  501  503 -0.00000000000E+00 -0.00000000000E+00 -0.29230788949E+03  0.29230788949E+03  0.00000000000E+00 0.  1.
          6    2    1    2  501    0 -0.37845208834E+02  0.37220822026E+02 -0.18523948205E+03  0.26018379880E+03  0.17482646832E+03 0.  0.
         24    2    3    3    0    0  0.58764444946E+01  0.61140467278E+02 -0.41662894600E+02  0.10813098277E+03  0.78637289565E+02 0.  0.
         -6    2    1    2    0  502  0.37845208834E+02 -0.37220822026E+02  0.45144948143E+02  0.18433744629E+03  0.17065924627E+03 0.  0.
        -24    2    5    5    0    0 -0.19086263820E+02  0.12058483107E+02  0.66990069782E+02  0.10579483471E+03  0.78709498292E+02 0.  0.
          5    1    3    3  501    0 -0.43721653329E+02 -0.23919645252E+02 -0.14357658745E+03  0.15205281603E+03  0.47000000000E+01 0. -1.
        -11    1    4    4    0    0 -0.17280446687E+02  0.18369129384E+02 -0.52551091796E+02  0.58289415857E+02  0.00000000000E+00 0.  1.
         12    1    4    4    0    0  0.23156891182E+02  0.42771337893E+02  0.10888197196E+02  0.49841566915E+02  0.00000000000E+00 0. -1.
         -5    1    5    5    0  502  0.56931472654E+02 -0.49279305133E+02 -0.21845121639E+02  0.78542611571E+02  0.47000000000E+01 0.  1.
         11    1    6    6    0    0 -0.39087971663E+02 -0.50242125971E+01  0.66445702952E+01  0.39965767294E+02  0.00000000000E+00 0. -1.
        -12    1    6    6    0    0  0.20001707843E+02  0.17082695704E+02  0.60345499487E+02  0.65829067421E+02  0.00000000000E+00 0.  1.
</event>
<event>
12    1  0.8226261E-002  0.1763521E+03  0.7818608E-02  0.1171692E+00
         21   -1    0    0  503  502  0.00000000000E+00  0.00000000000E+00  0.19381164397E+03  0.19381164397E+03  0.00000000000E+00 0.  1.
         21   -1    0    0  501  503 -0.00000000000E+00 -0.00000000000E+00 -0.18904675128E+03  0.18904675128E+03  0.00000000000E+00 0.  1.
          6    2    1    2  501    0  0.16285063315E+02 -0.30610192852E+02 -0.73518678891E+02  0.18991182858E+03  0.17163717340E+03 0.  0.
         24    2    3    3    0    0  0.39401719347E+02 -0.59566197354E+02  0.57955702765E+00  0.10693310511E+03  0.79584707868E+02 0.  0.
         -6    2    1    2    0  502 -0.16285063315E+02  0.30610192852E+02  0.78283571585E+02  0.19294656668E+03  0.17291001365E+03 0.  0.
        -24    2    5    5    0    0 -0.64955114103E+02  0.81728681585E+01  0.90991657401E+02  0.13766734067E+03  0.79917784931E+02 0.  0.
          5    1    3    3  501    0 -0.23116656032E+02  0.28956004501E+02 -0.74098235919E+02  0.82978723472E+02  0.47000000000E+01 0. -1.
        -11    1    4    4    0    0  0.53197063254E+01  0.19016134385E+01 -0.29824258081E+02  0.30354600625E+02  0.00000000000E+00 0.  1.
         12    1    4    4    0    0  0.34082013022E+02 -0.61467810792E+02  0.30403815108E+02  0.76578504480E+02  0.00000000000E+00 0. -1.
         -5    1    5    5    0  502  0.48670050788E+02  0.22437324694E+02 -0.12708085816E+02  0.55279226010E+02  0.47000000000E+01 0.  1.
         13    1    6    6    0    0 -0.24861398672E+02 -0.62039267238E+00 -0.11397900465E+02  0.27356647565E+02  0.00000000000E+00 0. -1.
        -14    1    6    6    0    0 -0.40093715431E+02  0.87932608309E+01  0.10238955787E+03  0.11031069310E+03  0.00000000000E+00 0.  1.
</event>
<event>
12    1  0.8226261E-002  0.2310817E+03  0.7818608E-02  0.1126225E+00
         21   -1    0    0  501  502  0.00000000000E+00  0.00000000000E+00  0.68100864203E+03  0.68100864203E+03  0.00000000000E+00 0.  1.
         21   -1    0    0  502  503 -0.00000000000E+00 -0.00000000000E+00 -0.91842723786E+02  0.91842723786E+02  0.00000000000E+00 0. -1.
         -6    2    1    2    0  503  0.11583468978E+03 -0.10167664116E+03  0.14214143239E+03  0.26963207736E+03  0.16953305173E+03 0.  0.
        -24    2    3    3    0    0  0.53974958312E+02 -0.17636434741E+02  0.62438242655E+01  0.98227198304E+02  0.79907804312E+02 0.  0.
          6    2    1    2  501    0 -0.11583468978E+03  0.10167664116E+03  0.44702448586E+03  0.50321928846E+03  0.17217127114E+03 0.  0.
         24    2    5    5    0    0 -0.11000603589E+03  0.24231458676E+02  0.36449191714E+03  0.38979334612E+03  0.79975017955E+02 0.  0.
          5    1    5    5  501    0 -0.58286538848E+01  0.77445182481E+02  0.82532568716E+02  0.11342594233E+03  0.47000000000E+01 0. -1.
        -13    1    6    6    0    0 -0.75508901529E+02  0.30051246390E+02  0.13442717146E+03  0.15708385037E+03  0.00000000000E+00 0.  1.
         14    1    6    6    0    0 -0.34497134363E+02 -0.58197877148E+01  0.23006474568E+03  0.23270949575E+03  0.00000000000E+00 0. -1.
         -5    1    3    3    0  503  0.61859731465E+02 -0.84040206415E+02  0.13589760812E+03  0.17140487906E+03  0.47000000000E+01 0.  1.
         13    1    4    4    0    0  0.23920941817E+02 -0.48675722219E+02 -0.18638032638E+01  0.54267956969E+02  0.00000000000E+00 0. -1.
        -14    1    4    4    0    0  0.30054016494E+02  0.31039287478E+02  0.81076275292E+01  0.43959241335E+02  0.00000000000E+00 0.  1.
</event>
<event>
12    1  0.8226261E-002  0.1932994E+03  0.7818608E-02  0.1155575E+00
         21   -1    0    0  503  502  0.00000000000E+00  0.00000000000E+00  0.49507775471E+03  0.49507775471E+03  0.00000000000E+00 0. -1.
         21   -1    0    0  501  503 -0.00000000000E+00 -0.00000000000E+00 -0.97079828418E+02  0.97079828418E+02  0.00000000000E+00 0. -1.
          6    2    1    2  501    0 -0.57112999374E+02 -0.68214671284E+02  0.59097147435E+02  0.20213144642E+03  0.17160860328E+03 0.  0.
         24    2    3    3    0    0 -0.33142369158E+02 -0.11280148364E+03  0.41640165068E+02  0.14837820296E+03  0.80371614515E+02 0.  0.
         -6    2    1    2    0  502  0.57112999374E+02  0.68214671284E+02  0.33890077886E+03  0.39002613671E+03  0.17132283366E+03 0.  0.
        -24    2    5    5    0    0 -0.12729710805E+01  0.97780743475E+02  0.24448355932E+03  0.27504885410E+03  0.79479350252E+02 0.  0.
          5    1    3    3  501    0 -0.23970630216E+02  0.44586812360E+02  0.17456982367E+02  0.53753243462E+02  0.47000000000E+01 0. -1.
        -11    1    4    4    0    0 -0.21647851988E+00 -0.18282962281E+02  0.44644748257E+02  0.48243829861E+02  0.00000000000E+00 0.  1.
         12    1    4    4    0    0 -0.32925890638E+02 -0.94518521363E+02 -0.30045831888E+01  0.10013437309E+03  0.00000000000E+00 0. -1.
         -5    1    5    5    0  502  0.58385970454E+02 -0.29566072191E+02  0.94417219543E+02  0.11497728261E+03  0.47000000000E+01 0.  1.
         13    1    6    6    0    0 -0.33069598950E+02  0.43568211486E+02  0.16432420637E+03  0.17318842983E+03  0.00000000000E+00 0. -1.
        -14    1    6    6    0    0  0.31796627870E+02  0.54212531989E+02  0.80159352946E+02  0.10186042427E+03  0.00000000000E+00 0.  1.
</event>
<event>
12    1  0.8226261E-002  0.1907814E+03  0.7818608E-02  0.1157908E+00
         21   -1    0    0  501  502  0.00000000000E+00  0.00000000000E+00  0.30433938874E+02  0.30433938874E+02  0.00000000000E+00 0.  1.
         21   -1    0    0  502  503 -0.00000000000E+00 -0.00000000000E+00 -0.11971734862E+04  0.11971734862E+04  0.00000000000E+00 0.  1.
         -6    2    1    2    0  503  0.10708575936E+02 -0.80258573743E+02 -0.54112581735E+03  0.57355078918E+03  0.17200943379E+03 0.  0.
        -24    2    3    3    0    0  0.59943140583E+02 -0.18068116780E+02 -0.39798734076E+03  0.40983637695E+03  0.75181749903E+02 0.  0.
          6    2    1    2  501    0 -0.10708575936E+02  0.80258573743E+02 -0.62561372997E+03  0.65405663589E+03  0.17274672662E+03 0.  0.
         24    2    5    5    0    0 -0.13510359357E+02  0.29306508563E+01 -0.15820710782E+03  0.18026501705E+03  0.85292841917E+02 0.  0.
          5    1    5    5  501    0  0.28017834209E+01  0.77327922886E+02 -0.46740662215E+03  0.47379161883E+03  0.47000000000E+01 0. -1.
        -11    1    6    6    0    0  0.18330040325E+02  0.29079743328E+02 -0.30084116515E+02  0.45680147951E+02  0.00000000000E+00 0.  1.
         12    1    6    6    0    0 -0.31840399682E+02 -0.26149092471E+02 -0.12812299131E+03  0.13458486910E+03  0.00000000000E+00 0. -1.
         -5    1    3    3    0  503 -0.49234564647E+02 -0.62190456963E+02 -0.14313847659E+03  0.16371441223E+03  0.47000000000E+01 0.  1.
         13    1    4    4    0    0  0.57597302826E+02  0.95911383370E+01 -0.34609596098E+03  0.35098697046E+03  0.00000000000E+00 0. -1.
        -14    1    4    4    0    0  0.23458377574E+01 -0.27659255117E+02 -0.51891379781E+02  0.58849406488E+02  0.00000000000E+00 0.  1.
</event>
<event>
12    1  0.8226261E-002  0.1990009E+03  0.7818608E-02  0.1151932E+00
         21   -1    0    0  503  502  0.00000000000E+00  0.00000000000E+00  0.65473417530E+03  0.65473417530E+03  0.00000000000E+00 0. -1.
         21   -1    0    0  501  503 -0.00000000000E+00 -0.00000000000E+00 -0.69866559125E+02  0.69866559125E+02  0.00000000000E+00 0. -1.
          6    2    1    2  501    0 -0.86550850361E+02  0.37995759273E+01  0.15088923649E+03  0.24973773314E+03  0.17915325057E+03 0.  0.
         24    2    3    3    0    0 -0.29041807360E+02  0.25275213982E+02  0.16398142081E+03  0.18679340578E+03  0.80744083723E+02 0.  0.
         -6    2    1    2    0  502  0.86550850361E+02 -0.37995759273E+01  0.43397837969E+03  0.47486300129E+03  0.17219799499E+03 0.  0.
        -24    2    5    5    0    0  0.71167077020E+02  0.53459344972E+02  0.36401219832E+03  0.38303380637E+03  0.79292886668E+02 0.  0.
          5    1    3    3  501    0 -0.57509043001E+02 -0.21475638055E+02 -0.13092184317E+02  0.62944327361E+02  0.47000000000E+01 0. -1.
        -13    1    4    4    0    0 -0.36628338776E+02 -0.58684010259E+01  0.14471665248E+03  0.14939539095E+03  0.00000000000E+00 0.  1.
         14    1    4    4    0    0  0.75865314158E+01  0.31143615008E+02  0.19264768333E+02  0.37398014835E+02  0.00000000000E+00 0. -1.
         -5    1    5    5    0  502  0.15383773341E+02 -0.57258920900E+02  0.69966181363E+02  0.91829194918E+02  0.47000000000E+01 0.  1.
         13    1    6    6    0    0 -0.82856693815E+01  0.78472996601E+01  0.14744375399E+03  0.14788472882E+03  0.00000000000E+00 0. -1.
        -14    1    6    6    0    0  0.79452746401E+02  0.45612045312E+02  0.21656844434E+03  0.23514907755E+03  0.00000000000E+00 0.  1.
</event>
<event>
12    1  0.8226261E-002  0.1837016E+03  0.7818608E-02  0.1164396E+00
         21   -1    0    0  503  502  0.00000000000E+00  0.00000000000E+00  0.10433819469E+04  0.10433819469E+04  0.00000000000E+00 0. -1.
         21   -1    0    0  501  503 -0.00000000000E+00 -0.00000000000E+00 -0.48420972908E+02  0.48420972908E+02  0.00000000000E+00 0. -1.
          6    2    1    2  501    0  0.15789521409E+02  0.62718109808E+02  0.18247213411E+03  0.25892537677E+03  0.17194010796E+03 0.  0.
         24    2    3    3    0    0  0.19650449501E+02  0.36326131906E+02  0.20627671835E+03  0.22286720856E+03  0.73579753288E+02 0.  0.
         -6    2    1    2    0  502 -0.15789521409E+02 -0.62718109808E+02  0.81248883985E+03  0.83287754301E+03  0.17135931979E+03 0.  0.
        -24    2    5    5    0    0  0.25533823090E+02 -0.78384171972E+02  0.72719093356E+03  0.73669611485E+03  0.84370950268E+02 0.  0.
          5    1    3    3  501    0 -0.38609280926E+01  0.26391977902E+02 -0.23804584244E+02  0.36058168206E+02  0.47000000000E+01 0. -1.
        -11    1    4    4    0    0  0.36482588279E+02 -0.55959612244E+01  0.11899298866E+03  0.12458581532E+03  0.00000000000E+00 0.  1.
         12    1    4    4    0    0 -0.16832138778E+02  0.41922093130E+02  0.87283729697E+02  0.98281393245E+02  0.00000000000E+00 0. -1.
         -5    1    5    5    0  502 -0.41323344499E+02  0.15666062164E+02  0.85297906288E+02  0.96181428152E+02  0.47000000000E+01 0.  1.
         11    1    6    6    0    0 -0.11505324238E+02 -0.65352398556E+02  0.27874983056E+03  0.28653931060E+03  0.00000000000E+00 0. -1.
        -12    1    6    6    0    0  0.37039147328E+02 -0.13031773416E+02  0.44844110300E+03  0.45015680425E+03  0.00000000000E+00 0.  1.
</event>
<event>
12    1  0.8226261E-002  0.4577186E+03  0.7818608E-02  0.1025472E+00
         21   -1    0    0  503  502  0.00000000000E+00  0.00000000000E+00  0.16299864777E+04  0.16299864777E+04  0.00000000000E+00 0. -1.
         21   -1    0    0  501  503 -0.00000000000E+00 -0.00000000000E+00 -0.13030292881E+03  0.13030292881E+03  0.00000000000E+00 0.  1.
          6    2    1    2  501    0  0.46922007491E+02  0.42146125112E+03  0.85509133720E+03  0.96971656672E+03  0.17128270153E+03 0.  0.
         24    2    3    3    0    0  0.16601071809E+02  0.24458586893E+03  0.63141901565E+03  0.68291409569E+03  0.87085279445E+02 0.  0.
         -6    2    1    2    0  502 -0.46922007491E+02 -0.42146125112E+03  0.64459221171E+03  0.79057283981E+03  0.17226443236E+03 0.  0.
        -24    2    5    5    0    0  0.95943222796E+01 -0.26406859253E+03  0.49174563066E+03  0.56396588527E+03  0.80121669262E+02 0.  0.
          5    1    3    3  501    0  0.30320935682E+02  0.17687538219E+03  0.22367232155E+03  0.28680247104E+03  0.47000000000E+01 0. -1.
        -11    1    4    4    0    0  0.21725825101E+02  0.39415767877E+02  0.20224281258E+03  0.20719017707E+03  0.00000000000E+00 0.  1.
         12    1    4    4    0    0 -0.51247532916E+01  0.20517010105E+03  0.42917620307E+03  0.47572391862E+03  0.00000000000E+00 0. -1.
         -5    1    5    5    0  502 -0.56516329771E+02 -0.15739265859E+03  0.15284658105E+03  0.22660695454E+03  0.47000000000E+01 0.  1.
         11    1    6    6    0    0  0.39405217200E+02 -0.11541300478E+03  0.18167157423E+03  0.21880926328E+03  0.00000000000E+00 0. -1.
        -12    1    6    6    0    0 -0.29810894921E+02 -0.14865558775E+03  0.31007405643E+03  0.34515662198E+03  0.00000000000E+00 0.  1.
</event>
<event>
12    1  0.8226261E-002  0.2055749E+03  0.7818608E-02  0.1145292E+00
         21   -1    0    0  501  502  0.00000000000E+00  0.00000000000E+00  0.24707438394E+02  0.24707438394E+02  0.00000000000E+00 0.  1.
         21   -1    0    0  502  503 -0.00000000000E+00 -0.00000000000E+00 -0.18025859323E+04  0.18025859323E+04  0.00000000000E+00 0.  1.
         -6    2    1    2    0  503 -0.85885903478E+02  0.71835038973E+02 -0.11050058511E+04  0.11239657365E+04  0.17240761160E+03 0.  0.
        -24    2    3    3    0    0 -0.87315153478E+02  0.72631370956E+02 -0.49966133572E+03  0.51860076457E+03  0.79912768191E+02 0.  0.
          6    2    1    2  501    0  0.85885903478E+02 -0.71835038973E+02 -0.67287264276E+03  0.70332763419E+03  0.17139284230E+03 0.  0.
         24    2    5    5    0    0  0.55685305786E+02  0.16347706625E+01 -0.53966161645E+03  0.54815947843E+03  0.78362157775E+02 0.  0.
          5    1    5    5  501    0  0.30200597692E+02 -0.73469809636E+02 -0.13321102631E+03  0.15516815575E+03  0.47000000000E+01 0. -1.
        -13    1    6    6    0    0  0.74474449421E+02  0.38550954222E+01 -0.36957857774E+03  0.37702736042E+03  0.00000000000E+00 0.  1.
         14    1    6    6    0    0 -0.18789143634E+02 -0.22203247597E+01 -0.17008303871E+03  0.17113211802E+03  0.00000000000E+00 0. -1.
         -5    1    3    3    0  503  0.14292499998E+01 -0.79633198211E+00 -0.60534451540E+03  0.60536497192E+03  0.47000000000E+01 0.  1.
         13    1    4    4    0    0 -0.87767052193E+01  0.19062367553E+02 -0.18002525141E+02  0.27649508543E+02  0.00000000000E+00 0. -1.
        -14    1    4    4    0    0 -0.78538448259E+02  0.53569003402E+02 -0.48165881058E+03  0.49095125603E+03  0.00000000000E+00 0.  1.
</event>
<event>
12    1  0.8226261E-002  0.1761916E+03  0.7818608E-02  0.1171864E+00
         21   -1    0    0  503  502  0.00000000000E+00  0.00000000000E+00  0.65996743963E+03  0.65996743963E+03  0.00000000000E+00 0.  1.
         21   -1    0    0  501  503 -0.00000000000E+00 -0.00000000000E+00 -0.57721765749E+02  0.57721765749E+02  0.00000000000E+00 0.  1.
          6    2    1    2  501    0  0.28318862283E+02 -0.20624871553E+02  0.14516388726E+03  0.22828936458E+03  0.17267349689E+03 0.  0.
         24    2    3    3    0    0  0.42588335653E+02  0.40965517493E+02  0.35119938839E+02  0.10129033121E+03  0.74393421315E+02 0.  0.
         -6    2    1    2    0  502 -0.28318862283E+02  0.20624871553E+02  0.45708178662E+03  0.48939984080E+03  0.17135081333E+03 0.  0.
        -24    2    5    5    0    0  0.42181362745E+02  0.42562812999E+02  0.22520734980E+03  0.24600838768E+03  0.78809364855E+02 0.  0.
          5    1    3    3  501    0 -0.14269473370E+02 -0.61590389046E+02  0.11004394842E+03  0.12699903337E+03  0.47000000000E+01 0. -1.
        -11    1    4    4    0    0  0.27774806731E+02 -0.18690946078E+02  0.14117897316E+02  0.36333268211E+02  0.00000000000E+00 0.  1.
         12    1    4    4    0    0  0.14813528921E+02  0.59656463572E+02  0.21002041523E+02  0.64957062996E+02  0.00000000000E+00 0. -1.
         -5    1    5    5    0  502 -0.70500225028E+02 -0.21937941446E+02  0.23187443682E+03  0.24339145313E+03  0.47000000000E+01 0.  1.
         11    1    6    6    0    0 -0.48744231222E+01  0.50284940188E+02  0.13138295119E+03  0.14076155396E+03  0.00000000000E+00 0. -1.
        -12    1    6    6    0    0  0.47055785867E+02 -0.77221271893E+01  0.93824398614E+02  0.10524683372E+03  0.00000000000E+00 0.  1.
</event>
<event>
12    1  0.8226261E-002  0.1857114E+03  0.7818608E-02  0.1162462E+00
         21   -1    0    0  503  502  0.00000000000E+00  0.00000000000E+00  0.29152641880E+03  0.29152641880E+03  0.00000000000E+00 0.  1.
         21   -1    0    0  501  503 -0.00000000000E+00 -0.00000000000E+00 -0.11816963686E+03  0.11816963686E+03  0.00000000000E+00 0. -1.
          6    2    1    2  501    0 -0.59098284358E+02 -0.34617040694E+02  0.81589319788E+02  0.20254881361E+03  0.17227378811E+03 0.  0.
         24    2    3    3    0    0 -0.14564351844E+02  0.44155992325E+02  0.53282797548E+02  0.10761825437E+03  0.81121884568E+02 0.  0.
         -6    2    1    2    0  502  0.59098284358E+02  0.34617040694E+02  0.91767462157E+02  0.20714724205E+03  0.17262029446E+03 0.  0.
        -24    2    5    5    0    0  0.55458867453E+02  0.42392707456E+02 -0.19260989984E+02  0.95688220283E+02  0.62549357641E+02 0.  0.
          5    1    3    3  501    0 -0.44533932514E+02 -0.78773033019E+02  0.28306522240E+02  0.94930559240E+02  0.47000000000E+01 0. -1.
        -13    1    4    4    0    0 -0.28091147249E+02  0.59740520504E+02  0.56300212735E+02  0.86762643447E+02  0.00000000000E+00 0.  1.
         14    1    4    4    0    0  0.13526795405E+02 -0.15584528179E+02 -0.30174151870E+01  0.20855610922E+02  0.00000000000E+00 0. -1.
         -5    1    5    5    0  502  0.36394169057E+01 -0.77756667615E+01  0.11102845214E+03  0.11145902177E+03  0.47000000000E+01 0.  1.
         11    1    6    6    0    0  0.26970601767E+02  0.44891810134E+02  0.11572785628E+02  0.53634106163E+02  0.00000000000E+00 0. -1.
        -12    1    6    6    0    0  0.28488265686E+02 -0.24991026780E+01 -0.30833775611E+02  0.42054114120E+02  0.00000000000E+00 0.  1.
</event>
<event>
12    1  0.8226261E-002  0.1904083E+03  0.7818608E-02  0.1158099E+00
         21   -1    0    0  503  502  0.00000000000E+00  0.00000000000E+00  0.14331166609E+04  0.14331166609E+04  0.00000000000E+00 0.  1.
         21   -1    0    0  501  503 -0.00000000000E+00 -0.00000000000E+00 -0.59388787044E+02  0.59388787044E+02  0.00000000000E+00 0.  1.
          6    2    1    2  501    0  0.29880908966E+01 -0.80747615711E+02  0.12146190245E+03  0.22585020517E+03  0.17241292091E+03 0.  0.
         24    2    3    3    0    0 -0.44985905900E+02 -0.31226288837E+02  0.12354410861E+03  0.15671055109E+03  0.79348832418E+02 0.  0.
         -6    2    1    2    0  502 -0.29880908966E+01  0.80747615711E+02  0.12522659714E+04  0.12666552428E+04  0.17238426491E+03 0.  0.
        -24    2    5    5    0    0 -0.70551043130E+01  0.74359690247E+02  0.40983834672E+03  0.42418047222E+03  0.79890328215E+02 0.  0.
          5    1    3    3  501    0  0.47973996797E+02 -0.49521326874E+02 -0.20822061534E+01  0.69139654081E+02  0.47000000000E+01 0. -1.
        -13    1    4    4    0    0  0.53798258405E+01 -0.43841871719E+02  0.63165011850E+02  0.77077045636E+02  0.00000000000E+00 0.  1.
         14    1    4    4    0    0 -0.50365731740E+02  0.12615582882E+02  0.60379096758E+02  0.79633505451E+02  0.00000000000E+00 0. -1.
         -5    1    5    5    0  502  0.40670134164E+01  0.63879254645E+01  0.84242762473E+03  0.84247477060E+03  0.47000000000E+01 0.  1.
         11    1    6    6    0    0  0.30081401734E+02  0.17882465890E+02  0.21780625634E+03  0.22059972489E+03  0.00000000000E+00 0. -1.
        -12    1    6    6    0    0 -0.37136506047E+02  0.56477224357E+02  0.19203209037E+03  0.20358074733E+03  0.00000000000E+00 0.  1.
</event>
<event>
12    1  0.8226261E-002  0.1928182E+03  0.7818608E-02  0.1157091E+00
         21   -1    0    0  503  502  0.00000000000E+00  0.00000000000E+00  0.12049503832E+03  0.12049503832E+03  0.00000000000E+00 0.  1.
         21   -1    0    0  501  503 -0.00000000000E+00 -0.00000000000E+00 -0.30969247727E+03  0.30969247727E+03  0.00000000000E+00 0. -1.
          6    2    1    2  501    0  0.46378865578E+02  0.70691516115E+02 -0.13056679064E+03  0.22865236207E+03  0.16758856237E+03 0.  0.
         24    2    3    3    0    0 -0.31427555139E+00  0.86683813178E+02 -0.13521525515E+03  0.17885576363E+03  0.78689495613E+02 0.  0.
         -6    2    1    2    0  502 -0.46378865578E+02 -0.70691516115E+02 -0.58630648307E+02  0.20153515352E+03  0.17329332232E+03 0.  0.
        -24    2    5    5    0    0 -0.85987280478E+02 -0.23833663721E+02 -0.71264318324E+02  0.13871649006E+03  0.78751543584E+02 0.  0.
          5    1    3    3  501    0  0.46693141129E+02 -0.15992297063E+02  0.46484645094E+01  0.49796598440E+02  0.47000000000E+01 0. -1.
        -11    1    4    4    0    0  0.35997513537E+02  0.21427900243E+02 -0.40809112351E+02  0.58483839995E+02  0.00000000000E+00 0.  1.
         12    1    4    4    0    0 -0.36311789089E+02  0.65255912935E+02 -0.94406142802E+02  0.12037192363E+03  0.00000000000E+00 0. -1.
         -5    1    5    5    0  502  0.39608414900E+02 -0.46857852394E+02  0.12633670016E+02  0.62818663468E+02  0.47000000000E+01 0.  1.
         13    1    6    6    0    0 -0.32173566171E+01  0.12133948579E+02 -0.42011363788E+02  0.43846764750E+02  0.00000000000E+00 0. -1.
        -14    1    6    6    0    0 -0.82769923861E+02 -0.35967612300E+02 -0.29252954536E+02  0.94869725306E+02  0.00000000000E+00 0.  1.
</event>
<event>
12    1  0.8226261E-002  0.1961385E+03  0.7818608E-02  0.1153179E+00
         21   -1    0    0  503  502  0.00000000000E+00  0.00000000000E+00  0.11812258876E+03  0.11812258876E+03  0.00000000000E+00 0. -1.
         21   -1    0    0  501  503 -0.00000000000E+00 -0.00000000000E+00 -0.32498808396E+03  0.32498808396E+03  0.00000000000E+00 0. -1.
          6    2    1    2  501    0  0.91232869836E+02  0.23478378091E+02 -0.11117792561E+03  0.22545699755E+03  0.17203387987E+03 0.  0.
         24    2    3    3    0    0  0.11124588478E+03 -0.28625752694E+02 -0.71558803834E+02  0.15684849937E+03  0.79282461804E+02 0.  0.
         -6    2    1    2    0  502 -0.91232869836E+02 -0.23478378091E+02 -0.95687569593E+02  0.21765367518E+03  0.17129606115E+03 0.  0.
        -24    2    5    5    0    0 -0.97192264455E+02  0.22076843810E+02 -0.11014420759E+03  0.16926073138E+03  0.81140159117E+02 0.  0.
          5    1    3    3  501    0 -0.20013014942E+02  0.52104130785E+02 -0.39619121779E+02  0.68608498180E+02  0.47000000000E+01 0. -1.
        -13    1    4    4    0    0  0.10055281094E+03 -0.22359464142E+02 -0.88535974318E+02  0.13582868685E+03  0.00000000000E+00 0.  1.
         14    1    4    4    0    0  0.10693073840E+02 -0.62662885524E+01  0.16977170484E+02  0.21019812511E+02  0.00000000000E+00 0. -1.
         -5    1    5    5    0  502  0.59593946191E+01 -0.45555221902E+02  0.14456637994E+02  0.48392943791E+02  0.47000000000E+01 0.  1.
         13    1    6    6    0    0 -0.70190273505E+02 -0.22910625862E+02 -0.48637240169E+02  0.88414661699E+02  0.00000000000E+00 0. -1.
        -14    1    6    6    0    0 -0.27001990950E+02  0.44987469672E+02 -0.61506967417E+02  0.80846069686E+02  0.00000000000E+00 0.  1.
</event>
<event>
12    1  0.8226261E-002  0.2176802E+03  0.7818608E-02  0.1135723E+00
         21   -1    0    0  503  502  0.00000000000E+00  0.00000000000E+00  0.58900509303E+03  0.58900509303E+03  0.00000000000E+00 0.  1.
         21   -1    0    0  501  503 -0.00000000000E+00 -0.00000000000E+00 -0.84219453380E+02  0.84219453380E+02  0.00000000000E+00 0.  1.
          6    2    1    2  501    0 -0.94063365140E+02  0.95190137073E+02  0.17966169997E+03  0.28224633001E+03  0.17168455234E+03 0.  0.
         24    2    3    3    0    0 -0.51919226548E+02  0.17611271602E+01  0.14677282366E+03  0.17450183365E+03  0.78803048988E+02 0.  0.
         -6    2    1    2    0  502  0.94063365140E+02 -0.95190137073E+02  0.32512393968E+03  0.39097821640E+03  0.17102429853E+03 0.  0.
        -24    2    5    5    0    0  0.69138131100E+02  0.90691897215E+01  0.11341586788E+03  0.15363106099E+03  0.76661675166E+02 0.  0.
          5    1    3    3  501    0 -0.42144138592E+02  0.93429009913E+02  0.32888876316E+02  0.10774449636E+03  0.47000000000E+01 0. -1.
        -11    1    4    4    0    0 -0.42104634474E+02 -0.22008281108E+01  0.18921703925E+02  0.46213361358E+02  0.00000000000E+00 0.  1.
         12    1    4    4    0    0 -0.98145920745E+01  0.39619552710E+01  0.12785111973E+03  0.12828847230E+03  0.00000000000E+00 0. -1.
         -5    1    5    5    0  502  0.24925234040E+02 -0.10425932679E+03  0.21170807180E+03  0.23734715541E+03  0.47000000000E+01 0.  1.
         11    1    6    6    0    0  0.19792422606E+02 -0.29640655154E+02  0.19296592574E+02  0.40529827480E+02  0.00000000000E+00 0. -1.
        -12    1    6    6    0    0  0.49345708494E+02  0.38709844876E+02  0.94119275303E+02  0.11310123351E+03  0.00000000000E+00 0.  1.
</event>
<event>
12    1  0.8226261E-002  0.2247802E+03  0.7818608E-02  0.1130466E+00
         21   -1    0    0  501  502  0.00000000000E+00  0.00000000000E+00  0.50945652781E+03  0.50945652781E+03  0.00000000000E+00 0. -1.
         21   -1    0    0  502  503 -0.00000000000E+00 -0.00000000000E+00 -0.11598314798E+03  0.11598314798E+03  0.00000000000E+00 0. -1.
         -6    2    1    2    0  503  0.13216031631E+03 -0.58777542485E+02  0.76657250764E+02  0.23698298816E+03  0.17135767819E+03 0.  0.
        -24    2    3    3    0    0  0.90401090278E+02 -0.10336318982E+03  0.27827349015E+02  0.15863656379E+03  0.74396853999E+02 0.  0.
          6    2    1    2  501    0 -0.13216031631E+03  0.58777542485E+02  0.31681612907E+03  0.38845668763E+03  0.17206100610E+03 0.  0.
         24    2    5    5    0    0 -0.20367737725E+02 -0.13513008429E+02  0.17543678417E+03  0.19420501185E+03  0.79624589495E+02 0.  0.
          5    1    5    5  501    0 -0.11179257858E+03  0.72290550914E+02  0.14137934490E+03  0.19425167578E+03  0.47000000000E+01 0. -1.
        -11    1    6    6    0    0  0.70509493677E+01 -0.33494636143E+02  0.32162003359E+02  0.46968084881E+02  0.00000000000E+00 0.  1.
         12    1    6    6    0    0 -0.27418687093E+02  0.19981627713E+02  0.14327478081E+03  0.14723692697E+03  0.00000000000E+00 0. -1.
         -5    1    3    3    0  503  0.41759226032E+02  0.44585647332E+02  0.48829901749E+02  0.78346424370E+02  0.47000000000E+01 0.  1.
         11    1    4    4    0    0  0.98324688034E+02 -0.10058167192E+03  0.12565916706E+02  0.14121727679E+03  0.00000000000E+00 0. -1.
        -12    1    4    4    0    0 -0.79235977570E+01 -0.27815178995E+01  0.15261432309E+02  0.17419286993E+02  0.00000000000E+00 0.  1.
</event>
<event>
12    1  0.8226261E-002  0.1737247E+03  0.7818608E-02  0.1174124E+00
         21   -1    0    0  503  502  0.00000000000E+00  0.00000000000E+00  0.18400497974E+02  0.18400497974E+02  0.00000000000E+00 0.  1.
         21   -1    0    0  501  503 -0.00000000000E+00 -0.00000000000E+00 -0.16582906003E+04  0.16582906003E+04  0.00000000000E+00 0.  1.
          6    2    1    2  501    0  0.23138465639E+02  0.78321450800E+01 -0.91557472497E+03  0.93183337591E+03  0.17157981339E+03 0.  0.
         24    2    3    3    0    0  0.28018635498E+02 -0.14366626715E+02 -0.89916156151E+03  0.90340656705E+03  0.81611689091E+02 0.  0.
         -6    2    1    2    0  502 -0.23138465639E+02 -0.78321450800E+01 -0.72431537736E+03  0.74485772237E+03  0.17199863257E+03 0.  0.
        -24    2    5    5    0    0 -0.48200326903E+02  0.10929630861E+02 -0.69620682103E+03  0.70252236994E+03  0.79943819482E+02 0.  0.
          5    1    3    3  501    0 -0.48801698595E+01  0.22198771795E+02 -0.16413163462E+02  0.28426808859E+02  0.47000000000E+01 0. -1.
        -11    1    4    4    0    0 -0.21037192205E+02 -0.62907847517E+01 -0.57825407479E+03  0.57867081527E+03  0.00000000000E+00 0.  1.
         12    1    4    4    0    0  0.49055827704E+02 -0.80758419634E+01 -0.32090748672E+03  0.32473575179E+03  0.00000000000E+00 0. -1.
         -5    1    5    5    0  502  0.25061861264E+02 -0.18761775941E+02 -0.28108556335E+02  0.42335352434E+02  0.47000000000E+01 0.  1.
         11    1    6    6    0    0 -0.21345036177E+02 -0.31947394411E+02 -0.41720727478E+03  0.41897273981E+03  0.00000000000E+00 0. -1.
        -12    1    6    6    0    0 -0.26855290726E+02  0.42877025272E+02 -0.27899954625E+03  0.28354963013E+03  0.00000000000E+00 0.  1.
</event>
<event>
12    1  0.8226261E-002  0.1817165E+03  0.7818608E-02  0.1167647E+00
         21   -1    0    0  501  502  0.00000000000E+00  0.00000000000E+00  0.12980308494E+03  0.12980308494E+03  0.00000000000E+00 0.  1.
         21   -1    0    0  502  503 -0.00000000000E+00 -0.00000000000E+00 -0.38033992736E+03  0.38033992736E+03  0.00000000000E+00 0.  1.
         -6    2    1    2    0  503 -0.24928930324E+02  0.50997442132E+02 -0.27831533498E+03  0.33238579595E+03  0.17262300251E+03 0.  0.
        -24    2    3    3    0    0 -0.54835174886E+02  0.50281142379E+02 -0.28307713504E+03  0.30173190078E+03  0.73310203123E+02 0.  0.
          6    2    1    2  501    0  0.24928930324E+02 -0.50997442132E+02  0.27778492557E+02  0.17775721635E+03  0.16614389138E+03 0.  0.
         24    2    5    5    0    0  0.22110449262E+02  0.15330725326E+02 -0.35434795418E+02  0.85967350835E+02  0.73558531645E+02 0.  0.
          5    1    5    5  501    0  0.28184810618E+01 -0.66328167457E+02  0.63213287974E+02  0.91789865510E+02  0.47000000000E+01 0. -1.
        -13    1    6    6    0    0 -0.13835318337E+02 -0.16914691953E+02 -0.30367709384E+02  0.37412840184E+02  0.00000000000E+00 0.  1.
         14    1    6    6    0    0  0.35945767599E+02  0.32245417278E+02 -0.50670860330E+01  0.48554510652E+02  0.00000000000E+00 0. -1.
         -5    1    3    3    0  503  0.29906244562E+02  0.71629975249E+00  0.47618000643E+01  0.30653895168E+02  0.47000000000E+01 0.  1.
         13    1    4    4    0    0 -0.71352647644E+01 -0.12064893015E+02 -0.90551148190E+01  0.16687382992E+02  0.00000000000E+00 0. -1.
        -14    1    4    4    0    0 -0.47699910121E+02  0.62346035394E+02 -0.27402202022E+03  0.28504451779E+03  0.00000000000E+00 0.  1.
</event>
<event>
12    1  0.8226261E-002  0.1881085E+03  0.7818608E-02  0.1161007E+00
         21   -1    0    0  503  502  0.00000000000E+00  0.00000000000E+00  0.18126730162E+03  0.18126730162E+03  0.00000000000E+00 0. -1.
         21   -1    0    0  501  503 -0.00000000000E+00 -0.00000000000E+00 -0.24603604795E+03  0.24603604795E+03  0.00000000000E+00 0. -1.
          6    2    1    2  501    0 -0.27856434470E+02  0.69153471446E+02 -0.13321336773E+03  0.23050079198E+03  0.17270388011E+03 0.  0.
         24    2    3    3    0    0 -0.47915986723E+02  0.38485224440E+02 -0.89876821365E+01  0.10089740478E+03  0.79513857773E+02 0.  0.
         -6    2    1    2    0  502  0.27856434470E+02 -0.69153471446E+02  0.68444621412E+02  0.19680255759E+03  0.16878506130E+03 0.  0.
        -24    2    5    5    0    0  0.28135804109E+02 -0.10578998520E+03  0.23592243000E+02  0.13869801356E+03  0.81837647781E+02 0.  0.
          5    1    3    3  501    0  0.20059552253E+02  0.30668247006E+02 -0.12422568560E+03  0.12960338720E+03  0.47000000000E+01 0. -1.
        -13    1    4    4    0    0 -0.18123920293E+02  0.27436435925E+02  0.34092939829E+02  0.47366264886E+02  0.00000000000E+00 0.  1.
         14    1    4    4    0    0 -0.29792066430E+02  0.11048788515E+02 -0.43080621965E+02  0.53531139898E+02  0.00000000000E+00 0. -1.
         -5    1    5    5    0  502 -0.27936963902E+00  0.36636513753E+02  0.44852378412E+02  0.58104544027E+02  0.47000000000E+01 0.  1.
         13    1    6    6    0    0  0.11438064546E+02 -0.18268597263E+02  0.42464331317E+02  0.47621322962E+02  0.00000000000E+00 0. -1.
        -14    1    6    6    0    0  0.16697739564E+02 -0.87521387936E+02 -0.18872088316E+02  0.91076690598E+02  0.00000000000E+00 0.  1.
</event>
<event>
12    1  0.8226261E-002  0.2529014E+03  0.7818608E-02  0.1111834E+00
         21   -1    0    0  501  502  0.00000000000E+00  0.00000000000E+00  0.38369238438E+02  0.38369238438E+02  0.00000000000E+00 0. -1.
         21   -1    0    0  502  503 -0.00000000000E+00 -0.00000000000E+00 -0.19845824752E+04  0.19845824752E+04  0.00000000000E+00 0. -1.
         -6    2    1    2    0  503 -0.11841854689E+03 -0.14014576853E+03 -0.13834140057E+04  0.14059410900E+04  0.17079885392E+03 0.  0.
        -24    2    3    3    0    0 -0.14006924996E+03 -0.70327234077E+02 -0.10445492534E+04  0.10592498858E+04  0.79761288036E+02 0.  0.
          6    2    1    2  501    0  0.11841854689E+03  0.14014576853E+03 -0.56279923101E+03  0.61701062366E+03  0.17405558480E+03 0.  0.
         24    2    5    5    0    0  0.32130086867E+02  0.43483605872E+02 -0.10880528014E+03  0.14486459810E+03  0.78892308470E+02 0.  0.
          5    1    5    5  501    0  0.86288460020E+02  0.96662162655E+02 -0.45399395087E+03  0.47214602555E+03  0.47000000000E+01 0. -1.
        -11    1    6    6    0    0 -0.25726685526E+02  0.10117396309E+02 -0.42886959335E+02  0.51024654210E+02  0.00000000000E+00 0.  1.
         12    1    6    6    0    0  0.57856772392E+02  0.33366209563E+02 -0.65918320806E+02  0.93839943894E+02  0.00000000000E+00 0. -1.
         -5    1    3    3    0  503  0.21650703069E+02 -0.69818534449E+02 -0.33886475234E+03  0.34669120420E+03  0.47000000000E+01 0.  1.
         11    1    4    4    0    0 -0.89888974258E+02 -0.77292516319E+01 -0.68121028172E+03  0.68715880038E+03  0.00000000000E+00 0. -1.
        -12    1    4    4    0    0 -0.50180275698E+02 -0.62597982445E+02 -0.36333897167E+03  0.37209108537E+03  0.00000000000E+00 0.  1.
</event>
<event>
12    1  0.8226261E-002  0.1837838E+03  0.7818608E-02  0.1164205E+00
         21   -1    0    0  501  502  0.00000000000E+00  0.00000000000E+00  0.69955342209E+03  0.69955342209E+03  0.00000000000E+00 0.  1.
         21   -1    0    0  502  503 -0.00000000000E+00 -0.00000000000E+00 -0.50434336800E+02  0.50434336800E+02  0.00000000000E+00 0.  1.
         -6    2    1    2    0  503 -0.53901345621E+02  0.36771784649E+02  0.24676199204E+03  0.30764432860E+03  0.17174409160E+03 0.  0.
        -24    2    3    3    0    0  0.13760989140E+02  0.49742830464E+02  0.67539183638E+02  0.11557833831E+03  0.78314091678E+02 0.  0.
          6    2    1    2  501    0  0.53901345621E+02 -0.36771784649E+02  0.40235709325E+03  0.44234343029E+03  0.17181082802E+03 0.  0.
         24    2    5    5    0    0 -0.24671047967E+02 -0.34472043319E+02  0.12008195236E+03  0.14929009895E+03  0.77915826273E+02 0.  0.
          5    1    5    5  501    0  0.78572393588E+02 -0.22997413302E+01  0.28227514089E+03  0.29305333134E+03  0.47000000000E+01 0. -1.
        -13    1    6    6    0    0  0.86840255489E+01  0.21698368065E+02  0.32072577332E+02  0.39684779112E+02  0.00000000000E+00 0.  1.
         14    1    6    6    0    0 -0.33355073516E+02 -0.56170411384E+02  0.88009375031E+02  0.10960531984E+03  0.00000000000E+00 0. -1.
         -5    1    3    3    0  503 -0.67662334761E+02 -0.12971045815E+02  0.17922280841E+03  0.19206599029E+03  0.47000000000E+01 0.  1.
         11    1    4    4    0    0 -0.15891368649E+02  0.13975884660E+02  0.65763106014E+02  0.69084347447E+02  0.00000000000E+00 0. -1.
        -12    1    4    4    0    0  0.29652357789E+02  0.35766945804E+02  0.17760776234E+01  0.46493990863E+02  0.00000000000E+00 0.  1.
</event>
<event>
12    1  0.8226261E-002  0.1838692E+03  0.7818608E-02  0.1164273E+00
         21   -1    0    0  503  502  0.00000000000E+00  0.00000000000E+00  0.37790266555E+03  0.37790266555E+03  0.00000000000E+00 0.  1.
         21   -1    0    0  501  503 -0.00000000000E+00 -0.00000000000E+00 -0.13018393187E+03  0.13018393187E+03  0.00000000000E+00 0.  1.
          6    2    1    2  501    0  0.35549876674E+02  0.57847072192E+02 -0.18648317530E+02  0.18481248510E+03  0.17087368846E+03 0.  0.
         24    2    3    3    0    0  0.75460778355E+02  0.77820329024E+02  0.93629148846E+00  0.13584864158E+03  0.81875784565E+02 0.  0.
         -6    2    1    2    0  502 -0.35549876674E+02 -0.57847072192E+02  0.26636705122E+03  0.32327411232E+03  0.17013132642E+03 0.  0.
        -24    2    5    5    0    0  0.32833517324E+02  0.98254989117E+01  0.11712538418E+03  0.14564801448E+03  0.79500995050E+02 0.  0.
          5    1    3    3  501    0 -0.39910901680E+02 -0.19973256832E+02 -0.19584609019E+02  0.48963843515E+02  0.47000000000E+01 0. -1.
        -13    1    4    4    0    0  0.29092200789E+02  0.44736442300E+02 -0.39159540755E+02  0.66190445296E+02  0.00000000000E+00 0.  1.
         14    1    4    4    0    0  0.46368577566E+02  0.33083886724E+02  0.40095832243E+02  0.69658196284E+02  0.00000000000E+00 0. -1.
         -5    1    5    5    0  502 -0.68383393999E+02 -0.67672571104E+02  0.14924166704E+03  0.17762609784E+03  0.47000000000E+01 0.  1.
         11    1    6    6    0    0 -0.12313772983E+02 -0.54577910743E+01 -0.51430279041E+01  0.14417601205E+02  0.00000000000E+00 0. -1.
        -12    1    6    6    0    0  0.45147290307E+02  0.15283289986E+02  0.12226841208E+03  0.13123041328E+03  0.00000000000E+00 0.  1.
</event>
<event>
12    1  0.8226261E-002  0.2331830E+03  0.7818608E-02  0.1124478E+00
         21   -1    0    0  501  502  0.00000000000E+00  0.00000000000E+00  0.27108881551E+03  0.27108881551E+03  0.00000000000E+00 0. -1.
         21   -1    0    0  502  503 -0.00000000000E+00 -0.00000000000E+00 -0.64425970965E+03  0.64425970965E+03  0.00000000000E+00 0. -1.
         -6    2    1    2    0  503  0.96209095693E+02  0.12491785709E+03 -0.56647385671E+03  0.61246185510E+03  0.17133660584E+03 0.  0.
        -24    2    3    3    0    0  0.74721269891E+01  0.84655307852E+02 -0.18394330223E+03  0.21768718823E+03  0.79562677539E+02 0.  0.
          6    2    1    2  501    0 -0.96209095693E+02 -0.12491785709E+03  0.19330296256E+03  0.30288667006E+03  0.17179533885E+03 0.  0.
         24    2    5    5    0    0 -0.99288586071E+02 -0.39158229912E+02  0.65533398049E+02  0.14890177297E+03  0.80532735212E+02 0.  0.
          5    1    5    5  501    0  0.30794903777E+01 -0.85759627180E+02  0.12776956451E+03  0.15398489709E+03  0.47000000000E+01 0. -1.
        -11    1    6    6    0    0 -0.52695570487E+02  0.21268063951E+02  0.34843638949E+02  0.66657579227E+02  0.00000000000E+00 0.  1.
         12    1    6    6    0    0 -0.46593015584E+02 -0.60426293863E+02  0.30689759100E+02  0.82244193745E+02  0.00000000000E+00 0. -1.
         -5    1    3    3    0  503  0.88736968704E+02  0.40262549240E+02 -0.38253055448E+03  0.39477466686E+03  0.47000000000E+01 0.  1.
         13    1    4    4    0    0  0.43559256867E+02  0.43900686394E+02 -0.92567573986E+02  0.11132580509E+03  0.00000000000E+00 0. -1.
        -14    1    4    4    0    0 -0.36087129878E+02  0.40754621458E+02 -0.91375728240E+02  0.10636138314E+03  0.00000000000E+00 0.  1.
</event>
<event>
12    1  0.8226261E-002  0.1871033E+03  0.7818608E-02  0.1161804E+00
         21   -1    0    0  501  502  0.00000000000E+00  0.00000000000E+00  0.93631158804E+02  0.93631158804E+02  0.00000000000E+00 0.  1.
         21   -1    0    0  502  503 -0.00000000000E+00 -0.00000000000E+00 -0.37399840296E+03  0.37399840296E+03  0.00000000000E+00 0.  1.
         -6    2    1    2    0  503  0.29125212021E+02 -0.61462461623E+02 -0.10908181249E+03  0.21396375294E+03  0.17104307525E+03 0.  0.
        -24    2    3    3    0    0  0.52899192485E+02 -0.92809799910E+02 -0.46681512829E+02  0.14004660227E+03  0.77600925522E+02 0.  0.
          6    2    1    2  501    0 -0.29125212021E+02  0.61462461623E+02 -0.17128543166E+03  0.25366580883E+03  0.17430356079E+03 0.  0.
         24    2    5    5    0    0 -0.59472440360E+02 -0.17840559198E+02 -0.11506016190E+03  0.15171830106E+03  0.76969768780E+02 0.  0.
          5    1    5    5  501    0  0.30347228340E+02  0.79303020821E+02 -0.56225269759E+02  0.10194750776E+03  0.47000000000E+01 0. -1.
        -11    1    6    6    0    0 -0.48995173681E+02  0.15387074912E+02 -0.29239347700E+02  0.59095080779E+02  0.00000000000E+00 0.  1.
         12    1    6    6    0    0 -0.10477266679E+02 -0.33227634110E+02 -0.85820814203E+02  0.92623220286E+02  0.00000000000E+00 0. -1.
         -5    1    3    3    0  503 -0.23773980465E+02  0.31347338287E+02 -0.62400299662E+02  0.73917150667E+02  0.47000000000E+01 0.  1.
         11    1    4    4    0    0 -0.36503602462E+01 -0.50056702146E+02  0.75971700084E+01  0.50761358845E+02  0.00000000000E+00 0. -1.
        -12    1    4    4    0    0  0.56549552732E+02 -0.42753097764E+02 -0.54278682838E+02  0.89285243423E+02  0.00000000000E+00 0.  1.
</event>
<event>
12    1  0.8226261E-002  0.3234361E+03  0.7818608E-02  0.1074208E+00
         21   -1    0    0  501  502  0.00000000000E+00  0.00000000000E+00  0.36055178553E+03  0.36055178553E+03  0.00000000000E+00 0.  1.
         21   -1    0    0  502  503 -0.00000000000E+00 -0.00000000000E+00 -0.30028129281E+03  0.30028129281E+03  0.00000000000E+00 0. -1.
         -6    2    1    2    0  503  0.18605205519E+03  0.19862289957E+03  0.93873536933E+02  0.33678355429E+03  0.17476984302E+03 0.  0.
        -24    2    3    3    0    0  0.14024892348E+03  0.14923668461E+03 -0.12128904833E+01  0.22016261371E+03  0.80800722777E+02 0.  0.
          6    2    1    2  501    0 -0.18605205519E+03 -0.19862289957E+03 -0.33603044218E+02  0.32404952405E+03  0.17266298382E+03 0.  0.
         24    2    5    5    0    0 -0.68076476104E+02 -0.15465483120E+03 -0.40370763396E+02  0.19787773513E+03  0.94727377820E+02 0.  0.
          5    1    5    5  501    0 -0.11797557909E+03 -0.43968068368E+02  0.67677191776E+01  0.12617178892E+03  0.47000000000E+01 0. -1.
        -11    1    6    6    0    0 -0.60248167647E+02 -0.14670069737E+03 -0.27264010627E+01  0.15861390096E+03  0.00000000000E+00 0.  1.
         12    1    6    6    0    0 -0.78283084567E+01 -0.79541338331E+01 -0.37644362333E+02  0.39263834171E+02  0.00000000000E+00 0. -1.
         -5    1    3    3    0  503  0.45803131715E+02  0.49386214960E+02  0.95086427417E+02  0.11662094058E+03  0.47000000000E+01 0.  1.
         11    1    4    4    0    0  0.12106666196E+03  0.15775508591E+03 -0.45614665717E+01  0.19890854870E+03  0.00000000000E+00 0. -1.
        -12    1    4    4    0    0  0.19182261522E+02 -0.85184012966E+01  0.33485760884E+01  0.21254065013E+02  0.00000000000E+00 0.  1.
</event>
<event>
12    1  0.8226261E-002  0.2119446E+03  0.7818608E-02  0.1141668E+00
         21   -1    0    0  501  502  0.00000000000E+00  0.00000000000E+00  0.14290070258E+04  0.14290070258E+04  0.00000000000E+00 0.  1.
         21   -1    0    0  502  503 -0.00000000000E+00 -0.00000000000E+00 -0.30234889955E+02  0.30234889955E+02  0.00000000000E+00 0.  1.
         -6    2    1    2    0  503 -0.44393438277E+02 -0.12232432033E+03  0.71504454903E+03  0.74579435865E+03  0.16729166625E+03 0.  0.
        -24    2    3    3    0    0  0.29389770324E+02 -0.10391960693E+03  0.43012123275E+03  0.45086032957E+03  0.81287874996E+02 0.  0.
          6    2    1    2  501    0  0.44393438277E+02  0.12232432033E+03  0.68372758682E+03  0.71344755711E+03  0.15681194806E+03 0.  0.
         24    2    5    5    0    0 -0.18171267498E+02  0.55861127885E+02  0.48078152682E+03  0.49086972437E+03  0.79696607171E+02 0.  0.
          5    1    5    5  501    0  0.62564705776E+02  0.66463192443E+02  0.20294606000E+03  0.22257783274E+03  0.47000000000E+01 0. -1.
        -11    1    6    6    0    0  0.11792781046E+02  0.53882589563E+02  0.41386096251E+03  0.41752041798E+03  0.00000000000E+00 0.  1.
         12    1    6    6    0    0 -0.29964048545E+02  0.19785383221E+01  0.66920564315E+02  0.73349306386E+02  0.00000000000E+00 0. -1.
         -5    1    3    3    0  503 -0.73783208601E+02 -0.18404713397E+02  0.28492331628E+03  0.29493402908E+03  0.47000000000E+01 0.  1.
         11    1    4    4    0    0 -0.72507877484E+01  0.74893350049E+00  0.14118987225E+03  0.14137791500E+03  0.00000000000E+00 0. -1.
        -12    1    4    4    0    0  0.36640558072E+02 -0.10466854043E+03  0.28893136049E+03  0.30948241457E+03  0.00000000000E+00 0.  1.
</event>
<event>
12    1  0.8226261E-002  0.1938640E+03  0.7818608E-02  0.1155152E+00
         21   -1    0    0  503  502  0.00000000000E+00  0.00000000000E+00  0.26259421154E+03  0.26259421154E+03  0.00000000000E+00 0. -1.
         21   -1    0    0  501  503 -0.00000000000E+00 -0.00000000000E+00 -0.65202833666E+03  0.65202833666E+03  0.00000000000E+00 0. -1.
          6    2    1    2  501    0 -0.84797169918E+02  0.21175565755E+02 -0.59883975694E+03  0.62925615223E+03  0.17238122290E+03 0.  0.
         24    2    3    3    0    0 -0.85650771932E+02  0.36144621435E+02 -0.23792072528E+03  0.26799525110E+03  0.81072157394E+02 0.  0.
         -6    2    1    2    0  502  0.84797169918E+02 -0.21175565755E+02  0.20940563183E+03  0.28536639597E+03  0.17304420447E+03 0.  0.
        -24    2    5    5    0    0  0.83720842432E+00 -0.91077066043E+00  0.16933498915E+03  0.19003705391E+03  0.86245074564E+02 0.  0.
          5    1    3    3  501    0  0.85360201407E+00 -0.14969055680E+02 -0.36091903166E+03  0.36126090113E+03  0.47000000000E+01 0. -1.
        -11    1    4    4    0    0 -0.61449566835E+02  0.20844904530E+02 -0.22898503355E+03  0.23800148088E+03  0.00000000000E+00 0.  1.
         12    1    4    4    0    0 -0.24201205098E+02  0.15299716905E+02 -0.89356917254E+01  0.29993770223E+02  0.00000000000E+00 0. -1.
         -5    1    5    5    0  502  0.83959961494E+02 -0.20264795095E+02  0.40070642679E+02  0.95329342068E+02  0.47000000000E+01 0.  1.
         13    1    6    6    0    0  0.41368691768E+02 -0.65887872440E+01  0.11212715676E+03  0.11969661674E+03  0.00000000000E+00 0. -1.
        -14    1    6    6    0    0 -0.40531483343E+02  0.56780165836E+01  0.57207832392E+02  0.70340437170E+02  0.00000000000E+00 0.  1.
</event>
<event>
12    1  0.8226261E-002  0.2054491E+03  0.7818608E-02  0.1145389E+00
         21   -1    0    0  501  502  0.00000000000E+00  0.00000000000E+00  0.50374155810E+03  0.50374155810E+03  0.00000000000E+00 0.  1.
         21   -1    0    0  502  503 -0.00000000000E+00 -0.00000000000E+00 -0.11437339504E+03  0.11437339504E+03  0.00000000000E+00 0. -1.
         -6    2    1    2    0  503 -0.10392697773E+03 -0.39195856037E+02  0.35564959854E+03  0.41072613963E+03  0.17283573995E+03 0.  0.
        -24    2    3    3    0    0 -0.12326407295E+03  0.50914035699E+01  0.20769628950E+03  0.25500987114E+03  0.81684341462E+02 0.  0.
          6    2    1    2  501    0  0.10392697773E+03  0.39195856037E+02  0.33718564517E+02  0.20738881350E+03  0.17186054388E+03 0.  0.
         24    2    5    5    0    0  0.90343957089E+01  0.69807898255E+02  0.31130075891E+02  0.10753647490E+03  0.75101590159E+02 0.  0.
          5    1    5    5  501    0  0.94892582021E+02 -0.30612042218E+02  0.25884886267E+01  0.99852338604E+02  0.47000000000E+01 0. -1.
        -13    1    6    6    0    0  0.90145514265E+01 -0.14985543625E+02  0.10018586178E+02  0.20154421951E+02  0.00000000000E+00 0.  1.
         14    1    6    6    0    0  0.19844282404E-01  0.84793441880E+02  0.21111489713E+02  0.87382052949E+02  0.00000000000E+00 0. -1.
         -5    1    3    3    0  503  0.19337095218E+02 -0.44287259607E+02  0.14795330905E+03  0.15571626849E+03  0.47000000000E+01 0.  1.
         13    1    4    4    0    0  0.56378022608E+01  0.17482973405E+02  0.22889519820E+02  0.29349093529E+02  0.00000000000E+00 0. -1.
        -14    1    4    4    0    0 -0.12890187521E+03 -0.12391569835E+02  0.18480676968E+03  0.22566077761E+03  0.00000000000E+00 0.  1.
</event>
<event>
12    1  0.8226261E-002  0.2514766E+03  0.7818608E-02  0.1112645E+00
         21   -1    0    0  503  502  0.00000000000E+00  0.00000000000E+00  0.15615490155E+03  0.15615490155E+03  0.00000000000E+00 0. -1.
         21   -1    0    0  501  503 -0.00000000000E+00 -0.00000000000E+00 -0.54343319792E+03  0.54343319792E+03  0.00000000000E+00 0. -1.
          6    2    1    2  501    0  0.11582121403E+03 -0.14041559686E+03 -0.37145393715E+03  0.44761408110E+03  0.17102410566E+03 0.  0.
         24    2    3    3    0    0  0.11726515713E+02 -0.96595826496E+02 -0.12746143410E+03  0.17870831687E+03  0.78879531369E+02 0.  0.
         -6    2    1    2    0  502 -0.11582121403E+03  0.14041559686E+03 -0.15824359223E+02  0.25197401837E+03  0.17352061009E+03 0.  0.
        -24    2    5    5    0    0 -0.68084151794E+02  0.11290226582E+03 -0.73955688945E+02  0.17174215443E+03  0.81507977082E+02 0.  0.
          5    1    3    3  501    0  0.10409469832E+03 -0.43819770364E+02 -0.24399250305E+03  0.26890576423E+03  0.47000000000E+01 0. -1.
        -11    1    4    4    0    0  0.31789048708E+02 -0.96660750020E+02 -0.88375948904E+02  0.13477445068E+03  0.00000000000E+00 0.  1.
         12    1    4    4    0    0 -0.20062532995E+02  0.64923524023E-01 -0.39085485196E+02  0.43933866189E+02  0.00000000000E+00 0. -1.
         -5    1    5    5    0  502 -0.47737062235E+02  0.27513331043E+02  0.58131329722E+02  0.80231863939E+02  0.47000000000E+01 0.  1.
         13    1    6    6    0    0 -0.56563716814E+02  0.10747564148E+03 -0.28792273225E+02  0.12481771737E+03  0.00000000000E+00 0. -1.
        -14    1    6    6    0    0 -0.11520434980E+02  0.54266243354E+01 -0.45163415720E+02  0.46924437059E+02  0.00000000000E+00 0.  1.
</event>
<event>
12    1  0.8226261E-002  0.3362752E+03  0.7818608E-02  0.1068545E+00
         21   -1    0    0  501  502  0.00000000000E+00  0.00000000000E+00  0.24367807635E+03  0.24367807635E+03  0.00000000000E+00 0.  1.
         21   -1    0    0  502  503 -0.00000000000E+00 -0.00000000000E+00 -0.91406750697E+03  0.91406750697E+03  0.00000000000E+00 0. -1.
         -6    2    1    2    0  503 -0.27210183082E+03 -0.97594955534E+02 -0.74258395168E+03  0.81517599597E+03  0.17180453263E+03 0.  0.
        -24    2    3    3    0    0 -0.20589359429E+03 -0.23367149369E+02 -0.61128230343E+03  0.65038670437E+03  0.79991342631E+02 0.  0.
          6    2    1    2  501    0  0.27210183082E+03  0.97594955534E+02  0.72194521058E+02  0.34256958735E+03  0.16904937628E+03 0.  0.
         24    2    5    5    0    0  0.65080246335E+02  0.70868860790E+02  0.42906000252E+02  0.13173285422E+03  0.79087205859E+02 0.  0.
          5    1    5    5  501    0  0.20702158449E+03  0.26726094744E+02  0.29288520806E+02  0.21083673313E+03  0.47000000000E+01 0. -1.
        -11    1    6    6    0    0  0.79502459580E+02  0.39580106902E+02  0.39216279523E+02  0.97083173214E+02  0.00000000000E+00 0.  1.
         12    1    6    6    0    0 -0.14422213245E+02  0.31288753887E+02  0.36897207284E+01  0.34649681005E+02  0.00000000000E+00 0. -1.
         -5    1    3    3    0  503 -0.66208236537E+02 -0.74227806165E+02 -0.13130164825E+03  0.16478929160E+03  0.47000000000E+01 0.  1.
         13    1    4    4    0    0 -0.73073978406E+02 -0.46458701876E+02 -0.21405891673E+03  0.23091001955E+03  0.00000000000E+00 0. -1.
        -14    1    4    4    0    0 -0.13281961588E+03  0.23091552507E+02 -0.39722338670E+03  0.41947668481E+03  0.00000000000E+00 0.  1.
</event>
<event>
12    1  0.8226261E-002  0.2565824E+03  0.7818608E-02  0.1109220E+00
         21   -1    0    0  503  502  0.00000000000E+00  0.00000000000E+00  0.64336445406E+03  0.64336445406E+03  0.00000000000E+00 0.  1.
         21   -1    0    0  501  503 -0.00000000000E+00 -0.00000000000E+00 -0.19221385886E+03  0.19221385886E+03  0.00000000000E+00 0. -1.
          6    2    1    2  501    0 -0.13498751008E+03 -0.13321167708E+03 -0.60156912337E+02  0.26350322208E+03  0.17276607062E+03 0.  0.
         24    2    3    3    0    0 -0.12017387885E+03 -0.52539575898E+02  0.11563501662E+02  0.15444663418E+03  0.80733388678E+02 0.  0.
         -6    2    1    2    0  502  0.13498751008E+03  0.13321167708E+03  0.51130750753E+03  0.57207509084E+03  0.17282234668E+03 0.  0.
        -24    2    5    5    0    0  0.14437338603E+03  0.50021959116E+02  0.34845673139E+03  0.38890552696E+03  0.80495616408E+02 0.  0.
          5    1    3    3  501    0 -0.14813631234E+02 -0.80672101184E+02 -0.71720413999E+02  0.10905658790E+03  0.47000000000E+01 0. -1.
        -13    1    4    4    0    0 -0.70884367251E+02 -0.59338543767E+02  0.35760838647E+02  0.99118584926E+02  0.00000000000E+00 0.  1.
         14    1    4    4    0    0 -0.49289511597E+02  0.67989678694E+01 -0.24197336986E+02  0.55328049258E+02  0.00000000000E+00 0. -1.
         -5    1    5    5    0  502 -0.93858759492E+01  0.83189717965E+02  0.16285077614E+03  0.18316956388E+03  0.47000000000E+01 0.  1.
         13    1    6    6    0    0  0.82309296185E+01 -0.33741257661E+01  0.10156298153E+03  0.10195181286E+03  0.00000000000E+00 0. -1.
        -14    1    6    6    0    0  0.13614245641E+03  0.53396084882E+02  0.24689374986E+03  0.28695371411E+03  0.00000000000E+00 0.  1.
</event>
<event>
12    1  0.8226261E-002  0.1970226E+03  0.7818608E-02  0.1152427E+00
         21   -1    0    0  501  502  0.00000000000E+00  0.00000000000E+00  0.66959209953E+03  0.66959209953E+03  0.00000000000E+00 0.  1.
         21   -1    0    0  502  503 -0.00000000000E+00 -0.00000000000E+00 -0.84719106943E+02  0.84719106943E+02  0.00000000000E+00 0. -1.
         -6    2    1    2    0  503  0.34499435237E+02 -0.86969914897E+02  0.79347294886E+02  0.21174863769E+03  0.17259060006E+03 0.  0.
        -24    2    3    3    0    0 -0.19868439007E+02 -0.18038420478E+01  0.66015161011E+01  0.87156647397E+02  0.84585415149E+02 0.  0.
          6    2    1    2  501    0 -0.34499435237E+02  0.86969914897E+02  0.50552569770E+03  0.54256256878E+03  0.17338954086E+03 0.  0.
         24    2    5    5    0    0  0.34010297116E+02  0.17937588095E+02  0.32875722317E+03  0.34075020752E+03  0.80937845044E+02 0.  0.
          5    1    5    5  501    0 -0.68509732353E+02  0.69032326803E+02  0.17676847453E+03  0.20181236126E+03  0.47000000000E+01 0. -1.
        -13    1    6    6    0    0  0.14607749689E+02  0.47519917857E+02  0.24206441786E+03  0.24711679696E+03  0.00000000000E+00 0.  1.
         14    1    6    6    0    0  0.19402547427E+02 -0.29582329762E+02  0.86692805310E+02  0.93633410561E+02  0.00000000000E+00 0. -1.
         -5    1    3    3    0  503  0.54367874244E+02 -0.85166072849E+02  0.72745778785E+02  0.12459199029E+03  0.47000000000E+01 0.  1.
         11    1    4    4    0    0 -0.50729241176E+02 -0.11943059691E+01 -0.10573576567E+02  0.51833220993E+02  0.00000000000E+00 0. -1.
        -12    1    4    4    0    0  0.30860802169E+02 -0.60953607876E+00  0.17175092668E+02  0.35323426404E+02  0.00000000000E+00 0.  1.
</event>
<event>
12    1  0.8226261E-002  0.2071768E+03  0.7818608E-02  0.1144254E+00
         21   -1    0    0  503  502  0.00000000000E+00  0.00000000000E+00  0.26447181027E+02  0.26447181027E+02  0.00000000000E+00 0.  1.
         21   -1    0    0  501  503 -0.00000000000E+00 -0.00000000000E+00 -0.30701273717E+04  0.30701273717E+04  0.00000000000E+00 0. -1.
          6    2    1    2  501    0 -0.14468414349E+02  0.11235732850E+03 -0.25950788992E+04  0.26033356892E+04  0.17346098578E+03 0.  0.
         24    2    3    3    0    0 -0.18611601606E+02 -0.85943773790E+01 -0.82132413494E+03  0.82545084065E+03  0.79846732306E+02 0.  0.
         -6    2    1    2    0  502  0.14468414349E+02 -0.11235732850E+03 -0.44860129150E+03  0.49323886350E+03  0.17090334535E+03 0.  0.
        -24    2    5    5    0    0  0.81491095599E+00 -0.19403255684E+02 -0.85538409325E+02  0.11818736808E+03  0.79210378688E+02 0.  0.
          5    1    3    3  501    0  0.41431872566E+01  0.12095170588E+03 -0.17737547642E+04  0.17778848486E+04  0.47000000000E+01 0. -1.
        -11    1    4    4    0    0  0.30425052045E+02 -0.96750751193E+01 -0.25119485340E+03  0.25321561019E+03  0.00000000000E+00 0.  1.
         12    1    4    4    0    0 -0.49036653651E+02  0.10806977404E+01 -0.57012928154E+03  0.57223523045E+03  0.00000000000E+00 0. -1.
         -5    1    5    5    0  502  0.13653503393E+02 -0.92954072813E+02 -0.36306288217E+03  0.37505149542E+03  0.47000000000E+01 0.  1.
         11    1    6    6    0    0  0.15675912019E+01  0.29164323905E+02 -0.50348765602E+02  0.58206643338E+02  0.00000000000E+00 0. -1.
        -12    1    6    6    0    0 -0.75268024588E+00 -0.48567579589E+02 -0.35189643723E+02  0.59980724738E+02  0.00000000000E+00 0.  1.
</event>
<event>
12    1  0.8226261E-002  0.1920220E+03  0.7818608E-02  0.1156883E+00
         21   -1    0    0  501  502  0.00000000000E+00  0.00000000000E+00  0.60404899786E+03  0.60404899786E+03  0.00000000000E+00 0.  1.
         21   -1    0    0  502  503 -0.00000000000E+00 -0.00000000000E+00 -0.72624939207E+03  0.72624939207E+03  0.00000000000E+00 0.  1.
         -6    2    1    2    0  503  0.48278332449E+02  0.70984358212E+02 -0.69782702075E+03  0.72348832234E+03  0.17059667399E+03 0.  0.
        -24    2    3    3    0    0  0.43025951539E+02 -0.33443878845E+01 -0.55184444617E+03  0.55952078871E+03  0.81662738144E+02 0.  0.
          6    2    1    2  501    0 -0.48278332449E+02 -0.70984358212E+02  0.57562662654E+03  0.60681006759E+03  0.17176399055E+03 0.  0.
         24    2    5    5    0    0 -0.42410416130E+02 -0.82814081233E+02  0.22261943717E+03  0.25352471474E+03  0.77836699133E+02 0.  0.
          5    1    5    5  501    0 -0.58679163197E+01  0.11829723021E+02  0.35300718937E+03  0.35328535285E+03  0.47000000000E+01 0. -1.
        -11    1    6    6    0    0 -0.18042437720E+02 -0.92719175706E+02  0.18349028825E+03  0.20637601844E+03  0.00000000000E+00 0.  1.
         12    1    6    6    0    0 -0.24367978410E+02  0.99050944728E+01  0.39129148920E+02  0.47148696307E+02  0.00000000000E+00 0. -1.
         -5    1    3    3    0  503  0.52523809103E+01  0.74328746097E+02 -0.14598257459E+03  0.16396753363E+03  0.47000000000E+01 0.  1.
         13    1    4    4    0    0 -0.63828943192E+01 -0.25938239345E+02 -0.33160535403E+03  0.33267949204E+03  0.00000000000E+00 0. -1.
        -14    1    4    4    0    0  0.49408845858E+02  0.22593851460E+02 -0.22023909213E+03  0.22684129667E+03  0.00000000000E+00 0.  1.
</event>
<event>
12    1  0.8226261E-002  0.2606733E+03  0.7818608E-02  0.1106898E+00
         21   -1    0    0  501  502  0.00000000000E+00  0.00000000000E+00  0.26587015869E+03  0.26587015869E+03  0.00000000000E+00 0.  1.
         21   -1    0    0  502  503 -0.00000000000E+00 -0.00000000000E+00 -0.26413022460E+03  0.26413022460E+03  0.00000000000E+00 0.  1.
         -6    2    1    2    0  503 -0.19488286455E+03 -0.10448508583E+02 -0.49621590148E+02  0.26431527081E+03  0.17120676957E+03 0.  0.
        -24    2    3    3    0    0 -0.87835630990E+02  0.44366658564E+02 -0.66232424068E+02  0.14281702981E+03  0.79539119571E+02 0.  0.
          6    2    1    2  501    0  0.19488286455E+03  0.10448508583E+02  0.51361524238E+02  0.26568511248E+03  0.17280645415E+03 0.  0.
         24    2    5    5    0    0  0.16155039977E+03 -0.51779702903E+02  0.54915637266E+02  0.19484638556E+03  0.78547548981E+02 0.  0.
          5    1    5    5  501    0  0.33332464782E+02  0.62228211486E+02 -0.35541130279E+01  0.70838726927E+02  0.47000000000E+01 0. -1.
        -13    1    6    6    0    0  0.97921551053E+02 -0.95064943317E+01  0.64819160897E+02  0.11781564928E+03  0.00000000000E+00 0.  1.
         14    1    6    6    0    0  0.63628848713E+02 -0.42273208572E+02 -0.99035236313E+01  0.77030736279E+02  0.00000000000E+00 0. -1.
         -5    1    3    3    0  503 -0.10704723356E+03 -0.54815167147E+02  0.16610833919E+02  0.12149824100E+03  0.47000000000E+01 0.  1.
         11    1    4    4    0    0  0.96040910655E+01  0.69906494595E+01 -0.30129381101E+02  0.32386530389E+02  0.00000000000E+00 0. -1.
        -12    1    4    4    0    0 -0.97439722056E+02  0.37376009105E+02 -0.36103042966E+02  0.11043049942E+03  0.00000000000E+00 0.  1.
</event>
<event>
12    1  0.8226261E-002  0.1888324E+03  0.7818608E-02  0.1161445E+00
         21   -1    0    0  501  502  0.00000000000E+00  0.00000000000E+00  0.80228889447E+03  0.80228889447E+03  0.00000000000E+00 0.  1.
         21   -1    0    0  502  503 -0.00000000000E+00 -0.00000000000E+00 -0.42519289432E+02  0.42519289432E+02  0.00000000000E+00 0.  1.
         -6    2    1    2    0  503 -0.74818606305E+02  0.22354870593E+02  0.38896029642E+03  0.43237459988E+03  0.17193056255E+03 0.  0.
        -24    2    3    3    0    0  0.86904398542E+01 -0.27549502941E+02  0.23152697061E+03  0.24724883353E+03  0.81809221413E+02 0.  0.
          6    2    1    2  501    0  0.74818606305E+02 -0.22354870593E+02  0.37080930862E+03  0.41243358403E+03  0.16280157795E+03 0.  0.
         24    2    5    5    0    0  0.11064246580E+03  0.41308256966E+01  0.28514234175E+03  0.31576011181E+03  0.78354796882E+02 0.  0.
          5    1    5    5  501    0 -0.35823859494E+02 -0.26485696289E+02  0.85666966874E+02  0.96673472217E+02  0.47000000000E+01 0. -1.
        -11    1    6    6    0    0  0.46069750909E+02  0.37509723720E+02  0.93304823392E+02  0.11061279940E+03  0.00000000000E+00 0.  1.
         12    1    6    6    0    0  0.64572714890E+02 -0.33378898023E+02  0.19183751835E+03  0.20514731241E+03  0.00000000000E+00 0. -1.
         -5    1    3    3    0  503 -0.83509046159E+02  0.49904373534E+02  0.15743332582E+03  0.18512576635E+03  0.47000000000E+01 0.  1.
         11    1    4    4    0    0  0.24581074575E+02  0.10920956376E+02  0.25516071151E+02  0.37075145345E+02  0.00000000000E+00 0. -1.
        -12    1    4    4    0    0 -0.15890634720E+02 -0.38470459318E+02  0.20601089946E+03  0.21017368819E+03  0.00000000000E+00 0.  1.
</event>
<event>
12    1  0.8226261E-002  0.1956485E+03  0.7818608E-02  0.1153587E+00
         21   -1    0    0  501  502  0.00000000000E+00  0.00000000000E+00  0.33984137052E+03  0.33984137052E+03  0.00000000000E+00 0. -1.
         21   -1    0    0  502  503 -0.00000000000E+00 -0.00000000000E+00 -0.11477061104E+03  0.11477061104E+03  0.00000000000E+00 0. -1.
         -6    2    1    2    0  503  0.59693249825E+02  0.71890183114E+02  0.14566772929E+03  0.24346470513E+03  0.17124395693E+03 0.  0.
        -24    2    3    3    0    0  0.87611820202E+02  0.52285273746E+01  0.69978399321E+02  0.13870694843E+03  0.81482959160E+02 0.  0.
          6    2    1    2  501    0 -0.59693249825E+02 -0.71890183114E+02  0.79403030194E+02  0.21114727644E+03  0.17189196794E+03 0.  0.
         24    2    5    5    0    0  0.40201563724E+02 -0.21652087917E+02  0.56211271852E+02  0.96854723585E+02  0.64312920633E+02 0.  0.
          5    1    5    5  501    0 -0.99894813549E+02 -0.50238095197E+02  0.23191758341E+02  0.11429255285E+03  0.47000000000E+01 0. -1.
        -13    1    6    6    0    0  0.17064432731E+02  0.17386562224E+02  0.43284917548E+02  0.49669623489E+02  0.00000000000E+00 0.  1.
         14    1    6    6    0    0  0.23137130993E+02 -0.39038650141E+02  0.12926354305E+02  0.47185100096E+02  0.00000000000E+00 0. -1.
         -5    1    3    3    0  503 -0.27918570377E+02  0.66661655740E+02  0.75689329967E+02  0.10475775670E+03  0.47000000000E+01 0.  1.
         11    1    4    4    0    0  0.63638729516E+01  0.22775538600E+02  0.46766802118E+02  0.52405704058E+02  0.00000000000E+00 0. -1.
        -12    1    4    4    0    0  0.81247947251E+02 -0.17547011226E+02  0.23211597203E+02  0.86301244372E+02  0.00000000000E+00 0.  1.
</event>
<event>
12    1  0.8226261E-002  0.2163316E+03  0.7818608E-02  0.1139237E+00
         21   -1    0    0  503  502  0.00000000000E+00  0.00000000000E+00  0.31131028107E+03  0.31131028107E+03  0.00000000000E+00 0.  1.
         21   -1    0    0  501  503 -0.00000000000E+00 -0.00000000000E+00 -0.23000476161E+03  0.23000476161E+03  0.00000000000E+00 0. -1.
          6    2    1    2  501    0 -0.39334536588E+02 -0.12974819952E+03 -0.12656449272E+03  0.25063505870E+03  0.16857508946E+03 0.  0.
         24    2    3    3    0    0 -0.93565957069E+01 -0.16455166170E+02 -0.43361121914E+01  0.81236548222E+02  0.78881281184E+02 0.  0.
         -6    2    1    2    0  502  0.39334536588E+02  0.12974819952E+03  0.20787001218E+03  0.29067998397E+03  0.15133773512E+03 0.  0.
        -24    2    5    5    0    0  0.52570074172E+02  0.15049349548E+03  0.18798905075E+03  0.25869734201E+03  0.78565429286E+02 0.  0.
          5    1    3    3  501    0 -0.29977940881E+02 -0.11329303335E+03 -0.12222838053E+03  0.16939851048E+03  0.47000000000E+01 0. -1.
        -11    1    4    4    0    0  0.22023391326E+02 -0.10802553834E+02  0.27035835077E+02  0.36505633992E+02  0.00000000000E+00 0.  1.
         12    1    4    4    0    0 -0.31379987033E+02 -0.56526123359E+01 -0.31371947269E+02  0.44730914230E+02  0.00000000000E+00 0. -1.
         -5    1    5    5    0  502 -0.13235537584E+02 -0.20745295964E+02  0.19880961434E+02  0.31982641969E+02  0.47000000000E+01 0. -1.
         11    1    6    6    0    0  0.32275905482E+02  0.19615118460E+02  0.14554851516E+02  0.40476297379E+02  0.00000000000E+00 0. -1.
        -12    1    6    6    0    0  0.20294168690E+02  0.13087837702E+03  0.17343419923E+03  0.21822104463E+03  0.00000000000E+00 0.  1.
</event>
<event>
12    1  0.8226261E-002  0.2164010E+03  0.7818608E-02  0.1137497E+00
         21   -1    0    0  503  502  0.00000000000E+00  0.00000000000E+00  0.94055065350E+03  0.94055065350E+03  0.00000000000E+00 0. -1.
         21   -1    0    0  501  503 -0.00000000000E+00 -0.00000000000E+00 -0.20955399898E+03  0.20955399898E+03  0.00000000000E+00 0.  1.
          6    2    1    2  501    0 -0.75086663769E+02 -0.10125750546E+03 -0.13921585613E+03  0.25338886581E+03  0.17009930402E+03 0.  0.
         24    2    3    3    0    0 -0.74572094133E+02 -0.92912062439E+02 -0.16929096549E+03  0.22182126527E+03  0.79696889266E+02 0.  0.
         -6    2    1    2    0  502  0.75086663769E+02  0.10125750546E+03  0.87021251066E+03  0.89671578666E+03  0.17589286188E+03 0.  0.
        -24    2    5    5    0    0  0.79345270283E+02  0.94976894406E+02  0.39273512648E+03  0.41915497985E+03  0.78318166315E+02 0.  0.
          5    1    3    3  501    0 -0.51456963554E+00 -0.83454430231E+01  0.30075109356E+02  0.31567600541E+02  0.47000000000E+01 0. -1.
        -11    1    4    4    0    0 -0.50462537109E+00 -0.34520778477E+02 -0.97079099887E+02  0.10303538435E+03  0.00000000000E+00 0.  1.
         12    1    4    4    0    0 -0.74067468762E+02 -0.58391283963E+02 -0.72211865604E+02  0.11878588092E+03  0.00000000000E+00 0. -1.
         -5    1    5    5    0  502 -0.42586065140E+01  0.62806110570E+01  0.47747738418E+03  0.47756080682E+03  0.47000000000E+01 0.  1.
         11    1    6    6    0    0 -0.77296526299E+01  0.16875145716E+02  0.13309826526E+03  0.13438625781E+03  0.00000000000E+00 0. -1.
        -12    1    6    6    0    0  0.87074922913E+02  0.78101748690E+02  0.25963686121E+03  0.28476872203E+03  0.00000000000E+00 0.  1.
</event>
<event>
12    1  0.8226261E-002  0.1737495E+03  0.7818608E-02  0.1174186E+00
         21   -1    0    0  503  502  0.00000000000E+00  0.00000000000E+00  0.78011769623E+02  0.78011769623E+02  0.00000000000E+00 0.  1.
         21   -1    0    0  501  503 -0.00000000000E+00 -0.00000000000E+00 -0.44456714382E+03  0.44456714382E+03  0.00000000000E+00 0.  1.
          6    2    1    2  501    0 -0.13445760845E+02 -0.17849450344E+02 -0.27904086631E+03  0.32871371900E+03  0.17230644975E+03 0.  0.
         24    2    3    3    0    0 -0.73455639126E+01 -0.37318573728E+02 -0.29065820461E+03  0.30476979039E+03  0.83401438667E+02 0.  0.
         -6    2    1    2    0  502  0.13445760845E+02  0.17849450344E+02 -0.87514507884E+02  0.19386519444E+03  0.17153872205E+03 0.  0.
        -24    2    5    5    0    0 -0.49892286039E+01 -0.45478572170E+02 -0.94968549332E+02  0.12732242620E+03  0.71405755521E+02 0.  0.
          5    1    3    3  501    0 -0.61001969328E+01  0.19469123383E+02  0.11617338304E+02  0.23943928608E+02  0.47000000000E+01 0. -1.
        -11    1    4    4    0    0 -0.12873191559E+02 -0.43014680373E+02 -0.65157982819E+02  0.79129921733E+02  0.00000000000E+00 0.  1.
         12    1    4    4    0    0  0.55276276468E+01  0.56961066458E+01 -0.22550022180E+03  0.22563986866E+03  0.00000000000E+00 0. -1.
         -5    1    5    5    0  502  0.18434989449E+02  0.63328022514E+02  0.74540414478E+01  0.66542768243E+02  0.47000000000E+01 0.  1.
         13    1    6    6    0    0 -0.11968993852E+02 -0.55932621174E+02 -0.37268352994E+02  0.68268917232E+02  0.00000000000E+00 0. -1.
        -14    1    6    6    0    0  0.69797652482E+01  0.10454049003E+02 -0.57700196338E+02  0.59053508964E+02  0.00000000000E+00 0.  1.
</event>
<event>
12    1  0.8226261E-002  0.1875445E+03  0.7818608E-02  0.1160875E+00
         21   -1    0    0  503  502  0.00000000000E+00  0.00000000000E+00  0.10966423664E+03  0.10966423664E+03  0.00000000000E+00 0.  1.
         21   -1    0    0  501  503 -0.00000000000E+00 -0.00000000000E+00 -0.33534235521E+03  0.33534235521E+03  0.00000000000E+00 0. -1.
          6    2    1    2  501    0 -0.41677697782E+02 -0.61066766059E+02 -0.16114099042E+03  0.24666852031E+03  0.17150148602E+03 0.  0.
         24    2    3    3    0    0  0.47033565981E+02  0.84179019527E+01 -0.88450514775E+02  0.11249027074E+03  0.50473260687E+02 0.  0.
         -6    2    1    2    0  502  0.41677697782E+02  0.61066766059E+02 -0.64537128153E+02  0.19833807154E+03  0.17235651802E+03 0.  0.
        -24    2    5    5    0    0 -0.36623024453E+02  0.48946078622E+01 -0.49600890832E+02  0.10070869254E+03  0.79478231458E+02 0.  0.
          5    1    3    3  501    0 -0.88711263763E+02 -0.69484668012E+02 -0.72690475650E+02  0.13417824957E+03  0.47000000000E+01 0. -1.
        -11    1    4    4    0    0  0.48255174694E+02  0.76635534865E+01 -0.37685231869E+02  0.61704688945E+02  0.00000000000E+00 0.  1.
         12    1    4    4    0    0 -0.12216087132E+01  0.75434846620E+00 -0.50765282905E+02  0.50785581792E+02  0.00000000000E+00 0. -1.
         -5    1    5    5    0  502  0.78300722235E+02  0.56172158197E+02 -0.14936237321E+02  0.97629379002E+02  0.47000000000E+01 0.  1.
         13    1    6    6    0    0 -0.25887849554E+01 -0.26578786439E+02 -0.47272651105E+02  0.54293988973E+02  0.00000000000E+00 0. -1.
        -14    1    6    6    0    0 -0.34034239498E+02  0.31473394302E+02 -0.23282397279E+01  0.46414703568E+02  0.00000000000E+00 0.  1.
</event>
<event>
12    1  0.8226261E-002  0.2381848E+03  0.7818608E-02  0.1121171E+00
         21   -1    0    0  503  502  0.00000000000E+00  0.00000000000E+00  0.17124108740E+03  0.17124108740E+03  0.00000000000E+00 0.  1.
         21   -1    0    0  501  503 -0.00000000000E+00 -0.00000000000E+00 -0.33549228802E+03  0.33549228802E+03  0.00000000000E+00 0. -1.
          6    2    1    2  501    0  0.80200611876E+01 -0.16387438619E+03 -0.11484171800E+03  0.26442509569E+03  0.17266405302E+03 0.  0.
         24    2    3    3    0    0 -0.60947857868E+02 -0.86746396405E+02 -0.51049541864E+02  0.14278286452E+03  0.80878377880E+02 0.  0.
         -6    2    1    2    0  502 -0.80200611876E+01  0.16387438619E+03 -0.49409482608E+02  0.24230827973E+03  0.17132679190E+03 0.  0.
        -24    2    5    5    0    0 -0.33062458937E+02  0.11634042818E+01 -0.28644093698E+02  0.76310458368E+02  0.62516575819E+02 0.  0.
          5    1    3    3  501    0  0.68967919055E+02 -0.77127989787E+02 -0.63792176141E+02  0.12164223117E+03  0.47000000000E+01 0. -1.
        -11    1    4    4    0    0  0.85506193740E+01 -0.10387956480E+02 -0.36011809953E+02  0.38443116258E+02  0.00000000000E+00 0.  1.
         12    1    4    4    0    0 -0.69498477242E+02 -0.76358439925E+02 -0.15037731911E+02  0.10433974826E+03  0.00000000000E+00 0. -1.
         -5    1    5    5    0  502  0.25042397750E+02  0.16271098191E+03 -0.20765388910E+02  0.16599782136E+03  0.47000000000E+01 0.  1.
         11    1    6    6    0    0 -0.12836339174E+01 -0.26003452324E+02 -0.21776765301E+02  0.33941932116E+02  0.00000000000E+00 0. -1.
        -12    1    6    6    0    0 -0.31778825020E+02  0.27166856606E+02 -0.68673283972E+01  0.42368526252E+02  0.00000000000E+00 0.  1.
</event>
<event>
12    1  0.8226261E-002  0.2506220E+03  0.7818608E-02  0.1113013E+00
         21   -1    0    0  503  502  0.00000000000E+00  0.00000000000E+00  0.23840410177E+03  0.23840410177E+03  0.00000000000E+00 0. -1.
         21   -1    0    0  501  503 -0.00000000000E+00 -0.00000000000E+00 -0.77452305255E+03  0.77452305255E+03  0.00000000000E+00 0. -1.
          6    2    1    2  501    0 -0.17980333980E+03 -0.29890219966E+02 -0.67961446804E+03  0.72413251080E+03  0.17108302594E+03 0.  0.
         24    2    3    3    0    0 -0.82717935032E+02  0.33225018603E+02 -0.22683774606E+03  0.25675904222E+03  0.80769326401E+02 0.  0.
         -6    2    1    2    0  502  0.17980333980E+03  0.29890219966E+02  0.14349551726E+03  0.28879464352E+03  0.17201370993E+03 0.  0.
        -24    2    5    5    0    0  0.25165327695E+02 -0.21242058695E+02  0.27110014023E+02  0.88557034491E+02  0.77607195039E+02 0.  0.
          5    1    3    3  501    0 -0.97085404766E+02 -0.63115238570E+02 -0.45277672198E+03  0.46737346858E+03  0.47000000000E+01 0. -1.
        -11    1    4    4    0    0 -0.16244851078E+02 -0.21560796244E+02 -0.22990973263E+02  0.35459102820E+02  0.00000000000E+00 0.  1.
         12    1    4    4    0    0 -0.66473083954E+02  0.54785814847E+02 -0.20384677280E+03  0.22129993940E+03  0.00000000000E+00 0. -1.
         -5    1    5    5    0  502  0.15463801210E+03  0.51132278661E+02  0.11638550323E+03  0.20023760903E+03  0.47000000000E+01 0.  1.
         13    1    6    6    0    0  0.36903605516E+02 -0.97468720530E+01 -0.16778572245E+02  0.41694101519E+02  0.00000000000E+00 0. -1.
        -14    1    6    6    0    0 -0.11738277821E+02 -0.11495186642E+02  0.43888586268E+02  0.46862932972E+02  0.00000000000E+00 0.  1.
</event>
<event>
12    1  0.8226261E-002  0.2255897E+03  0.7818608E-02  0.1130517E+00
         21   -1    0    0  501  502  0.00000000000E+00  0.00000000000E+00  0.63489504665E+03  0.63489504665E+03  0.00000000000E+00 0.  1.
         21   -1    0    0  502  503 -0.00000000000E+00 -0.00000000000E+00 -0.97438170027E+02  0.97438170027E+02  0.00000000000E+00 0.  1.
         -6    2    1    2    0  503  0.11286871877E+03 -0.82672106131E+02  0.10633865707E+03  0.24575984263E+03  0.17180211132E+03 0.  0.
        -24    2    3    3    0    0  0.86033096518E+02 -0.34877493322E+02  0.13652450343E+03  0.18300834101E+03  0.78961887033E+02 0.  0.
          6    2    1    2  501    0 -0.11286871877E+03  0.82672106131E+02  0.43111821955E+03  0.48657337404E+03  0.17696526295E+03 0.  0.
         24    2    5    5    0    0 -0.12169112617E+03  0.77850576372E+02  0.21984130603E+03  0.27500516705E+03  0.80176054024E+02 0.  0.
          5    1    5    5  501    0  0.88224074021E+01  0.48215297593E+01  0.21127691352E+03  0.21156820699E+03  0.47000000000E+01 0. -1.
        -11    1    6    6    0    0 -0.10970133909E+03  0.83601187127E+02  0.22217365272E+03  0.26150463523E+03  0.00000000000E+00 0.  1.
         12    1    6    6    0    0 -0.11989787083E+02 -0.57506107554E+01 -0.23323466872E+01  0.13500531820E+02  0.00000000000E+00 0. -1.
         -5    1    3    3    0  503  0.26835622253E+02 -0.47794612809E+02 -0.30185846364E+02  0.62751501624E+02  0.47000000000E+01 0.  1.
         13    1    4    4    0    0  0.88559397998E+02 -0.17522101063E+01  0.96385891843E+02  0.13090484086E+03  0.00000000000E+00 0. -1.
        -14    1    4    4    0    0 -0.25263014804E+01 -0.33125283216E+02  0.40138611591E+02  0.52103500149E+02  0.00000000000E+00 0.  1.
</event>
<event>
12    1  0.8226261E-002  0.2032974E+03  0.7818608E-02  0.1147241E+00
         21   -1    0    0  501  502  0.00000000000E+00  0.00000000000E+00  0.85954801958E+02  0.85954801958E+02  0.00000000000E+00 0. -1.
         21   -1    0    0  502  503 -0.00000000000E+00 -0.00000000000E+00 -0.63197686470E+03  0.63197686470E+03  0.00000000000E+00 0. -1.
         -6    2    1    2    0  503 -0.10409544754E+03  0.31969049911E+02 -0.45085944084E+03  0.49457464448E+03  0.17167399692E+03 0.  0.
        -24    2    3    3    0    0 -0.11731316193E+03 -0.18383647038E+02 -0.28680357128E+03  0.32239299505E+03  0.87066746335E+02 0.  0.
          6    2    1    2  501    0  0.10409544754E+03 -0.31969049911E+02 -0.95162621903E+02  0.22335702218E+03  0.17021913053E+03 0.  0.
         24    2    5    5    0    0  0.40996948204E+02 -0.31064512806E+02 -0.12555298363E+03  0.15315799874E+03  0.71049751313E+02 0.  0.
          5    1    5    5  501    0  0.63098499332E+02 -0.90453710530E+00  0.30390361729E+02  0.70199023436E+02  0.47000000000E+01 0. -1.
        -13    1    6    6    0    0  0.34701682206E+01  0.15646286595E+02 -0.68754156131E+02  0.70597325282E+02  0.00000000000E+00 0.  1.
         14    1    6    6    0    0  0.37526779984E+02 -0.46710799401E+02 -0.56798827501E+02  0.82560673460E+02  0.00000000000E+00 0. -1.
         -5    1    3    3    0  503  0.13217714396E+02  0.50352696950E+02 -0.16405586955E+03  0.17218164943E+03  0.47000000000E+01 0.  1.
         13    1    4    4    0    0 -0.57138058831E+02  0.25946108376E+02 -0.18999298622E+03  0.20008821334E+03  0.00000000000E+00 0. -1.
        -14    1    4    4    0    0 -0.60175103102E+02 -0.44329755414E+02 -0.96810585065E+02  0.12230478171E+03  0.00000000000E+00 0.  1.
</event>
<event>
12    1  0.8226261E-002  0.1997219E+03  0.7818608E-02  0.1150071E+00
         21   -1    0    0  501  502  0.00000000000E+00  0.00000000000E+00  0.46802816095E+03  0.46802816095E+03  0.00000000000E+00 0. -1.
         21   -1    0    0  502  503 -0.00000000000E+00 -0.00000000000E+00 -0.10510185053E+03  0.10510185053E+03  0.00000000000E+00 0. -1.
         -6    2    1    2    0  503  0.21386629203E+01  0.92742540008E+02  0.56072116288E+02  0.20700389237E+03  0.17635412279E+03 0.  0.
        -24    2    3    3    0    0 -0.27323521880E+02  0.10255877641E+03  0.89067490227E+02  0.16144992951E+03  0.82874510302E+02 0.  0.
          6    2    1    2  501    0 -0.21386629203E+01 -0.92742540008E+02  0.30685419413E+03  0.36612611912E+03  0.17687025198E+03 0.  0.
         24    2    5    5    0    0  0.27624775613E+02  0.14205661822E+02  0.15690326275E+03  0.17949506069E+03  0.81454980782E+02 0.  0.
          5    1    5    5  501    0 -0.29763438533E+02 -0.10694820183E+03  0.14995093138E+03  0.18663105843E+03  0.47000000000E+01 0. -1.
        -11    1    6    6    0    0 -0.21342769260E+02  0.33098083262E+01  0.10543162465E+03  0.10762107650E+03  0.00000000000E+00 0.  1.
         12    1    6    6    0    0  0.48967544873E+02  0.10895853495E+02  0.51471638104E+02  0.71873984191E+02  0.00000000000E+00 0. -1.
         -5    1    3    3    0  503  0.29462184800E+02 -0.98162364029E+01 -0.32995373939E+02  0.45553962854E+02  0.47000000000E+01 0.  1.
         11    1    4    4    0    0  0.17592375422E+02  0.72577418649E+02  0.74569416172E+02  0.10553469192E+03  0.00000000000E+00 0. -1.
        -12    1    4    4    0    0 -0.44915897302E+02  0.29981357761E+02  0.14498074055E+02  0.55915237592E+02  0.00000000000E+00 0.  1.
</event>
<event>
12    1  0.8226261E-002  0.2306317E+03  0.7818608E-02  0.1126458E+00
         21   -1    0    0  501  502  0.00000000000E+00  0.00000000000E+00  0.32037771415E+03  0.32037771415E+03  0.00000000000E+00 0. -1.
         21   -1    0    0  502  503 -0.00000000000E+00 -0.00000000000E+00 -0.24236207158E+03  0.24236207158E+03  0.00000000000E+00 0. -1.
         -6    2    1    2    0  503  0.10153039154E+03  0.11461099146E+03 -0.11992078194E+03  0.25994608973E+03  0.17247282643E+03 0.  0.
        -24    2    3    3    0    0  0.98598436335E+02  0.88028020389E+02 -0.15320120014E+03  0.21699347691E+03  0.78389905452E+02 0.  0.
          6    2    1    2  501    0 -0.10153039154E+03 -0.11461099146E+03  0.19793642450E+03  0.30279369601E+03  0.17047314869E+03 0.  0.
         24    2    5    5    0    0 -0.53383663140E+02 -0.10701614468E+03  0.89878242307E+02  0.18415790928E+03  0.10739537419E+03 0.  0.
          5    1    5    5  501    0 -0.48146728401E+02 -0.75948467866E+01  0.10805818220E+03  0.11863578673E+03  0.47000000000E+01 0. -1.
        -13    1    6    6    0    0  0.29677726734E+02 -0.40970623744E+02  0.49024076068E+02  0.70446572014E+02  0.00000000000E+00 0.  1.
         14    1    6    6    0    0 -0.83061389874E+02 -0.66045520932E+02  0.40854166239E+02  0.11371133726E+03  0.00000000000E+00 0. -1.
         -5    1    3    3    0  503  0.29319552066E+01  0.26582971073E+02  0.33280418203E+02  0.42952612821E+02  0.47000000000E+01 0.  1.
         11    1    4    4    0    0  0.64811552256E+02  0.97335285391E+02 -0.13054810042E+03  0.17526409105E+03  0.00000000000E+00 0. -1.
        -12    1    4    4    0    0  0.33786884078E+02 -0.93072650018E+01 -0.22653099717E+02  0.41729385861E+02  0.00000000000E+00 0.  1.
</event>
<event>
12    1  0.8226261E-002  0.2292809E+03  0.7818608E-02  0.1127261E+00
         21   -1    0    0  503  502  0.00000000000E+00  0.00000000000E+00  0.66279873548E+03  0.66279873548E+03  0.00000000000E+00 0. -1.
         21   -1    0    0  501  503 -0.00000000000E+00 -0.00000000000E+00 -0.84941062484E+02  0.84941062484E+02  0.00000000000E+00 0. -1.
          6    2    1    2  501    0  0.73588372134E+02 -0.13353929255E+03  0.38740808779E+03  0.45017189561E+03  0.17123585474E+03 0.  0.
         24    2    3    3    0    0  0.10514597082E+03 -0.63830763605E+02  0.30077226109E+03  0.33448690302E+03  0.79293717844E+02 0.  0.
         -6    2    1    2    0  502 -0.73588372134E+02  0.13353929255E+03  0.19044958521E+03  0.29756790235E+03  0.17037494192E+03 0.  0.
        -24    2    5    5    0    0 -0.20755036834E+01  0.13326357472E+03  0.11857259087E+03  0.19606638173E+03  0.81357720438E+02 0.  0.
          5    1    3    3  501    0 -0.31557598689E+02 -0.69708528946E+02  0.86635826694E+02  0.11568499259E+03  0.47000000000E+01 0. -1.
        -11    1    4    4    0    0  0.46156490090E+02 -0.58757240699E+01  0.19363495629E+03  0.19914678508E+03  0.00000000000E+00 0.  1.
         12    1    4    4    0    0  0.58989480733E+02 -0.57955039535E+02  0.10713730480E+03  0.13534011794E+03  0.00000000000E+00 0. -1.
         -5    1    5    5    0  502 -0.71512868450E+02  0.27571783291E+00  0.71876994333E+02  0.10150152062E+03  0.47000000000E+01 0.  1.
         13    1    6    6    0    0 -0.39529426222E+02  0.88173902391E+02  0.83849734761E+02  0.12793744807E+03  0.00000000000E+00 0. -1.
        -14    1    6    6    0    0  0.37453922538E+02  0.45089672328E+02  0.34722856113E+02  0.68128933653E+02  0.00000000000E+00 0.  1.
</event>
<event>
12    1  0.8226261E-002  0.1882505E+03  0.7818608E-02  0.1160535E+00
         21   -1    0    0  501  502  0.00000000000E+00  0.00000000000E+00  0.31585953079E+03  0.31585953079E+03  0.00000000000E+00 0.  1.
         21   -1    0    0  502  503 -0.00000000000E+00 -0.00000000000E+00 -0.12363227026E+03  0.12363227026E+03  0.00000000000E+00 0.  1.
         -6    2    1    2    0  503 -0.14866361112E+01  0.71882061521E+02  0.25208708595E+02  0.18783045774E+03  0.17168448098E+03 0.  0.
        -24    2    3    3    0    0 -0.40822178661E+02  0.10358297017E+03  0.55401877184E+01  0.13341379457E+03  0.73298464649E+02 0.  0.
          6    2    1    2  501    0  0.14866361112E+01 -0.71882061521E+02  0.16701855194E+03  0.25166134331E+03  0.17397986714E+03 0.  0.
         24    2    5    5    0    0 -0.60382986426E+02 -0.27525174606E+02  0.13207652591E+03  0.16776605862E+03  0.79356798338E+02 0.  0.
          5    1    5    5  501    0  0.61869622537E+02 -0.44356886915E+02  0.34942026026E+02  0.83895284686E+02  0.47000000000E+01 0. -1.
        -13    1    6    6    0    0  0.95856694572E+01 -0.16840619067E+02  0.17458983189E+01  0.19456095971E+02  0.00000000000E+00 0.  1.
         14    1    6    6    0    0 -0.69968655883E+02 -0.10684555539E+02  0.13033062759E+03  0.14830996265E+03  0.00000000000E+00 0. -1.
         -5    1    3    3    0  503  0.39335542550E+02 -0.31700908653E+02  0.19668520877E+02  0.54416663170E+02  0.47000000000E+01 0.  1.
         11    1    4    4    0    0 -0.72263147117E+01 -0.23326942365E+01 -0.18261157229E+02  0.19777030870E+02  0.00000000000E+00 0. -1.
        -12    1    4    4    0    0 -0.33595863949E+02  0.10591566441E+03  0.23801344947E+02  0.11363676370E+03  0.00000000000E+00 0.  1.
</event>
<event>
12    1  0.8226261E-002  0.1751757E+03  0.7818608E-02  0.1172828E+00
         21   -1    0    0  503  502  0.00000000000E+00  0.00000000000E+00  0.17046049709E+03  0.17046049709E+03  0.00000000000E+00 0.  1.
         21   -1    0    0  501  503 -0.00000000000E+00 -0.00000000000E+00 -0.17891320887E+03  0.17891320887E+03  0.00000000000E+00 0.  1.
          6    2    1    2  501    0 -0.23534394134E+02 -0.22729273506E+02 -0.34586392402E+01  0.17412686412E+03  0.17099039459E+03 0.  0.
         24    2    3    3    0    0 -0.16348897175E+02 -0.32496283353E+02  0.62248338719E+02  0.10714535324E+03  0.79258918591E+02 0.  0.
         -6    2    1    2    0  502  0.23534394134E+02  0.22729273506E+02 -0.49940725428E+01  0.17524684184E+03  0.17209307724E+03 0.  0.
        -24    2    5    5    0    0 -0.57852244687E+02 -0.64470622500E+01  0.23118718064E+02  0.84211340295E+02  0.56290566548E+02 0.  0.
          5    1    3    3  501    0 -0.71854969593E+01  0.97670098475E+01 -0.65706977959E+02  0.66981510885E+02  0.47000000000E+01 0. -1.
        -11    1    4    4    0    0 -0.47197933654E+02 -0.11063562003E+02  0.26299706102E+02  0.55151807644E+02  0.00000000000E+00 0.  1.
         12    1    4    4    0    0  0.30849036479E+02 -0.21432721351E+02  0.35948632617E+02  0.51993545592E+02  0.00000000000E+00 0. -1.
         -5    1    5    5    0  502  0.81386638821E+02  0.29176335756E+02 -0.28112790606E+02  0.91035501550E+02  0.47000000000E+01 0.  1.
         11    1    6    6    0    0 -0.64173034410E+02  0.52043680599E+01  0.92811674527E+01  0.65049241821E+02  0.00000000000E+00 0. -1.
        -12    1    6    6    0    0  0.63207897228E+01 -0.11651430310E+02  0.13837550611E+02  0.19162098473E+02  0.00000000000E+00 0.  1.
</event>
<event>
12    1  0.8226261E-002  0.2061913E+03  0.7818608E-02  0.1144769E+00
         21   -1    0    0  503  502  0.00000000000E+00  0.00000000000E+00  0.59707176972E+03  0.59707176972E+03  0.00000000000E+00 0.  1.
         21   -1    0    0  501  503 -0.00000000000E+00 -0.00000000000E+00 -0.14489157655E+03  0.14489157655E+03  0.00000000000E+00 0.  1.
          6    2    1    2  501    0  0.83558262923E+01  0.11240529349E+03 -0.39127431684E+02  0.20914252447E+03  0.17176981630E+03 0.  0.
         24    2    3    3    0    0 -0.47908441180E+02  0.43919587741E+02 -0.57713320234E+02  0.11845909191E+03  0.80483415691E+02 0.  0.
         -6    2    1    2    0  502 -0.83558262923E+01 -0.11240529349E+03  0.49130762486E+03  0.53282082180E+03  0.17265594708E+03 0.  0.
        -24    2    5    5    0    0 -0.73569398031E+02 -0.68879651460E+02  0.32671210826E+03  0.35044465686E+03  0.76901190686E+02 0.  0.
          5    1    3    3  501    0  0.56264267472E+02  0.68485705752E+02  0.18585888550E+02  0.90683432553E+02  0.47000000000E+01 0. -1.
        -13    1    4    4    0    0  0.17200055570E+02  0.27029484952E+02 -0.35035460742E+02  0.47475451318E+02  0.00000000000E+00 0.  1.
         14    1    4    4    0    0 -0.65108496750E+02  0.16890102789E+02 -0.22677859492E+02  0.70983640597E+02  0.00000000000E+00 0. -1.
         -5    1    5    5    0  502  0.65213571738E+02 -0.43525642033E+02  0.16459551660E+03  0.18237616494E+03  0.47000000000E+01 0.  1.
         13    1    6    6    0    0  0.55323776017E+01 -0.30410426344E+02  0.40046459505E+02  0.50587747046E+02  0.00000000000E+00 0. -1.
        -14    1    6    6    0    0 -0.79101775632E+02 -0.38469225116E+02  0.28666564875E+03  0.29985690981E+03  0.00000000000E+00 0.  1.
</event>
<event>
12    1  0.8226261E-002  0.2170002E+03  0.7818608E-02  0.1136208E+00
         21   -1    0    0  503  502  0.00000000000E+00  0.00000000000E+00  0.69105251875E+02  0.69105251875E+02  0.00000000000E+00 0.  1.
         21   -1    0    0  501  503 -0.00000000000E+00 -0.00000000000E+00 -0.22305241157E+04  0.22305241157E+04  0.00000000000E+00 0.  1.
          6    2    1    2  501    0 -0.13120284988E+03 -0.39354472994E+00 -0.20395554357E+04  0.20510669042E+04  0.17284307212E+03 0.  0.
         24    2    3    3    0    0 -0.13230677622E+03 -0.12488037819E+02 -0.20272971842E+04  0.20331825494E+04  0.78970704146E+02 0.  0.
         -6    2    1    2    0  502  0.13120284988E+03  0.39354472994E+00 -0.12186342819E+03  0.24856246343E+03  0.17238985005E+03 0.  0.
        -24    2    5    5    0    0  0.65770848986E+02 -0.35229140405E+01 -0.14450364285E+03  0.17905451633E+03  0.82710347122E+02 0.  0.
          5    1    3    3  501    0  0.11039263459E+01  0.12094493090E+02 -0.12258251515E+02  0.17884354802E+02  0.47000000000E+01 0. -1.
        -11    1    4    4    0    0 -0.31988470424E+02  0.26170166088E+02 -0.84405975597E+03  0.84507100973E+03  0.00000000000E+00 0.  1.
         12    1    4    4    0    0 -0.10031830580E+03 -0.38658203908E+02 -0.11832374282E+04  0.11881115397E+04  0.00000000000E+00 0. -1.
         -5    1    5    5    0  502  0.65432000889E+02  0.39164587704E+01  0.22640214660E+02  0.69507947096E+02  0.47000000000E+01 0.  1.
         11    1    6    6    0    0  0.37260215964E+02  0.29433684001E+02 -0.29084404911E+02  0.55682744694E+02  0.00000000000E+00 0. -1.
        -12    1    6    6    0    0  0.28510633022E+02 -0.32956598042E+02 -0.11541923794E+03  0.12337177164E+03  0.00000000000E+00 0.  1.
</event>
<event>
12    1  0.8226261E-002  0.1902128E+03  0.7818608E-02  0.1158809E+00
         21   -1    0    0  503  502  0.00000000000E+00  0.00000000000E+00  0.40798213806E+03  0.40798213806E+03  0.00000000000E+00 0.  1.
         21   -1    0    0  501  503 -0.00000000000E+00 -0.00000000000E+00 -0.28341583969E+03  0.28341583969E+03  0.00000000000E+00 0.  1.
          6    2    1    2  501    0 -0.72312663203E+02 -0.17186917591E+02 -0.22496080260E+03  0.29459847524E+03  0.17508965563E+03 0.  0.
         24    2    3    3    0    0 -0.86161457445E+02  0.43515236239E+02 -0.16822149134E+03  0.21023035315E+03  0.81123108320E+02 0.  0.
         -6    2    1    2    0  502  0.72312663203E+02  0.17186917591E+02  0.34952710097E+03  0.39679950251E+03  0.17249967966E+03 0.  0.
        -24    2    5    5    0    0  0.73402768720E+02 -0.31888647428E+02  0.31948755983E+03  0.33905815300E+03  0.80518804855E+02 0.  0.
          5    1    3    3  501    0  0.13848794242E+02 -0.60702153831E+02 -0.56739311258E+02  0.84368122082E+02  0.47000000000E+01 0. -1.
        -13    1    4    4    0    0 -0.51780734010E+02  0.55951744718E+02 -0.15237725269E+03  0.17038388799E+03  0.00000000000E+00 0.  1.
         14    1    4    4    0    0 -0.34380723435E+02 -0.12436508479E+02 -0.15844238655E+02  0.39846465158E+02  0.00000000000E+00 0. -1.
         -5    1    5    5    0  502 -0.10901055174E+01  0.49075565019E+02  0.30039541142E+02  0.57741349517E+02  0.47000000000E+01 0.  1.
         11    1    6    6    0    0 -0.13186610642E+02 -0.83910652395E+01  0.15136702052E+02  0.21758134688E+02  0.00000000000E+00 0. -1.
        -12    1    6    6    0    0  0.86589379362E+02 -0.23497582188E+02  0.30435085778E+03  0.31730001831E+03  0.00000000000E+00 0.  1.
</event>
<event>
12    1  0.8226261E-002  0.2130628E+03  0.7818608E-02  0.1139327E+00
         21   -1    0    0  503  502  0.00000000000E+00  0.00000000000E+00  0.26958776128E+02  0.26958776128E+02  0.00000000000E+00 0.  1.
         21   -1    0    0  501  503 -0.00000000000E+00 -0.00000000000E+00 -0.21962556917E+04  0.21962556917E+04  0.00000000000E+00 0.  1.
          6    2    1    2  501    0  0.12086608621E+03 -0.32348826707E+02 -0.16233852711E+04  0.16371980340E+04  0.17141355446E+03 0.  0.
         24    2    3    3    0    0  0.14312037652E+03  0.73419432840E+01 -0.13647433365E+04  0.13745416977E+04  0.79392429470E+02 0.  0.
         -6    2    1    2    0  502 -0.12086608621E+03  0.32348826707E+02 -0.54591164449E+03  0.58601643387E+03  0.17245486305E+03 0.  0.
        -24    2    5    5    0    0  0.86012731215E+01  0.19370298984E+02 -0.22111766956E+03  0.23609722110E+03  0.79998022709E+02 0.  0.
          5    1    3    3  501    0 -0.22254290308E+02 -0.39690769991E+02 -0.25864193463E+03  0.26265633632E+03  0.47000000000E+01 0. -1.
        -13    1    4    4    0    0  0.51590298998E+02  0.40672898568E+02 -0.61425228732E+03  0.61775538533E+03  0.00000000000E+00 0.  1.
         14    1    4    4    0    0  0.91530077519E+02 -0.33330955284E+02 -0.75049104917E+03  0.75678631234E+03  0.00000000000E+00 0. -1.
         -5    1    5    5    0  502 -0.12946735933E+03  0.12978527723E+02 -0.32479397493E+03  0.34991921277E+03  0.47000000000E+01 0.  1.
         11    1    6    6    0    0 -0.45476808479E+01  0.34789833611E+02 -0.21014250370E+03  0.21305136889E+03  0.00000000000E+00 0. -1.
        -12    1    6    6    0    0  0.13148953969E+02 -0.15419534626E+02 -0.10975165863E+02  0.23045852215E+02  0.00000000000E+00 0.  1.
</event>
<event>
12    1  0.8226261E-002  0.2275640E+03  0.7818608E-02  0.1129352E+00
         21   -1    0    0  501  502  0.00000000000E+00  0.00000000000E+00  0.69018799559E+02  0.69018799559E+02  0.00000000000E+00 0. -1.
         21   -1    0    0  502  503 -0.00000000000E+00 -0.00000000000E+00 -0.17069671383E+04  0.17069671383E+04  0.00000000000E+00 0. -1.
         -6    2    1    2    0  503  0.99877109448E+02  0.10207275778E+03 -0.14941746634E+04  0.15114044149E+04  0.17717532548E+03 0.  0.
        -24    2    3    3    0    0  0.13340735593E+03  0.64099900494E+02 -0.12946439369E+04  0.13054898304E+04  0.79337595492E+02 0.  0.
          6    2    1    2  501    0 -0.99877109448E+02 -0.10207275778E+03 -0.14377367536E+03  0.26458152291E+03  0.17011239716E+03 0.  0.
         24    2    5    5    0    0 -0.10194182763E+03 -0.53776648418E+02 -0.33852514237E+02  0.14440861039E+03  0.80148548950E+02 0.  0.
          5    1    5    5  501    0  0.20647181862E+01 -0.48296109364E+02 -0.10992116112E+03  0.12017291252E+03  0.47000000000E+01 0. -1.
        -11    1    6    6    0    0 -0.18315613977E+02 -0.46663354601E+01 -0.43027068722E+02  0.46995372589E+02  0.00000000000E+00 0.  1.
         12    1    6    6    0    0 -0.83626213657E+02 -0.49110312957E+02  0.91745544843E+01  0.97413237804E+02  0.00000000000E+00 0. -1.
         -5    1    3    3    0  503 -0.33530246485E+02  0.37972857288E+02 -0.19953072646E+03  0.20591458453E+03  0.47000000000E+01 0.  1.
         13    1    4    4    0    0  0.10750725609E+03  0.19831137498E+02 -0.10401534094E+04  0.10458824978E+04  0.00000000000E+00 0. -1.
        -14    1    4    4    0    0  0.25900099845E+02  0.44268762996E+02 -0.25449052752E+03  0.25960733262E+03  0.00000000000E+00 0.  1.
</event>
<event>
12    1  0.8226261E-002  0.2297947E+03  0.7818608E-02  0.1128467E+00
         21   -1    0    0  503  502  0.00000000000E+00  0.00000000000E+00  0.99571184046E+02  0.99571184046E+02  0.00000000000E+00 0. -1.
         21   -1    0    0  501  503 -0.00000000000E+00 -0.00000000000E+00 -0.68056429634E+03  0.68056429634E+03  0.00000000000E+00 0. -1.
          6    2    1    2  501    0 -0.10041644939E+03 -0.95758788128E+02 -0.49083086641E+03  0.54195988917E+03  0.18317306909E+03 0.  0.
         24    2    3    3    0    0 -0.54474813074E+01  0.60830127763E+01 -0.10778535827E+03  0.13436105623E+03  0.79803081874E+02 0.  0.
         -6    2    1    2    0  502  0.10041644939E+03  0.95758788128E+02 -0.90162245884E+02  0.23817559121E+03  0.17130432819E+03 0.  0.
        -24    2    5    5    0    0  0.51118694523E+01  0.90445089088E+02 -0.74707668884E+02  0.14136581741E+03  0.78718569551E+02 0.  0.
          5    1    3    3  501    0 -0.94968968080E+02 -0.10184180090E+03 -0.38304550814E+03  0.40759883294E+03  0.47000000000E+01 0. -1.
        -13    1    4    4    0    0  0.12346104769E+02 -0.33508494509E+02 -0.37742933512E+02  0.51959354666E+02  0.00000000000E+00 0.  1.
         14    1    4    4    0    0 -0.17793586077E+02  0.39591507285E+02 -0.70042424754E+02  0.82401701560E+02  0.00000000000E+00 0. -1.
         -5    1    5    5    0  502  0.95304579935E+02  0.53136990403E+01 -0.15454577000E+02  0.96809773806E+02  0.47000000000E+01 0.  1.
         11    1    6    6    0    0 -0.47195068414E+01  0.10201664365E+03 -0.74087533711E+02  0.12616906110E+03  0.00000000000E+00 0. -1.
        -12    1    6    6    0    0  0.98313762936E+01 -0.11571554562E+02 -0.62013517315E+00  0.15196756313E+02  0.00000000000E+00 0.  1.
</event>
<event>
12    1  0.8226261E-002  0.2890804E+03  0.7818608E-02  0.1090845E+00
         21   -1    0    0  503  502  0.00000000000E+00  0.00000000000E+00  0.29604056129E+03  0.29604056129E+03  0.00000000000E+00 0. -1.
         21   -1    0    0  501  503 -0.00000000000E+00 -0.00000000000E+00 -0.37587019757E+03  0.37587019757E+03  0.00000000000E+00 0.  1.
          6    2    1    2  501    0  0.18343674600E+03  0.14292581127E+03 -0.20764085416E+03  0.35583609486E+03  0.17154525578E+03 0.  0.
         24    2    3    3    0    0  0.11144979882E+03  0.10554114374E+03 -0.21250925769E+03  0.27443876515E+03  0.81218597209E+02 0.  0.
         -6    2    1    2    0  502 -0.18343674600E+03 -0.14292581127E+03  0.12781121788E+03  0.31607466399E+03  0.17172844403E+03 0.  0.
        -24    2    5    5    0    0 -0.85478617542E+02 -0.12793980256E+03  0.12511711788E+03  0.21682889046E+03  0.87665771060E+02 0.  0.
          5    1    3    3  501    0  0.71986947182E+02  0.37384667532E+02  0.48684035370E+01  0.81397329711E+02  0.47000000000E+01 0. -1.
        -11    1    4    4    0    0  0.37745696706E+02  0.26163368044E+02 -0.13117508284E+03  0.13898259533E+03  0.00000000000E+00 0.  1.
         12    1    4    4    0    0  0.73704102113E+02  0.79377775696E+02 -0.81334174857E+02  0.13545616982E+03  0.00000000000E+00 0. -1.
         -5    1    5    5    0  502 -0.97958128460E+02 -0.14986008708E+02  0.26941000016E+01  0.99245773528E+02  0.47000000000E+01 0.  1.
         11    1    6    6    0    0 -0.89726348603E+00 -0.73770990929E+02  0.34067406998E+02  0.81262244641E+02  0.00000000000E+00 0. -1.
        -12    1    6    6    0    0 -0.84581354056E+02 -0.54168811636E+02  0.91049710877E+02  0.13556664582E+03  0.00000000000E+00 0.  1.
</event>
<event>
12    1  0.8226261E-002  0.1947445E+03  0.7818608E-02  0.1154379E+00
         21   -1    0    0  501  502  0.00000000000E+00  0.00000000000E+00  0.25938726292E+03  0.25938726292E+03  0.00000000000E+00 0. -1.
         21   -1    0    0  502  503 -0.00000000000E+00 -0.00000000000E+00 -0.14706031107E+03  0.14706031107E+03  0.00000000000E+00 0. -1.
         -6    2    1    2    0  503  0.81303374108E+02  0.40082654706E+02  0.75268170408E+02  0.20878388178E+03  0.17236169518E+03 0.  0.
        -24    2    3    3    0    0  0.10120526113E+03  0.71953953737E+01  0.99512711521E+02  0.16309422532E+03  0.80016673154E+02 0.  0.
          6    2    1    2  501    0 -0.81303374108E+02 -0.40082654706E+02  0.37058781445E+02  0.19766369222E+03  0.17169951686E+03 0.  0.
         24    2    5    5    0    0 -0.87401152417E+02 -0.69049282613E+02  0.69561750348E+02  0.15345078211E+03  0.79382243264E+02 0.  0.
          5    1    5    5  501    0  0.60977783091E+01  0.28966627907E+02 -0.32502968903E+02  0.44212910107E+02  0.47000000000E+01 0. -1.
        -11    1    6    6    0    0  0.15682343155E+01  0.11257493165E+02 -0.48708483828E+01  0.12365907779E+02  0.00000000000E+00 0.  1.
         12    1    6    6    0    0 -0.88969386732E+02 -0.80306775778E+02  0.74432598731E+02  0.14108487433E+03  0.00000000000E+00 0. -1.
         -5    1    3    3    0  503 -0.19901887026E+02  0.32887259333E+02 -0.24244541113E+02  0.45689656460E+02  0.47000000000E+01 0.  1.
         11    1    4    4    0    0  0.53522186477E+02  0.30701260724E+02  0.15409142692E+02  0.63597433390E+02  0.00000000000E+00 0. -1.
        -12    1    4    4    0    0  0.47683074657E+02 -0.23505865350E+02  0.84103568829E+02  0.99496791930E+02  0.00000000000E+00 0.  1.
</event>
<event>
12    1  0.8226261E-002  0.2610110E+03  0.7818608E-02  0.1108436E+00
         21   -1    0    0  503  502  0.00000000000E+00  0.00000000000E+00  0.12245309977E+03  0.12245309977E+03  0.00000000000E+00 0. -1.
         21   -1    0    0  501  503 -0.00000000000E+00 -0.00000000000E+00 -0.55662550200E+03  0.55662550200E+03  0.00000000000E+00 0.  1.
          6    2    1    2  501    0  0.16371392818E+03  0.10269116086E+03 -0.14825136415E+03  0.30017532528E+03  0.17543954553E+03 0.  0.
         24    2    3    3    0    0  0.99771517400E+02 -0.84616242065E+01 -0.43991415199E+02  0.13483990718E+03  0.78870787928E+02 0.  0.
         -6    2    1    2    0  502 -0.16371392818E+03 -0.10269116086E+03 -0.28592103808E+03  0.37890327650E+03  0.15642611075E+03 0.  0.
        -24    2    5    5    0    0 -0.18308125381E+03 -0.10762682903E+03 -0.24939393758E+03  0.33700132913E+03  0.79185099021E+02 0.  0.
          5    1    3    3  501    0  0.63942410781E+02  0.11115278506E+03 -0.10425994895E+03  0.16533541810E+03  0.47000000000E+01 0. -1.
        -11    1    4    4    0    0  0.34214235803E+02 -0.11694194794E+02 -0.57408034813E+02  0.67845785311E+02  0.00000000000E+00 0.  1.
         12    1    4    4    0    0  0.65557281597E+02  0.32325705879E+01  0.13416619613E+02  0.66994121868E+02  0.00000000000E+00 0. -1.
         -5    1    5    5    0  502  0.19367325631E+02  0.49356681752E+01 -0.36527100495E+02  0.41901947366E+02  0.47000000000E+01 0.  1.
         11    1    6    6    0    0 -0.10907787478E+03 -0.22607965796E+02 -0.98805595783E+02  0.14890147294E+03  0.00000000000E+00 0. -1.
        -12    1    6    6    0    0 -0.74003379029E+02 -0.85018863237E+02 -0.15058834180E+03  0.18809985619E+03  0.00000000000E+00 0.  1.
</event>
<event>
12    1  0.8226261E-002  0.2140954E+03  0.7818608E-02  0.1138470E+00
         21   -1    0    0  501  502  0.00000000000E+00  0.00000000000E+00  0.49177258581E+03  0.49177258581E+03  0.00000000000E+00 0. -1.
         21   -1    0    0  502  503 -0.00000000000E+00 -0.00000000000E+00 -0.10387429567E+03  0.10387429567E+03  0.00000000000E+00 0. -1.
         -6    2    1    2    0  503 -0.16752304472E+02 -0.12572460630E+03  0.29023184157E+03  0.36032673206E+03  0.17179498141E+03 0.  0.
        -24    2    3    3    0    0  0.49625440698E+02 -0.45565422762E+02  0.19744826736E+03  0.22081909283E+03  0.72362706963E+02 0.  0.
          6    2    1    2  501    0  0.16752304472E+02  0.12572460630E+03  0.97666448562E+02  0.23532014942E+03  0.17248049516E+03 0.  0.
         24    2    5    5    0    0  0.58366312512E+02  0.74765245244E+02  0.11545689431E+02  0.12684223785E+03  0.83421711955E+02 0.  0.
          5    1    5    5  501    0 -0.41614008040E+02  0.50959361059E+02  0.86120759131E+02  0.10847791157E+03  0.47000000000E+01 0. -1.
        -13    1    6    6    0    0  0.62466679004E+02  0.15610693114E+02 -0.68667446650E+01  0.64752852505E+02  0.00000000000E+00 0.  1.
         14    1    6    6    0    0 -0.41003664920E+01  0.59154552129E+02  0.18412434096E+02  0.62089385344E+02  0.00000000000E+00 0. -1.
         -5    1    3    3    0  503 -0.66377745170E+02 -0.80159183540E+02  0.92783574214E+02  0.13950763923E+03  0.47000000000E+01 0.  1.
         11    1    4    4    0    0  0.39133540497E+02 -0.61365389511E+02  0.11407211406E+03  0.13531294183E+03  0.00000000000E+00 0. -1.
        -12    1    4    4    0    0  0.10491900201E+02  0.15799966749E+02  0.83376153300E+02  0.85506150996E+02  0.00000000000E+00 0.  1.
</event>
<event>
12    1  0.8226261E-002  0.1787575E+03  0.7818608E-02  0.1169043E+00
         21   -1    0    0  501  502  0.00000000000E+00  0.00000000000E+00  0.19293597555E+03  0.19293597555E+03  0.00000000000E+00 0. -1.
         21   -1    0    0  502  503 -0.00000000000E+00 -0.00000000000E+00 -0.17519668863E+03  0.17519668863E+03  0.00000000000E+00 0. -1.
         -6    2    1    2    0  503  0.28818481297E+02 -0.36652452871E+02  0.52180766226E+02  0.18621778686E+03  0.17256976738E+03 0.  0.
        -24    2    3    3    0    0 -0.19819865247E+01  0.32845187085E+02  0.54812572130E+02  0.11001012859E+03  0.89526955399E+02 0.  0.
          6    2    1    2  501    0 -0.28818481297E+02  0.36652452871E+02 -0.34441479310E+02  0.18191487732E+03  0.17243230534E+03 0.  0.
         24    2    5    5    0    0 -0.35651095505E+02 -0.90268114804E+01 -0.77655365225E+02  0.11848925359E+03  0.81589604319E+02 0.  0.
          5    1    5    5  501    0  0.68326142081E+01  0.45679264352E+02  0.43213885915E+02  0.63425623722E+02  0.47000000000E+01 0. -1.
        -13    1    6    6    0    0  0.80708124516E+01  0.28256776414E+02 -0.13425381458E+02  0.32308269750E+02  0.00000000000E+00 0.  1.
         14    1    6    6    0    0 -0.43721907957E+02 -0.37283587895E+02 -0.64229983767E+02  0.86180983845E+02  0.00000000000E+00 0. -1.
         -5    1    3    3    0  503  0.30800467822E+02 -0.69497639956E+02 -0.26318059046E+01  0.76207658276E+02  0.47000000000E+01 0.  1.
         11    1    4    4    0    0  0.36365516643E+02  0.28365733899E+02  0.41403837683E+01  0.46305598345E+02  0.00000000000E+00 0. -1.
        -12    1    4    4    0    0 -0.38347503167E+02  0.44794531866E+01  0.50672188362E+02  0.63704530243E+02  0.00000000000E+00 0.  1.
</event>
<event>
12    1  0.8226261E-002  0.3306494E+03  0.7818608E-02  0.1071470E+00
         21   -1    0    0  501  502  0.00000000000E+00  0.00000000000E+00  0.15778485399E+04  0.15778485399E+04  0.00000000000E+00 0. -1.
         21   -1    0    0  502  503 -0.00000000000E+00 -0.00000000000E+00 -0.10600985309E+03  0.10600985309E+03  0.00000000000E+00 0.  1.
         -6    2    1    2    0  503 -0.25347711660E+03  0.10808992278E+03  0.12432071464E+04  0.12864264630E+04  0.18274286859E+03 0.  0.
        -24    2    3    3    0    0 -0.12557965499E+03  0.77566501647E+02  0.95474992340E+03  0.96937899121E+03  0.79758387832E+02 0.  0.
          6    2    1    2  501    0  0.25347711660E+03 -0.10808992278E+03  0.22863154046E+03  0.39743192995E+03  0.17246935264E+03 0.  0.
         24    2    5    5    0    0  0.19367406961E+03 -0.13719272516E+03  0.21397191107E+03  0.32916501066E+03  0.78956547796E+02 0.  0.
          5    1    5    5  501    0  0.59803046989E+02  0.29102802375E+02  0.14659629391E+02  0.68266919288E+02  0.47000000000E+01 0. -1.
        -11    1    6    6    0    0  0.15100525422E+03 -0.89878297190E+02  0.11029003190E+03  0.20747189266E+03  0.00000000000E+00 0.  1.
         12    1    6    6    0    0  0.42668815396E+02 -0.47314427965E+02  0.10368187917E+03  0.12169311800E+03  0.00000000000E+00 0. -1.
         -5    1    3    3    0  503 -0.12789746161E+03  0.30523421133E+02  0.28845722296E+03  0.31704747184E+03  0.47000000000E+01 0.  1.
         13    1    4    4    0    0 -0.78523432307E+02  0.10636660052E+02  0.33457799824E+03  0.34383354238E+03  0.00000000000E+00 0. -1.
        -14    1    4    4    0    0 -0.47056222683E+02  0.66929841595E+02  0.62017192516E+03  0.62554544883E+03  0.00000000000E+00 0.  1.
</event>
<event>
12    1  0.8226261E-002  0.1923825E+03  0.7818608E-02  0.1156424E+00
         21   -1    0    0  503  502  0.00000000000E+00  0.00000000000E+00  0.51406614746E+02  0.51406614746E+02  0.00000000000E+00 0. -1.
         21   -1    0    0  501  503 -0.00000000000E+00 -0.00000000000E+00 -0.10417964284E+04  0.10417964284E+04  0.00000000000E+00 0. -1.
          6    2    1    2  501    0  0.14113931399E+02  0.82859564386E+02 -0.80012240082E+03  0.82292580028E+03  0.17304943224E+03 0.  0.
         24    2    3    3    0    0 -0.16102438073E+02  0.66677585850E+02 -0.24623934127E+03  0.26796326184E+03  0.80407136122E+02 0.  0.
         -6    2    1    2    0  502 -0.14113931399E+02 -0.82859564386E+02 -0.19026741281E+03  0.27027724284E+03  0.17257806684E+03 0.  0.
        -24    2    5    5    0    0 -0.11283458179E+02 -0.10889581287E+03 -0.20051393829E+03  0.24176445451E+03  0.79111298357E+02 0.  0.
          5    1    3    3  501    0  0.30216369472E+02  0.16181978536E+02 -0.55388305955E+03  0.55496253844E+03  0.47000000000E+01 0. -1.
        -13    1    4    4    0    0  0.20694606998E+02  0.38036134165E+02 -0.49469614429E+02  0.65743874336E+02  0.00000000000E+00 0.  1.
         14    1    4    4    0    0 -0.36797045071E+02  0.28641451685E+02 -0.19676972684E+03  0.20221938750E+03  0.00000000000E+00 0. -1.
         -5    1    5    5    0  502 -0.28304732204E+01  0.26036248488E+02  0.10246525481E+02  0.28512788331E+02  0.47000000000E+01 0.  1.
         11    1    6    6    0    0 -0.21711923530E+02 -0.72282851636E+02 -0.60681388763E+02  0.96842393641E+02  0.00000000000E+00 0. -1.
        -12    1    6    6    0    0  0.10428465352E+02 -0.36612961238E+02 -0.13983254953E+03  0.14492206087E+03  0.00000000000E+00 0.  1.
</event>
<event>
12    1  0.8226261E-002  0.1783494E+03  0.7818608E-02  0.1169428E+00
         21   -1    0    0  501  502  0.00000000000E+00  0.00000000000E+00  0.10288228379E+03  0.10288228379E+03  0.00000000000E+00 0.  1.
         21   -1    0    0  502  503 -0.00000000000E+00 -0.00000000000E+00 -0.10011196051E+04  0.10011196051E+04  0.00000000000E+00 0.  1.
         -6    2    1    2    0  503  0.36956363617E+02 -0.31452676785E+02 -0.90804762157E+03  0.92538291556E+03  0.17154595214E+03 0.  0.
        -24    2    3    3    0    0 -0.27658328080E+02 -0.10740782285E+02 -0.73228266366E+03  0.73691686720E+03  0.76994948884E+02 0.  0.
          6    2    1    2  501    0 -0.36956363617E+02  0.31452676785E+02  0.98103002599E+01  0.17861897332E+03  0.17162008026E+03 0.  0.
         24    2    5    5    0    0  0.31726617447E+02 -0.20400178522E+02  0.24287985830E+02  0.91224672184E+02  0.79431033111E+02 0.  0.
          5    1    5    5  501    0 -0.68682981064E+02  0.51852855307E+02 -0.14477685570E+02  0.87394301134E+02  0.47000000000E+01 0. -1.
        -11    1    6    6    0    0  0.11005907182E+02  0.17939345116E+02  0.39753745589E+02  0.44981222577E+02  0.00000000000E+00 0.  1.
         12    1    6    6    0    0  0.20720710265E+02 -0.38339523638E+02 -0.15465759759E+02  0.46243449608E+02  0.00000000000E+00 0. -1.
         -5    1    3    3    0  503  0.64614691697E+02 -0.20711894500E+02 -0.17576495791E+03  0.18846604836E+03  0.47000000000E+01 0.  1.
         13    1    4    4    0    0 -0.47253351119E+02  0.73795715435E+01 -0.60381716235E+03  0.60570826544E+03  0.00000000000E+00 0. -1.
        -14    1    4    4    0    0  0.19595023039E+02 -0.18120353828E+02 -0.12846550131E+03  0.13120860177E+03  0.00000000000E+00 0.  1.
</event>
<event>
12    1  0.8226261E-002  0.2292833E+03  0.7818608E-02  0.1127146E+00
         21   -1    0    0  501  502  0.00000000000E+00  0.00000000000E+00  0.54692782858E+03  0.54692782858E+03  0.00000000000E+00 0. -1.
         21   -1    0    0  502  503 -0.00000000000E+00 -0.00000000000E+00 -0.13185398577E+03  0.13185398577E+03  0.00000000000E+00 0.  1.
         -6    2    1    2    0  503 -0.74532456106E+02  0.13120367291E+03  0.30846723316E+02  0.23134322503E+03  0.17262293194E+03 0.  0.
        -24    2    3    3    0    0 -0.47352360996E+02  0.13324703577E+03  0.72214871940E+02  0.18158032095E+03  0.88087493961E+02 0.  0.
          6    2    1    2  501    0  0.74532456106E+02 -0.13120367291E+03  0.38422711949E+03  0.44743858932E+03  0.17263059135E+03 0.  0.
         24    2    5    5    0    0  0.68570484991E+01 -0.55898230748E+02  0.80421714071E+02  0.12717200541E+03  0.80829669986E+02 0.  0.
          5    1    5    5  501    0  0.67675407607E+02 -0.75305442157E+02  0.30380540542E+03  0.32026658392E+03  0.47000000000E+01 0. -1.
        -13    1    6    6    0    0  0.35028502701E+02 -0.27228546622E+02  0.90793615253E+01  0.45286030499E+02  0.00000000000E+00 0.  1.
         14    1    6    6    0    0 -0.28171454202E+02 -0.28669684126E+02  0.71342352546E+02  0.81885974907E+02  0.00000000000E+00 0. -1.
         -5    1    3    3    0  503 -0.27180095110E+02 -0.20433628660E+01 -0.41368148624E+02  0.49762904081E+02  0.47000000000E+01 0.  1.
         11    1    4    4    0    0  0.87049907361E+01  0.93221397341E+02  0.21553972436E+02  0.96075904959E+02  0.00000000000E+00 0. -1.
        -12    1    4    4    0    0 -0.56057351732E+02  0.40025638430E+02  0.50660899504E+02  0.85504415989E+02  0.00000000000E+00 0.  1.
</event>
<event>
12    1  0.8226261E-002  0.2405136E+03  0.7818608E-02  0.1119534E+00
         21   -1    0    0  501  502  0.00000000000E+00  0.00000000000E+00  0.18166556893E+03  0.18166556893E+03  0.00000000000E+00 0.  1.
         21   -1    0    0  502  503 -0.00000000000E+00 -0.00000000000E+00 -0.32912400312E+03  0.32912400312E+03  0.00000000000E+00 0.  1.
         -6    2    1    2    0  503  0.16772217533E+03  0.11257948464E+02 -0.12109868021E+03  0.26883583727E+03  0.17131943133E+03 0.  0.
        -24    2    3    3    0    0  0.54698480791E+02  0.31354436128E+02 -0.11179346625E+03  0.15356701516E+03  0.84320961706E+02 0.  0.
          6    2    1    2  501    0 -0.16772217533E+03 -0.11257948464E+02 -0.26359753991E+02  0.24195373478E+03  0.17201541687E+03 0.  0.
         24    2    5    5    0    0 -0.99066155202E+02 -0.69063065254E+02  0.11963659925E+02  0.14425084495E+03  0.77983120102E+02 0.  0.
          5    1    5    5  501    0 -0.68656020131E+02  0.57805116790E+02 -0.38323413916E+02  0.97702889832E+02  0.47000000000E+01 0. -1.
        -11    1    6    6    0    0 -0.31052911608E+02 -0.31929548672E+02  0.41927480261E+02  0.61169379584E+02  0.00000000000E+00 0.  1.
         12    1    6    6    0    0 -0.68013243594E+02 -0.37133516583E+02 -0.29963820336E+02  0.83081465364E+02  0.00000000000E+00 0. -1.
         -5    1    3    3    0  503  0.11302369454E+03 -0.20096487664E+02 -0.93052139561E+01  0.11526882211E+03  0.47000000000E+01 0.  1.
         11    1    4    4    0    0  0.45883128602E+02  0.35922279633E+02 -0.20557253783E+02  0.61792170600E+02  0.00000000000E+00 0. -1.
        -12    1    4    4    0    0  0.88153521884E+01 -0.45678435051E+01 -0.91236212467E+02  0.91774844559E+02  0.00000000000E+00 0.  1.
</event>
<event>
12    1  0.8226261E-002  0.2411843E+03  0.7818608E-02  0.1119744E+00
         21   -1    0    0  503  502  0.00000000000E+00  0.00000000000E+00  0.75585123142E+03  0.75585123142E+03  0.00000000000E+00 0. -1.
         21   -1    0    0  501  503 -0.00000000000E+00 -0.00000000000E+00 -0.82643498966E+02  0.82643498966E+02  0.00000000000E+00 0.  1.
          6    2    1    2  501    0  0.13503556676E+03 -0.95030642013E+02  0.21668227299E+03  0.32422379718E+03  0.17579657567E+03 0.  0.
         24    2    3    3    0    0  0.31089502701E+02  0.93520917933E+01  0.37182362573E+02  0.91967802227E+02  0.77598516486E+02 0.  0.
         -6    2    1    2    0  502 -0.13503556676E+03  0.95030642013E+02  0.45652545946E+03  0.51427093321E+03  0.16968697768E+03 0.  0.
        -24    2    5    5    0    0 -0.60709602514E+02  0.71942763650E+02  0.39826068052E+03  0.41693505311E+03  0.79761217340E+02 0.  0.
          5    1    3    3  501    0  0.10394606406E+03 -0.10438273381E+03  0.17949991042E+03  0.23225599495E+03  0.47000000000E+01 0. -1.
        -13    1    4    4    0    0  0.50310395880E+02  0.26782294067E+02  0.18241789429E+02  0.59843045466E+02  0.00000000000E+00 0.  1.
         14    1    4    4    0    0 -0.19220893179E+02 -0.17430202274E+02  0.18940573144E+02  0.32124756761E+02  0.00000000000E+00 0. -1.
         -5    1    5    5    0  502 -0.74325964243E+02  0.23087878363E+02  0.58264778943E+02  0.97335880092E+02  0.47000000000E+01 0.  1.
         13    1    6    6    0    0 -0.71411772595E+02  0.28826679165E+02  0.21530726642E+03  0.22866533990E+03  0.00000000000E+00 0. -1.
        -14    1    6    6    0    0  0.10702170081E+02  0.43116084484E+02  0.18295341409E+03  0.18826971321E+03  0.00000000000E+00 0.  1.
</event>
<event>
12    1  0.8226261E-002  0.2109134E+03  0.7818608E-02  0.1141386E+00
         21   -1    0    0  503  502  0.00000000000E+00  0.00000000000E+00  0.11927144376E+03  0.11927144376E+03  0.00000000000E+00 0. -1.
         21   -1    0    0  501  503 -0.00000000000E+00 -0.00000000000E+00 -0.36984304791E+03  0.36984304791E+03  0.00000000000E+00 0.  1.
          6    2    1    2  501    0 -0.31797133989E+02 -0.11715848845E+03 -0.10796827133E+03  0.23451639978E+03  0.16912606247E+03 0.  0.
         24    2    3    3    0    0 -0.12451611462E+02  0.40181623681E+01 -0.47080211423E+01  0.74070772805E+02  0.72753870441E+02 0.  0.
         -6    2    1    2    0  502  0.31797133989E+02  0.11715848845E+03 -0.14260333282E+03  0.25459809189E+03  0.17247408128E+03 0.  0.
        -24    2    5    5    0    0  0.75483873667E+02  0.48299304371E+02 -0.69894712352E+02  0.14524201320E+03  0.90439668269E+02 0.  0.
          5    1    3    3  501    0 -0.19345522527E+02 -0.12117665082E+03 -0.10326025019E+03  0.16044562698E+03  0.47000000000E+01 0. -1.
        -11    1    4    4    0    0  0.22979463761E+02 -0.17584042483E+00 -0.24235267928E+02  0.33398126986E+02  0.00000000000E+00 0.  1.
         12    1    4    4    0    0 -0.35431075223E+02  0.41940027929E+01  0.19527246786E+02  0.40672645819E+02  0.00000000000E+00 0. -1.
         -5    1    5    5    0  502 -0.43686739678E+02  0.68859184083E+02 -0.72708620464E+02  0.10935607869E+03  0.47000000000E+01 0.  1.
         13    1    6    6    0    0  0.39642153771E+02  0.68736731897E+02 -0.67051118668E+02  0.10388499017E+03  0.00000000000E+00 0. -1.
        -14    1    6    6    0    0  0.35841719895E+02 -0.20437427525E+02 -0.28435936837E+01  0.41357023030E+02  0.00000000000E+00 0.  1.
</event>
<event>
12    1  0.8226261E-002  0.2543889E+03  0.7818608E-02  0.1110767E+00
         21   -1    0    0  503  502  0.00000000000E+00  0.00000000000E+00  0.48073396469E+03  0.48073396469E+03  0.00000000000E+00 0.  1.
         21   -1    0    0  501  503 -0.00000000000E+00 -0.00000000000E+00 -0.45319250424E+03  0.45319250424E+03  0.00000000000E+00 0. -1.
          6    2    1    2  501    0 -0.16782581260E+03  0.82069022600E+02 -0.37818396567E+03  0.45504563604E+03  0.17071201230E+03 0.  0.
         24    2    3    3    0    0 -0.11733520753E+03  0.33843785091E+02 -0.12880656071E+03  0.19603568481E+03  0.83222033860E+02 0.  0.
         -6    2    1    2    0  502  0.16782581260E+03 -0.82069022600E+02  0.40572542612E+03  0.47888083289E+03  0.17266413311E+03 0.  0.
        -24    2    5    5    0    0  0.70394043283E+02 -0.95139297772E+02  0.15967916220E+03  0.21388152014E+03  0.79000395624E+02 0.  0.
          5    1    3    3  501    0 -0.50490605066E+02  0.48225237508E+02 -0.24937740496E+03  0.25900995124E+03  0.47000000000E+01 0. -1.
        -11    1    4    4    0    0 -0.11622278514E+02  0.18955754212E+02  0.69828182974E+01  0.23305744506E+02  0.00000000000E+00 0.  1.
         12    1    4    4    0    0 -0.10571292902E+03  0.14888030879E+02 -0.13578937901E+03  0.17272994030E+03  0.00000000000E+00 0. -1.
         -5    1    5    5    0  502  0.97431769317E+02  0.13070275172E+02  0.24604626393E+03  0.26499931275E+03  0.47000000000E+01 0.  1.
         11    1    6    6    0    0  0.82961267007E+02 -0.98688428409E+02  0.14061413256E+03  0.19077293309E+03  0.00000000000E+00 0. -1.
        -12    1    6    6    0    0 -0.12567223724E+02  0.35491306374E+01  0.19065029636E+02  0.23108587050E+02  0.00000000000E+00 0.  1.
</event>
<event>
12    1  0.8226261E-002  0.1853425E+03  0.7818608E-02  0.1162811E+00
         21   -1    0    0  503  502  0.00000000000E+00  0.00000000000E+00  0.20390671775E+03  0.20390671775E+03  0.00000000000E+00 0.  1.
         21   -1    0    0  501  503 -0.00000000000E+00 -0.00000000000E+00 -0.17190123392E+03  0.17190123392E+03  0.00000000000E+00 0.  1.
          6    2    1    2  501    0  0.21442129590E+01 -0.67505705521E+02 -0.11749357921E+02  0.18537073281E+03  0.17222846235E+03 0.  0.
         24    2    3    3    0    0  0.24511310118E+02 -0.79155211149E+02  0.46341527907E+02  0.12186766963E+03  0.76405758405E+02 0.  0.
         -6    2    1    2    0  502 -0.21442129590E+01  0.67505705521E+02  0.43754841752E+02  0.19043721885E+03  0.17259846529E+03 0.  0.
        -24    2    5    5    0    0  0.11899683280E+02  0.65750383466E+02  0.93761559183E+02  0.13825413764E+03  0.76539278841E+02 0.  0.
          5    1    3    3  501    0 -0.22367097159E+02  0.11649505628E+02 -0.58090885828E+02  0.63503063178E+02  0.47000000000E+01 0. -1.
        -11    1    4    4    0    0  0.77107644754E+01 -0.21169184760E+02  0.56337027049E+02  0.60674960972E+02  0.00000000000E+00 0.  1.
         12    1    4    4    0    0  0.16800545643E+02 -0.57986026389E+02 -0.99954991426E+01  0.61192708662E+02  0.00000000000E+00 0. -1.
         -5    1    5    5    0  502 -0.14043896239E+02  0.17553220548E+01 -0.50006717430E+02  0.52183081217E+02  0.47000000000E+01 0.  1.
         11    1    6    6    0    0  0.14528829006E+02 -0.83136269472E+01  0.48753351839E+02  0.51546993907E+02  0.00000000000E+00 0. -1.
        -12    1    6    6    0    0 -0.26291457257E+01  0.74064010413E+02  0.45008207344E+02  0.86707143731E+02  0.00000000000E+00 0.  1.
</event>
<event>
12    1  0.8226261E-002  0.1737952E+03  0.7818608E-02  0.1174435E+00
         21   -1    0    0  501  502  0.00000000000E+00  0.00000000000E+00  0.77668535045E+02  0.77668535045E+02  0.00000000000E+00 0. -1.
         21   -1    0    0  502  503 -0.00000000000E+00 -0.00000000000E+00 -0.46165277309E+03  0.46165277309E+03  0.00000000000E+00 0. -1.
         -6    2    1    2    0  503  0.90472846005E+01 -0.14311816316E+02 -0.30303031050E+03  0.34933101106E+03  0.17296850801E+03 0.  0.
        -24    2    3    3    0    0 -0.23576672265E+02 -0.47781684748E+02 -0.10062138231E+03  0.14154261180E+03  0.84087451538E+02 0.  0.
          6    2    1    2  501    0 -0.90472846005E+01  0.14311816316E+02 -0.80953927552E+02  0.18999029708E+03  0.17104412634E+03 0.  0.
         24    2    5    5    0    0 -0.11196352718E+02  0.64118270707E+02 -0.93666811990E+02  0.13832784627E+03  0.78259890323E+02 0.  0.
          5    1    5    5  501    0  0.21490681173E+01 -0.49806454391E+02  0.12712884437E+02  0.51662450808E+02  0.47000000000E+01 0. -1.
        -11    1    6    6    0    0  0.10871627949E+02  0.67989304291E+02 -0.38731033095E+02  0.78998928581E+02  0.00000000000E+00 0.  1.
         12    1    6    6    0    0 -0.22067980667E+02 -0.38710335840E+01 -0.54935778895E+02  0.59328917692E+02  0.00000000000E+00 0. -1.
         -5    1    3    3    0  503  0.32623956865E+02  0.33469868432E+02 -0.20240892819E+03  0.20778839926E+03  0.47000000000E+01 0.  1.
         13    1    4    4    0    0 -0.19517937569E+02  0.20643282796E+02 -0.45238830054E+02  0.53419535342E+02  0.00000000000E+00 0. -1.
        -14    1    4    4    0    0 -0.40587346957E+01 -0.68424967544E+02 -0.55382552252E+02  0.88123076460E+02  0.00000000000E+00 0.  1.
</event>
<event>
12    1  0.8226261E-002  0.2192983E+03  0.7818608E-02  0.1135021E+00
         21   -1    0    0  501  502  0.00000000000E+00  0.00000000000E+00  0.66274113698E+02  0.66274113698E+02  0.00000000000E+00 0.  1.
         21   -1    0    0  502  503 -0.00000000000E+00 -0.00000000000E+00 -0.77670120675E+03  0.77670120675E+03  0.00000000000E+00 0. -1.
         -6    2    1    2    0  503  0.11489637720E+03 -0.75064971868E+02 -0.47652666133E+03  0.52456593827E+03  0.17104337796E+03 0.  0.
        -24    2    3    3    0    0  0.90105539864E+02 -0.10895465690E+03 -0.44725415136E+03  0.47316490514E+03  0.62117839383E+02 0.  0.
          6    2    1    2  501    0 -0.11489637720E+03  0.75064971868E+02 -0.23390043172E+03  0.31840938217E+03  0.16685081720E+03 0.  0.
         24    2    5    5    0    0 -0.11778490895E+03  0.80274835106E+02 -0.11498721370E+03  0.19925431635E+03  0.78504072146E+02 0.  0.
          5    1    5    5  501    0  0.28885317447E+01 -0.52098632381E+01 -0.11891321802E+03  0.11915506582E+03  0.47000000000E+01 0. -1.
        -13    1    6    6    0    0 -0.16131020735E+02  0.74795542725E+01 -0.60156646607E+02  0.62729384606E+02  0.00000000000E+00 0.  1.
         14    1    6    6    0    0 -0.10165388821E+03  0.72795280833E+02 -0.54830567088E+02  0.13652493174E+03  0.00000000000E+00 0. -1.
         -5    1    3    3    0  503  0.24790837338E+02  0.33889685034E+02 -0.29272509973E+02  0.51401033139E+02  0.47000000000E+01 0.  1.
         11    1    4    4    0    0  0.17892919003E+02 -0.35707579541E+02 -0.57114287693E+02  0.69693827889E+02  0.00000000000E+00 0. -1.
        -12    1    4    4    0    0  0.72212620860E+02 -0.73247077361E+02 -0.39013986367E+03  0.40347107725E+03  0.00000000000E+00 0.  1.
</event>
<event>
12    1  0.8226261E-002  0.2144285E+03  0.7818608E-02  0.1138479E+00
         21   -1    0    0  501  502  0.00000000000E+00  0.00000000000E+00  0.43252433434E+03  0.43252433434E+03  0.00000000000E+00 0.  1.
         21   -1    0    0  502  503 -0.00000000000E+00 -0.00000000000E+00 -0.10577100824E+03  0.10577100824E+03  0.00000000000E+00 0.  1.
         -6    2    1    2    0  503 -0.38194496881E+01 -0.12474731554E+03  0.18102746453E+03  0.28062523908E+03  0.17436485014E+03 0.  0.
        -24    2    3    3    0    0 -0.15191848448E+02  0.45376655952E+01  0.38767991902E+02  0.88001810204E+02  0.77394952903E+02 0.  0.
          6    2    1    2  501    0  0.38194496881E+01  0.12474731554E+03  0.14572586157E+03  0.25767010350E+03  0.17199236779E+03 0.  0.
         24    2    5    5    0    0  0.51620379980E+02  0.98191635735E+02  0.14977761040E+03  0.20263702495E+03  0.79512076723E+02 0.  0.
          5    1    5    5  501    0 -0.47800930292E+02  0.26555679804E+02 -0.40517488295E+01  0.55033078554E+02  0.47000000000E+01 0. -1.
        -13    1    6    6    0    0 -0.11162499165E+02  0.36940504265E+01 -0.31954056967E+01  0.12184334768E+02  0.00000000000E+00 0.  1.
         14    1    6    6    0    0  0.62782879145E+02  0.94497585309E+02  0.15297301610E+03  0.19045269018E+03  0.00000000000E+00 0. -1.
         -5    1    3    3    0  503  0.11372398760E+02 -0.12928498113E+03  0.14225947262E+03  0.19262342887E+03  0.47000000000E+01 0.  1.
         13    1    4    4    0    0 -0.36049440621E+02 -0.17280619555E+02  0.41587652593E+02  0.57686348727E+02  0.00000000000E+00 0. -1.
        -14    1    4    4    0    0  0.20857592173E+02  0.21818285151E+02 -0.28196606910E+01  0.30315461477E+02  0.00000000000E+00 0.  1.
</event>
<event>
12    1  0.8226261E-002  0.2279108E+03  0.7818608E-02  0.1128899E+00
         21   -1    0    0  503  502  0.00000000000E+00  0.00000000000E+00  0.50555697736E+03  0.50555697736E+03  0.00000000000E+00 0.  1.
         21   -1    0    0  501  503 -0.00000000000E+00 -0.00000000000E+00 -0.14184259712E+03  0.14184259712E+03  0.00000000000E+00 0. -1.
          6    2    1    2  501    0  0.95104314165E+02 -0.10473927236E+03  0.89787954277E+01  0.22808760615E+03  0.17868461480E+03 0.  0.
         24    2    3    3    0    0  0.35136476696E+02 -0.17443581905E+02  0.63356424265E+02  0.10894191542E+03  0.79469830095E+02 0.  0.
         -6    2    1    2    0  502 -0.95104314165E+02  0.10473927236E+03  0.35473558481E+03  0.41931196832E+03  0.17311858911E+03 0.  0.
        -24    2    5    5    0    0 -0.80102835010E+02  0.84029115976E+02  0.36522211292E+03  0.39127605874E+03  0.78945588014E+02 0.  0.
          5    1    3    3  501    0  0.59967837469E+02 -0.87295690453E+02 -0.54377628837E+02  0.11914569073E+03  0.47000000000E+01 0. -1.
        -11    1    4    4    0    0  0.37200539225E+02 -0.44788730397E+02  0.55447923166E+02  0.80401384769E+02  0.00000000000E+00 0.  1.
         12    1    4    4    0    0 -0.20640625293E+01  0.27345148492E+02  0.79085010986E+01  0.28540530651E+02  0.00000000000E+00 0. -1.
         -5    1    5    5    0  502 -0.15001479155E+02  0.20710156382E+02 -0.10486528109E+02  0.28035909581E+02  0.47000000000E+01 0.  1.
         11    1    6    6    0    0 -0.47511400645E+02  0.27929988657E+02  0.70438075870E+02  0.89436793267E+02  0.00000000000E+00 0. -1.
        -12    1    6    6    0    0 -0.32591434365E+02  0.56099127319E+02  0.29478403705E+03  0.30183926547E+03  0.00000000000E+00 0.  1.
</event>
<event>
12    1  0.8226261E-002  0.2447239E+03  0.7818608E-02  0.1117043E+00
         21   -1    0    0  503  502  0.00000000000E+00  0.00000000000E+00  0.17548102636E+03  0.17548102636E+03  0.00000000000E+00 0.  1.
         21   -1    0    0  501  503 -0.00000000000E+00 -0.00000000000E+00 -0.35535098173E+03  0.35535098173E+03  0.00000000000E+00 0. -1.
          6    2    1    2  501    0 -0.17298956112E+03  0.63277661267E+01 -0.14779324134E+03  0.28401489183E+03  0.16987109146E+03 0.  0.
         24    2    3    3    0    0 -0.12640114658E+03  0.53621991900E+02 -0.53120294668E+02  0.16828986864E+03  0.81530033174E+02 0.  0.
         -6    2    1    2    0  502  0.17298956112E+03 -0.63277661267E+01 -0.32076714024E+02  0.24681711625E+03  0.17298654402E+03 0.  0.
        -24    2    5    5    0    0  0.14525141020E+02  0.53271266921E+01 -0.33438850784E+02  0.87849338447E+02  0.79749555004E+02 0.  0.
          5    1    3    3  501    0 -0.46588414544E+02 -0.47294225773E+02 -0.94672946677E+02  0.11572502320E+03  0.47000000000E+01 0. -1.
        -13    1    4    4    0    0 -0.11444584741E+03  0.10546348735E+02 -0.40158570150E+02  0.12174476670E+03  0.00000000000E+00 0.  1.
         14    1    4    4    0    0 -0.11955299162E+02  0.43075643164E+02 -0.12961724518E+02  0.46545101939E+02  0.00000000000E+00 0. -1.
         -5    1    5    5    0  502  0.15846442010E+03 -0.11654892819E+02  0.13621367599E+01  0.15896777781E+03  0.47000000000E+01 0.  1.
         13    1    6    6    0    0  0.59727616326E+01 -0.34064432679E+02  0.13402172566E+01  0.34610051106E+02  0.00000000000E+00 0. -1.
        -14    1    6    6    0    0  0.85523793871E+01  0.39391559371E+02 -0.34779068040E+02  0.53239287341E+02  0.00000000000E+00 0.  1.
</event>
<event>
12    1  0.8226261E-002  0.1841397E+03  0.7818608E-02  0.1164015E+00
         21   -1    0    0  503  502  0.00000000000E+00  0.00000000000E+00  0.39676823329E+02  0.39676823329E+02  0.00000000000E+00 0.  1.
         21   -1    0    0  501  503 -0.00000000000E+00 -0.00000000000E+00 -0.21438733507E+04  0.21438733507E+04  0.00000000000E+00 0.  1.
          6    2    1    2  501    0 -0.13909126615E+02  0.63649315930E+02 -0.18990153650E+04  0.19078569510E+04  0.17150536311E+03 0.  0.
         24    2    3    3    0    0  0.13490095486E+02  0.46465971169E+02 -0.50632341773E+03  0.51478159955E+03  0.79344960371E+02 0.  0.
         -6    2    1    2    0  502  0.13909126615E+02 -0.63649315930E+02 -0.20518116233E+03  0.27569322303E+03  0.17222875669E+03 0.  0.
        -24    2    5    5    0    0 -0.28531579873E+02 -0.56032462581E+02 -0.20864856189E+03  0.23218066298E+03  0.80124590298E+02 0.  0.
          5    1    3    3  501    0 -0.27399222101E+02  0.17183344761E+02 -0.13926919473E+04  0.13930753514E+04  0.47000000000E+01 0. -1.
        -11    1    4    4    0    0 -0.23205585527E+02 -0.62361849762E+01 -0.22196212888E+03  0.22325898831E+03  0.00000000000E+00 0.  1.
         12    1    4    4    0    0  0.36695681013E+02  0.52702156145E+02 -0.28436128885E+03  0.29152261124E+03  0.00000000000E+00 0. -1.
         -5    1    5    5    0  502  0.42440706488E+02 -0.76168533488E+01  0.34673995667E+01  0.43512560048E+02  0.47000000000E+01 0.  1.
         13    1    6    6    0    0 -0.55184511201E+02 -0.23998934231E+02 -0.12405432831E+03  0.13787949628E+03  0.00000000000E+00 0. -1.
        -14    1    6    6    0    0  0.26652931328E+02 -0.32033528350E+02 -0.84594233579E+02  0.94301166705E+02  0.00000000000E+00 0.  1.
</event>
<event>
12    1  0.8226261E-002  0.1854080E+03  0.7818608E-02  0.1162824E+00
         21   -1    0    0  501  502  0.00000000000E+00  0.00000000000E+00  0.12041451350E+03  0.12041451350E+03  0.00000000000E+00 0. -1.
         21   -1    0    0  502  503 -0.00000000000E+00 -0.00000000000E+00 -0.38134024544E+03  0.38134024544E+03  0.00000000000E+00 0. -1.
         -6    2    1    2    0  503 -0.25874201366E+02 -0.61473349962E+02 -0.25708558897E+03  0.31696863353E+03  0.17299614891E+03 0.  0.
        -24    2    3    3    0    0 -0.40483138711E+02  0.48184844467E+01 -0.22288693938E+03  0.24081309537E+03  0.81549106933E+02 0.  0.
          6    2    1    2  501    0  0.25874201366E+02  0.61473349962E+02 -0.38401429815E+01  0.18478612541E+03  0.17228673307E+03 0.  0.
         24    2    5    5    0    0 -0.19026468078E+02 -0.23514533709E+02 -0.19366464931E+02  0.87307065294E+02  0.79577156918E+02 0.  0.
          5    1    5    5  501    0  0.44900669444E+02  0.84987883671E+02  0.15526321950E+02  0.97479060114E+02  0.47000000000E+01 0. -1.
        -11    1    6    6    0    0 -0.48256410005E+02 -0.24563698991E+02 -0.20842068881E+02  0.58021101764E+02  0.00000000000E+00 0.  1.
         12    1    6    6    0    0  0.29229941927E+02  0.10491652818E+01  0.14756039502E+01  0.29285963530E+02  0.00000000000E+00 0. -1.
         -5    1    3    3    0  503  0.14608937345E+02 -0.66291834409E+02 -0.34198649586E+02  0.76155538165E+02  0.47000000000E+01 0.  1.
         11    1    4    4    0    0  0.65055490082E+01 -0.30432787333E+02 -0.58783387458E+02  0.66512881112E+02  0.00000000000E+00 0. -1.
        -12    1    4    4    0    0 -0.46988687719E+02  0.35251271780E+02 -0.16410355192E+03  0.17430021426E+03  0.00000000000E+00 0.  1.
</event>
<event>
12    1  0.8226261E-002  0.2077715E+03  0.7818608E-02  0.1143534E+00
         21   -1    0    0  503  502  0.00000000000E+00  0.00000000000E+00  0.16747036886E+03  0.16747036886E+03  0.00000000000E+00 0.  1.
         21   -1    0    0  501  503 -0.00000000000E+00 -0.00000000000E+00 -0.27143288175E+03  0.27143288175E+03  0.00000000000E+00 0.  1.
          6    2    1    2  501    0 -0.77219721849E+02  0.85716025276E+02 -0.10317758082E+03  0.23113029020E+03  0.17165510605E+03 0.  0.
         24    2    3    3    0    0 -0.19948445820E+02 -0.20995187795E+02 -0.50283298351E+02  0.98891199267E+02  0.80076967963E+02 0.  0.
         -6    2    1    2    0  502  0.77219721849E+02 -0.85716025276E+02 -0.78493207152E+00  0.20777296042E+03  0.17279717744E+03 0.  0.
        -24    2    5    5    0    0  0.52048038627E+02  0.17193656398E+02  0.21299512381E+02  0.99450160854E+02  0.80200031926E+02 0.  0.
          5    1    3    3  501    0 -0.57271276030E+02  0.10671121307E+03 -0.52894282465E+02  0.13223909093E+03  0.47000000000E+01 0. -1.
        -11    1    4    4    0    0 -0.15001979129E+02  0.29451438252E+02 -0.11246898509E+02  0.34913311487E+02  0.00000000000E+00 0.  1.
         12    1    4    4    0    0 -0.49464666910E+01 -0.50446626047E+02 -0.39036399842E+02  0.63977887780E+02  0.00000000000E+00 0. -1.
         -5    1    5    5    0  502  0.25171683222E+02 -0.10290968167E+03 -0.22084444453E+02  0.10832279956E+03  0.47000000000E+01 0.  1.
         11    1    6    6    0    0 -0.21710211140E+02  0.58224075494E+01  0.38012016069E+01  0.22796553052E+02  0.00000000000E+00 0. -1.
        -12    1    6    6    0    0  0.73758249767E+02  0.11371248849E+02  0.17498310774E+02  0.76653607802E+02  0.00000000000E+00 0.  1.
</event>
<event>
12    1  0.8226261E-002  0.1797329E+03  0.7818608E-02  0.1168525E+00
         21   -1    0    0  503  502  0.00000000000E+00  0.00000000000E+00  0.38307885057E+03  0.38307885057E+03  0.00000000000E+00 0. -1.
         21   -1    0    0  501  503 -0.00000000000E+00 -0.00000000000E+00 -0.11684173198E+03  0.11684173198E+03  0.00000000000E+00 0.  1.
          6    2    1    2  501    0  0.30389194159E+02 -0.32637387644E+02  0.26727212438E+03  0.32208431776E+03  0.17411265629E+03 0.  0.
         24    2    3    3    0    0  0.60725938156E+02  0.17328995773E+02  0.94540982459E+02  0.13966969417E+03  0.81127630600E+02 0.  0.
         -6    2    1    2    0  502 -0.30389194159E+02  0.32637387644E+02 -0.10350057933E+01  0.17783626480E+03  0.17215099084E+03 0.  0.
        -24    2    5    5    0    0  0.16667486000E+02  0.74143646267E+02  0.16812071642E+02  0.11243206902E+03  0.81137161765E+02 0.  0.
          5    1    3    3  501    0 -0.30336743997E+02 -0.49966383418E+02  0.17273114192E+03  0.18241462359E+03  0.47000000000E+01 0. -1.
        -11    1    4    4    0    0  0.43037486429E+02  0.44285118843E+02  0.86777024934E+02  0.10650656809E+03  0.00000000000E+00 0.  1.
         12    1    4    4    0    0  0.17688451727E+02 -0.26956123070E+02  0.77639575255E+01  0.33163126088E+02  0.00000000000E+00 0. -1.
         -5    1    5    5    0  502 -0.47056680159E+02 -0.41506258623E+02 -0.17847077436E+02  0.65404195779E+02  0.47000000000E+01 0.  1.
         13    1    6    6    0    0  0.69937379754E+01  0.54812339196E+02 -0.28539854227E+02  0.62191865853E+02  0.00000000000E+00 0. -1.
        -14    1    6    6    0    0  0.96737480251E+01  0.19331307071E+02  0.45351925869E+02  0.50240203164E+02  0.00000000000E+00 0.  1.
</event>
<event>
12    1  0.8226261E-002  0.1895282E+03  0.7818608E-02  0.1159456E+00
         21   -1    0    0  503  502  0.00000000000E+00  0.00000000000E+00  0.29899671885E+03  0.29899671885E+03  0.00000000000E+00 0. -1.
         21   -1    0    0  501  503 -0.00000000000E+00 -0.00000000000E+00 -0.13675951790E+03  0.13675951790E+03  0.00000000000E+00 0. -1.
          6    2    1    2  501    0 -0.36608851963E+02 -0.62243547068E+02  0.21102164009E+01  0.18953992927E+03  0.17523260136E+03 0.  0.
         24    2    3    3    0    0 -0.19470275575E+02  0.29262629996E+02 -0.26208864089E+02  0.92117285284E+02  0.81014174969E+02 0.  0.
         -6    2    1    2    0  502  0.36608851963E+02  0.62243547068E+02  0.16012698455E+03  0.24621630748E+03  0.17253217582E+03 0.  0.
        -24    2    5    5    0    0  0.88563770204E+02  0.36351468569E+02  0.81921720068E+02  0.14870801731E+03  0.78980602264E+02 0.  0.
          5    1    3    3  501    0 -0.17138576388E+02 -0.91506177064E+02  0.28319080490E+02  0.97422643986E+02  0.47000000000E+01 0. -1.
        -11    1    4    4    0    0 -0.24604647018E+02 -0.69271121870E+01  0.20528466383E+02  0.32784012417E+02  0.00000000000E+00 0.  1.
         12    1    4    4    0    0  0.51343714433E+01  0.36189742183E+02 -0.46737330472E+02  0.59333272866E+02  0.00000000000E+00 0. -1.
         -5    1    5    5    0  502 -0.51954918242E+02  0.25892078499E+02  0.78205264485E+02  0.97508290169E+02  0.47000000000E+01 0.  1.
         11    1    6    6    0    0  0.80956016872E+02  0.35763834439E+01  0.81684162047E+02  0.11506072099E+03  0.00000000000E+00 0. -1.
        -12    1    6    6    0    0  0.76077533321E+01  0.32775085125E+02  0.23755802127E+00  0.33647296318E+02  0.00000000000E+00 0.  1.
</event>
<event>
12    1  0.8226261E-002  0.1934101E+03  0.7818608E-02  0.1155560E+00
         21   -1    0    0  501  502  0.00000000000E+00  0.00000000000E+00  0.17279770816E+04  0.17279770816E+04  0.00000000000E+00 0.  1.
         21   -1    0    0  502  503 -0.00000000000E+00 -0.00000000000E+00 -0.21655576116E+02  0.21655576116E+02  0.00000000000E+00 0.  1.
         -6    2    1    2    0  503 -0.76076412798E+02  0.40112812829E+02  0.79929608913E+03  0.82221550077E+03  0.17253241221E+03 0.  0.
        -24    2    3    3    0    0 -0.53710563061E+02  0.88979411361E+02  0.43628101997E+03  0.45521385755E+03  0.77951058291E+02 0.  0.
          6    2    1    2  501    0  0.76076412798E+02 -0.40112812829E+02  0.90702541638E+03  0.92741715698E+03  0.17323630901E+03 0.  0.
         24    2    5    5    0    0 -0.17624108843E+02 -0.36533473700E+02  0.57849740089E+03  0.58573697554E+03  0.82360535247E+02 0.  0.
          5    1    5    5  501    0  0.93700521642E+02 -0.35793391295E+01  0.32852801550E+03  0.34168018144E+03  0.47000000000E+01 0. -1.
        -13    1    6    6    0    0 -0.15888527627E+02 -0.54164314985E+02  0.54433744254E+03  0.54725631077E+03  0.00000000000E+00 0.  1.
         14    1    6    6    0    0 -0.17355812160E+01  0.17630841286E+02  0.34159958345E+02  0.38480664765E+02  0.00000000000E+00 0. -1.
         -5    1    3    3    0  503 -0.22365849738E+02 -0.48866598532E+02  0.36301506916E+03  0.36700164322E+03  0.47000000000E+01 0.  1.
         13    1    4    4    0    0  0.47420458688E+01  0.24631493566E+02  0.22998883611E+03  0.23135267927E+03  0.00000000000E+00 0. -1.
        -14    1    4    4    0    0 -0.58452608929E+02  0.64347917795E+02  0.20629218387E+03  0.22386117828E+03  0.00000000000E+00 0.  1.
</event>
<event>
12    1  0.8226261E-002  0.1844522E+03  0.7818608E-02  0.1163625E+00
         21   -1    0    0  503  502  0.00000000000E+00  0.00000000000E+00  0.25135858666E+03  0.25135858666E+03  0.00000000000E+00 0. -1.
         21   -1    0    0  501  503 -0.00000000000E+00 -0.00000000000E+00 -0.68327097567E+03  0.68327097567E+03  0.00000000000E+00 0. -1.
          6    2    1    2  501    0  0.22881621927E+02  0.62982671002E+02 -0.63447551718E+03  0.66066890630E+03  0.17156292253E+03 0.  0.
         24    2    3    3    0    0  0.19872225027E+02  0.17301240576E+02 -0.14231947070E+03  0.16636584781E+03  0.82027588787E+02 0.  0.
         -6    2    1    2    0  502 -0.22881621927E+02 -0.62982671002E+02  0.20256312817E+03  0.27396065602E+03  0.17184945355E+03 0.  0.
        -24    2    5    5    0    0 -0.69490598226E+02 -0.50399826464E+02  0.18717426109E+03  0.22307223024E+03  0.85778378055E+02 0.  0.
          5    1    3    3  501    0  0.30093969000E+01  0.45681430426E+02 -0.49215604648E+03  0.49430305850E+03  0.47000000000E+01 0. -1.
        -13    1    4    4    0    0  0.89314393384E+01  0.48783828808E+02 -0.10625185237E+03  0.11725650811E+03  0.00000000000E+00 0.  1.
         14    1    4    4    0    0  0.10940785688E+02 -0.31482588232E+02 -0.36067618331E+02  0.49109339695E+02  0.00000000000E+00 0. -1.
         -5    1    5    5    0  502  0.46608976299E+02 -0.12582844538E+02  0.15388867081E+02  0.50888425780E+02  0.47000000000E+01 0.  1.
         13    1    6    6    0    0  0.63292613876E+01 -0.44664232791E+02  0.76089815001E+02  0.88456843643E+02  0.00000000000E+00 0. -1.
        -14    1    6    6    0    0 -0.75819859613E+02 -0.57355936737E+01  0.11108444609E+03  0.13461538660E+03  0.00000000000E+00 0.  1.
</event>
<event>
12    1  0.8226261E-002  0.3528971E+03  0.7818608E-02  0.1061453E+00
         21   -1    0    0  501  502  0.00000000000E+00  0.00000000000E+00  0.14420011185E+03  0.14420011185E+03  0.00000000000E+00 0.  1.
         21   -1    0    0  502  503 -0.00000000000E+00 -0.00000000000E+00 -0.93683073021E+03  0.93683073021E+03  0.00000000000E+00 0. -1.
         -6    2    1    2    0  503 -0.13108371245E+03  0.27940352208E+03 -0.54802891435E+03  0.65182212091E+03  0.17113479635E+03 0.  0.
        -24    2    3    3    0    0 -0.66283637559E+02  0.22420045052E+03 -0.29506201829E+03  0.38487499259E+03  0.80048751783E+02 0.  0.
          6    2    1    2  501    0  0.13108371245E+03 -0.27940352208E+03 -0.24460170402E+03  0.42920872115E+03  0.17070695617E+03 0.  0.
         24    2    5    5    0    0  0.15606973228E+03 -0.21152161005E+03 -0.16179005885E+03  0.31915367245E+03  0.81141177241E+02 0.  0.
          5    1    5    5  501    0 -0.24986019839E+02 -0.67881912029E+02 -0.82811645174E+02  0.11005504870E+03  0.47000000000E+01 0. -1.
        -11    1    6    6    0    0  0.62189414238E+02 -0.27494414914E+02 -0.31753154890E+02  0.75044846193E+02  0.00000000000E+00 0.  1.
         12    1    6    6    0    0  0.93880318046E+02 -0.18402719514E+03 -0.13003690396E+03  0.24410882626E+03  0.00000000000E+00 0. -1.
         -5    1    3    3    0  503 -0.64800074886E+02  0.55203071561E+02 -0.25296689605E+03  0.26694712831E+03  0.47000000000E+01 0.  1.
         11    1    4    4    0    0 -0.25446229627E+02  0.14826806313E+03 -0.23775014914E+03  0.28134687232E+03  0.00000000000E+00 0. -1.
        -12    1    4    4    0    0 -0.40837407933E+02  0.75932387395E+02 -0.57311869149E+02  0.10352812027E+03  0.00000000000E+00 0.  1.
</event>
<event>
12    1  0.8226261E-002  0.1848803E+03  0.7818608E-02  0.1163373E+00
         21   -1    0    0  501  502  0.00000000000E+00  0.00000000000E+00  0.14852411583E+04  0.14852411583E+04  0.00000000000E+00 0. -1.
         21   -1    0    0  502  503 -0.00000000000E+00 -0.00000000000E+00 -0.31720321441E+02  0.31720321441E+02  0.00000000000E+00 0.  1.
         -6    2    1    2    0  503 -0.68387118116E+02 -0.11083464249E+02  0.32811556524E+03  0.37661723661E+03  0.17140909442E+03 0.  0.
        -24    2    3    3    0    0  0.73598682738E+01  0.14226080163E+02  0.24600306900E+03  0.26197548581E+03  0.88640262816E+02 0.  0.
          6    2    1    2  501    0  0.68387118116E+02  0.11083464249E+02  0.11254052717E+04  0.11403442432E+04  0.17043569570E+03 0.  0.
         24    2    5    5    0    0  0.23695047538E+01 -0.41745490728E+02  0.76139711623E+03  0.76661539631E+03  0.78900549534E+02 0.  0.
          5    1    5    5  501    0  0.66017613363E+02  0.52828954977E+02  0.36400815543E+03  0.37372884687E+03  0.47000000000E+01 0. -1.
        -13    1    6    6    0    0  0.28274004984E+02 -0.53583573091E+02  0.49167332209E+03  0.49539204103E+03  0.00000000000E+00 0.  1.
         14    1    6    6    0    0 -0.25904500231E+02  0.11838082363E+02  0.26972379414E+03  0.27122335528E+03  0.00000000000E+00 0. -1.
         -5    1    3    3    0  503 -0.75746986390E+02 -0.25309544411E+02  0.82112496244E+02  0.11464175079E+03  0.47000000000E+01 0.  1.
         13    1    4    4    0    0  0.42860260900E+02  0.16194732098E+02  0.19146863428E+03  0.19687434882E+03  0.00000000000E+00 0. -1.
        -14    1    4    4    0    0 -0.35500392626E+02 -0.19686519356E+01  0.54534434722E+02  0.65101136991E+02  0.00000000000E+00 0.  1.
</event>
<event>
12    1  0.8226261E-002  0.2245581E+03  0.7818608E-02  0.1131263E+00
         21   -1    0    0  501  502  0.00000000000E+00  0.00000000000E+00  0.14411977248E+03  0.14411977248E+03  0.00000000000E+00 0. -1.
         21   -1    0    0  502  503 -0.00000000000E+00 -0.00000000000E+00 -0.43289179575E+03  0.43289179575E+03  0.00000000000E+00 0.  1.
         -6    2    1    2    0  503 -0.13787509884E+03 -0.45266783593E+02 -0.27637724852E+03  0.35610496194E+03  0.17137017197E+03 0.  0.
        -24    2    3    3    0    0 -0.43054140356E+01  0.32860366243E+01 -0.12954762820E+03  0.15170519566E+03  0.78756230182E+02 0.  0.
          6    2    1    2  501    0  0.13787509884E+03  0.45266783593E+02 -0.12394774760E+02  0.22090660629E+03  0.16609477320E+03 0.  0.
         24    2    5    5    0    0  0.33634335019E+02 -0.24728107700E+02 -0.31689236501E+02  0.93785451863E+02  0.77773745368E+02 0.  0.
          5    1    5    5  501    0  0.10424076382E+03  0.69994891293E+02  0.19294461742E+02  0.12712115443E+03  0.47000000000E+01 0. -1.
        -11    1    6    6    0    0 -0.17401499943E+02 -0.73656805452E+01  0.13678486047E+02  0.23327375135E+02  0.00000000000E+00 0.  1.
         12    1    6    6    0    0  0.51035834962E+02 -0.17362427154E+02 -0.45367722549E+02  0.70458076728E+02  0.00000000000E+00 0. -1.
         -5    1    3    3    0  503 -0.13356968481E+03 -0.48552820218E+02 -0.14682962032E+03  0.20439976627E+03  0.47000000000E+01 0.  1.
         11    1    4    4    0    0  0.18823783134E+02 -0.25855337681E+02 -0.24570987883E+02  0.40330717123E+02  0.00000000000E+00 0. -1.
        -12    1    4    4    0    0 -0.23129197170E+02  0.29141374306E+02 -0.10497664032E+03  0.11137447854E+03  0.00000000000E+00 0.  1.
</event>
<event>
12    1  0.8226261E-002  0.2033847E+03  0.7818608E-02  0.1147079E+00
         21   -1    0    0  503  502  0.00000000000E+00  0.00000000000E+00  0.51721246471E+03  0.51721246471E+03  0.00000000000E+00 0.  1.
         21   -1    0    0  501  503 -0.00000000000E+00 -0.00000000000E+00 -0.84326204357E+02  0.84326204357E+02  0.00000000000E+00 0.  1.
          6    2    1    2  501    0  0.23172534524E+02  0.10501430159E+03  0.28675997603E+03  0.35110257501E+03  0.17168798569E+03 0.  0.
         24    2    3    3    0    0  0.60672492329E+02  0.17011147933E+02  0.17639085541E+03  0.20497169300E+03  0.83241399435E+02 0.  0.
         -6    2    1    2    0  502 -0.23172534524E+02 -0.10501430159E+03  0.14612628432E+03  0.25043609406E+03  0.17262785506E+03 0.  0.
        -24    2    5    5    0    0  0.22474264388E+02 -0.42867391321E+01  0.10767753832E+03  0.13326072054E+03  0.75103253509E+02 0.  0.
          5    1    3    3  501    0 -0.37499957805E+02  0.88003153662E+02  0.11036912062E+03  0.14613088201E+03  0.47000000000E+01 0. -1.
        -11    1    4    4    0    0  0.36349316396E+01  0.67196421485E+01 -0.83706176284E+01  0.11332853044E+02  0.00000000000E+00 0.  1.
         12    1    4    4    0    0  0.57037560690E+02  0.10291505784E+02  0.18476147304E+03  0.19363883995E+03  0.00000000000E+00 0. -1.
         -5    1    5    5    0  502 -0.45646798912E+02 -0.10072756246E+03  0.38448746006E+02  0.11717537352E+03  0.47000000000E+01 0.  1.
         11    1    6    6    0    0 -0.93909870440E+01  0.64332920423E+01 -0.72638037187E+01  0.13503359901E+02  0.00000000000E+00 0. -1.
        -12    1    6    6    0    0  0.31865251432E+02 -0.10720031174E+02  0.11494134204E+03  0.11975736063E+03  0.00000000000E+00 0.  1.
</event>
<event>
12    1  0.8226261E-002  0.1830949E+03  0.7818608E-02  0.1165093E+00
         21   -1    0    0  501  502  0.00000000000E+00  0.00000000000E+00  0.49707022970E+02  0.49707022970E+02  0.00000000000E+00 0. -1.
         21   -1    0    0  502  503 -0.00000000000E+00 -0.00000000000E+00 -0.70098744334E+03  0.70098744334E+03  0.00000000000E+00 0. -1.
         -6    2    1    2    0  503 -0.47202626174E+02 -0.41017253552E+02 -0.24648532373E+03  0.30641659357E+03  0.17095499698E+03 0.  0.
        -24    2    3    3    0    0 -0.69893220562E+02 -0.73379123587E+02 -0.12908730777E+03  0.18245475324E+03  0.79728576401E+02 0.  0.
          6    2    1    2  501    0  0.47202626174E+02  0.41017253552E+02 -0.40479509664E+03  0.44427787274E+03  0.17208502241E+03 0.  0.
         24    2    5    5    0    0  0.66703228681E+01 -0.23905019891E+02 -0.98690133234E+02  0.12871471294E+03  0.78814920839E+02 0.  0.
          5    1    5    5  501    0  0.40532303306E+02  0.64922273443E+02 -0.30610496341E+03  0.31556315980E+03  0.47000000000E+01 0. -1.
        -13    1    6    6    0    0  0.22874465974E+02 -0.15614811096E+02 -0.10565593132E+03  0.10922563501E+03  0.00000000000E+00 0.  1.
         14    1    6    6    0    0 -0.16204143106E+02 -0.82902087950E+01  0.69657980897E+01  0.19489077934E+02  0.00000000000E+00 0. -1.
         -5    1    3    3    0  503  0.22690594388E+02  0.32361870035E+02 -0.11739801595E+03  0.12396184032E+03  0.47000000000E+01 0.  1.
         13    1    4    4    0    0  0.11791204013E+02 -0.33655810815E+02 -0.21455385221E+02  0.41618261001E+02  0.00000000000E+00 0. -1.
        -14    1    4    4    0    0 -0.81684424575E+02 -0.39723312772E+02 -0.10763192255E+03  0.14083649224E+03  0.00000000000E+00 0.  1.
</event>
<event>
12    1  0.8226261E-002  0.1885963E+03  0.7818608E-02  0.1160776E+00
         21   -1    0    0  503  502  0.00000000000E+00  0.00000000000E+00  0.36336716355E+03  0.36336716355E+03  0.00000000000E+00 0. -1.
         21   -1    0    0  501  503 -0.00000000000E+00 -0.00000000000E+00 -0.27893940804E+03  0.27893940804E+03  0.00000000000E+00 0. -1.
          6    2    1    2  501    0 -0.53611974807E+02  0.37827068903E+02 -0.21835463456E+03  0.28559135200E+03  0.17198413566E+03 0.  0.
         24    2    3    3    0    0 -0.50607485587E+02  0.84434736886E+02 -0.11555896820E+03  0.17258541988E+03  0.82106696650E+02 0.  0.
         -6    2    1    2    0  502  0.53611974807E+02 -0.37827068903E+02  0.30278239006E+03  0.35671521960E+03  0.17681470860E+03 0.  0.
        -24    2    5    5    0    0  0.61912758205E+02 -0.56360779634E+02  0.31228419378E+03  0.33380723601E+03  0.83042916723E+02 0.  0.
          5    1    3    3  501    0 -0.30044892204E+01 -0.46607667982E+02 -0.10279566636E+03  0.11300593211E+03  0.47000000000E+01 0. -1.
        -13    1    4    4    0    0 -0.37627802799E+02  0.39788575576E+02 -0.79183554661E+01  0.55332473677E+02  0.00000000000E+00 0.  1.
         14    1    4    4    0    0 -0.12979682787E+02  0.44646161309E+02 -0.10764061273E+03  0.11725294620E+03  0.00000000000E+00 0. -1.
         -5    1    5    5    0  502 -0.83007833977E+01  0.18533710731E+02 -0.95018037139E+01  0.22907983593E+02  0.47000000000E+01 0.  1.
         11    1    6    6    0    0 -0.43669954975E+01 -0.23514114364E+02  0.16857274030E+02  0.29260073680E+02  0.00000000000E+00 0. -1.
        -12    1    6    6    0    0  0.66279753702E+02 -0.32846665270E+02  0.29542691975E+03  0.30454716233E+03  0.00000000000E+00 0.  1.
</event>
<event>
12    1  0.8226261E-002  0.2522195E+03  0.7818608E-02  0.1112271E+00
         21   -1    0    0  501  502  0.00000000000E+00  0.00000000000E+00  0.77334956982E+03  0.77334956982E+03  0.00000000000E+00 0. -1.
         21   -1    0    0  502  503 -0.00000000000E+00 -0.00000000000E+00 -0.87052622083E+02  0.87052622083E+02  0.00000000000E+00 0.  1.
         -6    2    1    2    0  503 -0.12453960201E+03  0.13230814667E+03  0.45316859438E+03  0.51862940856E+03  0.17492607108E+03 0.  0.
        -24    2    3    3    0    0 -0.54496780230E+02  0.66282968985E+02  0.37843159278E+03  0.39667437431E+03  0.82321065251E+02 0.  0.
          6    2    1    2  501    0  0.12453960201E+03 -0.13230814667E+03  0.23312835335E+03  0.34177278334E+03  0.17159326371E+03 0.  0.
         24    2    5    5    0    0  0.10101001927E+03 -0.16518548814E+03  0.19426346795E+03  0.28549552183E+03  0.79247261915E+02 0.  0.
          5    1    5    5  501    0  0.23529582741E+02  0.32877341468E+02  0.38864885402E+02  0.56277261512E+02  0.47000000000E+01 0. -1.
        -13    1    6    6    0    0  0.19500492297E+01 -0.75471207088E+02  0.73636899341E+02  0.10546136134E+03  0.00000000000E+00 0.  1.
         14    1    6    6    0    0  0.99059970041E+02 -0.89714281047E+02  0.12062656861E+03  0.18003416049E+03  0.00000000000E+00 0. -1.
         -5    1    3    3    0  503 -0.70042821782E+02  0.66025177683E+02  0.74737001603E+02  0.12195503425E+03  0.47000000000E+01 0.  1.
         11    1    4    4    0    0 -0.74440700624E+02  0.52307660308E+02  0.25204807161E+03  0.26796593000E+03  0.00000000000E+00 0. -1.
        -12    1    4    4    0    0  0.19943920394E+02  0.13975308677E+02  0.12638352117E+03  0.12870844431E+03  0.00000000000E+00 0.  1.
</event>
<event>
12    1  0.8226261E-002  0.2451428E+03  0.7818608E-02  0.1116766E+00
         21   -1    0    0  503  502  0.00000000000E+00  0.00000000000E+00  0.34905654528E+03  0.34905654528E+03  0.00000000000E+00 0. -1.
         21   -1    0    0  501  503 -0.00000000000E+00 -0.00000000000E+00 -0.17868178926E+03  0.17868178926E+03  0.00000000000E+00 0. -1.
          6    2    1    2  501    0  0.10900176625E+03  0.13500424780E+03  0.29587869147E+02  0.24692189251E+03  0.17316883967E+03 0.  0.
         24    2    3    3    0    0  0.41024536369E+02  0.47341078515E+02 -0.46759364046E+02  0.11217499998E+03  0.80452484079E+02 0.  0.
         -6    2    1    2    0  502 -0.10900176625E+03 -0.13500424780E+03  0.14078688687E+03  0.28081644203E+03  0.17008643282E+03 0.  0.
        -24    2    5    5    0    0 -0.12528788596E+03 -0.10452246618E+03  0.15867817347E+03  0.24161740069E+03  0.81106135874E+02 0.  0.
          5    1    3    3  501    0  0.67977229883E+02  0.87663169288E+02  0.76347233194E+02  0.13474689254E+03  0.47000000000E+01 0. -1.
        -13    1    4    4    0    0  0.23055241002E+02 -0.16581893715E+02  0.38872278061E+01  0.28663807787E+02  0.00000000000E+00 0.  1.
         14    1    4    4    0    0  0.17969295367E+02  0.63922972230E+02 -0.50646591852E+02  0.83511192190E+02  0.00000000000E+00 0. -1.
         -5    1    5    5    0  502  0.16286119710E+02 -0.30481781624E+02 -0.17891286595E+02  0.39199041343E+02  0.47000000000E+01 0.  1.
         13    1    6    6    0    0 -0.60743484086E+02 -0.80620313643E+02  0.49184292229E+02  0.11228757916E+03  0.00000000000E+00 0. -1.
        -14    1    6    6    0    0 -0.64544401876E+02 -0.23902152536E+02  0.10949388124E+03  0.12932982153E+03  0.00000000000E+00 0.  1.
</event>
<event>
12    1  0.8226261E-002  0.2639275E+03  0.7818608E-02  0.1105212E+00
         21   -1    0    0  503  502  0.00000000000E+00  0.00000000000E+00  0.37220791841E+03  0.37220791841E+03  0.00000000000E+00 0. -1.
         21   -1    0    0  501  503 -0.00000000000E+00 -0.00000000000E+00 -0.28298172996E+03  0.28298172996E+03  0.00000000000E+00 0. -1.
          6    2    1    2  501    0  0.11876400896E+03  0.15612427596E+03 -0.14779099267E+03  0.30248952018E+03  0.17657308100E+03 0.  0.
         24    2    3    3    0    0  0.44186817216E+01  0.13999659497E+02 -0.26036711801E+02  0.83125768898E+02  0.77565893789E+02 0.  0.
         -6    2    1    2    0  502 -0.11876400896E+03 -0.15612427596E+03  0.23701718112E+03  0.35270012819E+03  0.17245450680E+03 0.  0.
        -24    2    5    5    0    0 -0.64317401072E+02 -0.52388654459E+02  0.19707317026E+03  0.22883275443E+03  0.81518684179E+02 0.  0.
          5    1    3    3  501    0  0.11434532724E+03  0.14212461646E+03 -0.12175428087E+03  0.21936375128E+03  0.47000000000E+01 0. -1.
        -13    1    4    4    0    0  0.32930242618E+02  0.31020162492E+02 -0.19594595613E+02  0.49301110912E+02  0.00000000000E+00 0.  1.
         14    1    4    4    0    0 -0.28511560896E+02 -0.17020502995E+02 -0.64421161882E+01  0.33824657987E+02  0.00000000000E+00 0. -1.
         -5    1    5    5    0  502 -0.54446607888E+02 -0.10373562150E+03  0.39944010863E+02  0.12386737376E+03  0.47000000000E+01 0.  1.
         13    1    6    6    0    0 -0.83314376862E+02 -0.43630855699E+02  0.14632553307E+03  0.17394280264E+03  0.00000000000E+00 0. -1.
        -14    1    6    6    0    0  0.18996975790E+02 -0.87577987599E+01  0.50747637186E+02  0.54889951797E+02  0.00000000000E+00 0.  1.
</event>
<event>
12    1  0.8226261E-002  0.1867193E+03  0.7818608E-02  0.1161626E+00
         21   -1    0    0  501  502  0.00000000000E+00  0.00000000000E+00  0.15009344723E+03  0.15009344723E+03  0.00000000000E+00 0. -1.
         21   -1    0    0  502  503 -0.00000000000E+00 -0.00000000000E+00 -0.42241962786E+03  0.42241962786E+03  0.00000000000E+00 0. -1.
         -6    2    1    2    0  503 -0.16242769149E+02  0.71653390456E+02 -0.32882979267E+03  0.37814432851E+03  0.17165682253E+03 0.  0.
        -24    2    3    3    0    0  0.11543903025E+02  0.27812670264E+02 -0.60111945516E+02  0.10441913917E+03  0.79894332139E+02 0.  0.
          6    2    1    2  501    0  0.16242769149E+02 -0.71653390456E+02  0.56503612044E+02  0.19436874658E+03  0.17084646780E+03 0.  0.
         24    2    5    5    0    0 -0.22621139462E+02 -0.12961578131E+02 -0.22565864942E+02  0.88400806060E+02  0.81398807076E+02 0.  0.
          5    1    5    5  501    0  0.38863908611E+02 -0.58691812325E+02  0.79069476986E+02  0.10596794052E+03  0.47000000000E+01 0. -1.
        -11    1    6    6    0    0  0.25667120017E+02 -0.24009603775E+02 -0.15310399368E+02  0.38336281147E+02  0.00000000000E+00 0.  1.
         12    1    6    6    0    0 -0.48288259479E+02  0.11048025644E+02 -0.72554655742E+01  0.50064524913E+02  0.00000000000E+00 0. -1.
         -5    1    3    3    0  503 -0.27786672174E+02  0.43840720192E+02 -0.26871784715E+03  0.27372518934E+03  0.47000000000E+01 0.  1.
         13    1    4    4    0    0  0.18303926198E+02 -0.13480235887E+02  0.83214264594E+01  0.24207366898E+02  0.00000000000E+00 0. -1.
        -14    1    4    4    0    0 -0.67600231739E+01  0.41292906150E+02 -0.68433371976E+02  0.80211772276E+02  0.00000000000E+00 0.  1.
</event>
<event>
12    1  0.8226261E-002  0.2084151E+03  0.7818608E-02  0.1142980E+00
         21   -1    0    0  503  502  0.00000000000E+00  0.00000000000E+00  0.54968763552E+03  0.54968763552E+03  0.00000000000E+00 0. -1.
         21   -1    0    0  501  503 -0.00000000000E+00 -0.00000000000E+00 -0.11478864429E+03  0.11478864429E+03  0.00000000000E+00 0. -1.
          6    2    1    2  501    0 -0.95773632366E+02 -0.70191895353E+02  0.31518151920E+02  0.21078485868E+03  0.17128155744E+03 0.  0.
         24    2    3    3    0    0  0.10517081425E+02 -0.22599368030E+02 -0.14438997704E+02  0.85497532516E+02  0.80498465666E+02 0.  0.
         -6    2    1    2    0  502  0.95773632366E+02  0.70191895353E+02  0.40338083931E+03  0.45369142113E+03  0.17035349497E+03 0.  0.
        -24    2    5    5    0    0  0.42936347909E+02  0.55739896918E+02  0.38015877208E+03  0.39400898406E+03  0.75973162713E+02 0.  0.
          5    1    3    3  501    0 -0.10629071379E+03 -0.47592527322E+02  0.45957149624E+02  0.12528732616E+03  0.47000000000E+01 0. -1.
        -13    1    4    4    0    0  0.75476195185E+01 -0.51781460180E+02  0.10238351231E+01  0.52338651273E+02  0.00000000000E+00 0.  1.
         14    1    4    4    0    0  0.29694619063E+01  0.29182092150E+02 -0.15462832827E+02  0.33158881243E+02  0.00000000000E+00 0. -1.
         -5    1    5    5    0  502  0.52837284457E+02  0.14451998434E+02  0.23222067236E+02  0.59682437067E+02  0.47000000000E+01 0.  1.
         13    1    6    6    0    0  0.30898171828E+02 -0.12805808227E+02  0.10579559594E+03  0.11095672070E+03  0.00000000000E+00 0. -1.
        -14    1    6    6    0    0  0.12038176081E+02  0.68545705145E+02  0.27436317613E+03  0.28305226336E+03  0.00000000000E+00 0.  1.
</event>
<event>
12    1  0.8226261E-002  0.1739458E+03  0.7818608E-02  0.1173827E+00
         21   -1    0    0  503  502  0.00000000000E+00  0.00000000000E+00  0.41099771958E+02  0.41099771958E+02  0.00000000000E+00 0. -1.
         21   -1    0    0  501  503 -0.00000000000E+00 -0.00000000000E+00 -0.16835051566E+04  0.16835051566E+04  0.00000000000E+00 0. -1.
          6    2    1    2  501    0  0.19197519054E+02 -0.19109251734E+02 -0.14683642568E+04  0.14786313758E+04  0.17182388243E+03 0.  0.
         24    2    3    3    0    0 -0.30207524687E+02  0.33921079378E+02 -0.58906375304E+03  0.59633633428E+03  0.80980147293E+02 0.  0.
         -6    2    1    2    0  502 -0.19197519054E+02  0.19109251734E+02 -0.17404112782E+03  0.24597355275E+03  0.17169439781E+03 0.  0.
        -24    2    5    5    0    0 -0.39425498940E+02  0.56311016381E+02 -0.17425704582E+03  0.20336746065E+03  0.79167578589E+02 0.  0.
          5    1    3    3  501    0  0.49405043741E+02 -0.53030331112E+02 -0.87930050379E+03  0.88229504154E+03  0.47000000000E+01 0. -1.
        -13    1    4    4    0    0 -0.49167684288E+02 -0.51092205433E+01 -0.30683609435E+03  0.31079246147E+03  0.00000000000E+00 0.  1.
         14    1    4    4    0    0  0.18960159602E+02  0.39030299921E+02 -0.28222765870E+03  0.28554387281E+03  0.00000000000E+00 0. -1.
         -5    1    5    5    0  502  0.20227979886E+02 -0.37201764647E+02  0.21591800682E+00  0.42606092096E+02  0.47000000000E+01 0.  1.
         11    1    6    6    0    0 -0.40432463883E+02  0.95792272243E+01 -0.28727488458E+02  0.50515485972E+02  0.00000000000E+00 0. -1.
        -12    1    6    6    0    0  0.10069649430E+01  0.46731789157E+02 -0.14552955736E+03  0.15285197468E+03  0.00000000000E+00 0.  1.
</event>
<event>
12    1  0.8226261E-002  0.2569110E+03  0.7818608E-02  0.1109103E+00
         21   -1    0    0  501  502  0.00000000000E+00  0.00000000000E+00  0.93072737056E+03  0.93072737056E+03  0.00000000000E+00 0. -1.
         21   -1    0    0  502  503 -0.00000000000E+00 -0.00000000000E+00 -0.95227476907E+02  0.95227476907E+02  0.00000000000E+00 0. -1.
         -6    2    1    2    0  503  0.13355320536E+03  0.13576745478E+03  0.15734011715E+03  0.30076250938E+03  0.17156023474E+03 0.  0.
        -24    2    3    3    0    0 -0.12504739905E+01  0.66613695537E+02  0.65618437068E+02  0.12359244706E+03  0.80810677323E+02 0.  0.
          6    2    1    2  501    0 -0.13355320536E+03 -0.13576745478E+03  0.67815977650E+03  0.72519233809E+03  0.17243544971E+03 0.  0.
         24    2    5    5    0    0 -0.92166730603E+02 -0.16062964120E+03  0.47016464929E+03  0.51161558011E+03  0.79994477958E+02 0.  0.
          5    1    5    5  501    0 -0.41386474755E+02  0.24862186413E+02  0.20799512721E+03  0.21357675798E+03  0.47000000000E+01 0. -1.
        -13    1    6    6    0    0 -0.14130753156E+02  0.37557073761E+01  0.77092554157E+02  0.78466842865E+02  0.00000000000E+00 0.  1.
         14    1    6    6    0    0 -0.78035977447E+02 -0.16438534857E+03  0.39307209513E+03  0.43314873724E+03  0.00000000000E+00 0. -1.
         -5    1    3    3    0  503  0.13480367935E+03  0.69153759245E+02  0.91721680078E+02  0.17717006231E+03  0.47000000000E+01 0.  1.
         13    1    4    4    0    0  0.10975453579E+02  0.83280210835E+02  0.50912393869E+02  0.98224874382E+02  0.00000000000E+00 0. -1.
        -14    1    4    4    0    0 -0.12225927570E+02 -0.16666515298E+02  0.14706043200E+02  0.25367572681E+02  0.00000000000E+00 0.  1.
</event>
<event>
12    1  0.8226261E-002  0.1919127E+03  0.7818608E-02  0.1157153E+00
         21   -1    0    0  501  502  0.00000000000E+00  0.00000000000E+00  0.17459623850E+03  0.17459623850E+03  0.00000000000E+00 0.  1.
         21   -1    0    0  502  503 -0.00000000000E+00 -0.00000000000E+00 -0.21402518334E+03  0.21402518334E+03  0.00000000000E+00 0. -1.
         -6    2    1    2    0  503 -0.60207307124E+02 -0.54011813321E+02 -0.49513264686E+02  0.19644391665E+03  0.17203619735E+03 0.  0.
        -24    2    3    3    0    0  0.21270754054E+02  0.13986534041E+02 -0.30561212590E+02  0.88537846496E+02  0.79100533719E+02 0.  0.
          6    2    1    2  501    0  0.60207307124E+02  0.54011813321E+02  0.10084319847E+02  0.19217750519E+03  0.17403535326E+03 0.  0.
         24    2    5    5    0    0  0.93095451876E+02  0.12317618817E+02 -0.30083210805E+02  0.12542755059E+03  0.77515056479E+02 0.  0.
          5    1    5    5  501    0 -0.32888144751E+02  0.41694194504E+02  0.40167530652E+02  0.66749954601E+02  0.47000000000E+01 0. -1.
        -13    1    6    6    0    0  0.44050874363E+02  0.43753722970E+02 -0.59503476249E+01  0.62372064602E+02  0.00000000000E+00 0.  1.
         14    1    6    6    0    0  0.49044577512E+02 -0.31436104153E+02 -0.24132863181E+02  0.63055485986E+02  0.00000000000E+00 0. -1.
         -5    1    3    3    0  503 -0.81478061179E+02 -0.67998347362E+02 -0.18952052096E+02  0.10790607015E+03  0.47000000000E+01 0.  1.
         13    1    4    4    0    0  0.50022327960E+02  0.75244600942E+01 -0.30500682838E+02  0.59068963490E+02  0.00000000000E+00 0. -1.
        -14    1    4    4    0    0 -0.28751573906E+02  0.64620739468E+01 -0.60529752420E-01  0.29468883006E+02  0.00000000000E+00 0.  1.
</event>
<event>
12    1  0.8226261E-002  0.2582573E+03  0.7818608E-02  0.1108232E+00
         21   -1    0    0  503  502  0.00000000000E+00  0.00000000000E+00  0.36601990516E+03  0.36601990516E+03  0.00000000000E+00 0. -1.
         21   -1    0    0  501  503 -0.00000000000E+00 -0.00000000000E+00 -0.36128741014E+03  0.36128741014E+03  0.00000000000E+00 0. -1.
          6    2    1    2  501    0 -0.68521439271E+02 -0.18007926284E+03  0.25850715505E+03  0.36540768006E+03  0.17196829617E+03 0.  0.
         24    2    3    3    0    0  0.74094052883E+01 -0.46161503951E+02  0.15134142816E+03  0.17777494751E+03  0.80708861679E+02 0.  0.
         -6    2    1    2    0  502  0.68521439271E+02  0.18007926284E+03 -0.25377466004E+03  0.36189963524E+03  0.17159848299E+03 0.  0.
        -24    2    5    5    0    0  0.21413247576E+02  0.16063805148E+03 -0.25306679835E+03  0.31071630307E+03  0.78985478470E+02 0.  0.
          5    1    3    3  501    0 -0.75930844559E+02 -0.13391775889E+03  0.10716572690E+03  0.18763273254E+03  0.47000000000E+01 0. -1.
        -13    1    4    4    0    0 -0.36008043638E+02 -0.13069578404E+02  0.54673484008E+02  0.66757643307E+02  0.00000000000E+00 0.  1.
         14    1    4    4    0    0  0.43417448926E+02 -0.33091925548E+02  0.96667944148E+02  0.11101730421E+03  0.00000000000E+00 0. -1.
         -5    1    5    5    0  502  0.47108191694E+02  0.19441211357E+02 -0.70786168171E+00  0.51183332169E+02  0.47000000000E+01 0.  1.
         13    1    6    6    0    0 -0.24521249684E+02  0.54004351327E+02 -0.53722675181E+02  0.80024293042E+02  0.00000000000E+00 0. -1.
        -14    1    6    6    0    0  0.45934497260E+02  0.10663370016E+03 -0.19934412317E+03  0.23069201003E+03  0.00000000000E+00 0.  1.
</event>
<event>
12    1  0.8226261E-002  0.1891493E+03  0.7818608E-02  0.1159586E+00
         21   -1    0    0  501  502  0.00000000000E+00  0.00000000000E+00  0.44854910985E+03  0.44854910985E+03  0.00000000000E+00 0. -1.
         21   -1    0    0  502  503 -0.00000000000E+00 -0.00000000000E+00 -0.25735639657E+03  0.25735639657E+03  0.00000000000E+00 0. -1.
         -6    2    1    2    0  503 -0.73021154337E+02 -0.32542161720E+02 -0.19826553609E+03  0.27294455890E+03  0.16970099635E+03 0.  0.
        -24    2    3    3    0    0 -0.48016778806E+02 -0.68200937131E+02 -0.11125129663E+03  0.17552620884E+03  0.10712432084E+03 0.  0.
          6    2    1    2  501    0  0.73021154337E+02  0.32542161720E+02  0.38945824937E+03  0.43296094752E+03  0.17142453969E+03 0.  0.
         24    2    5    5    0    0  0.35340337769E+02  0.57178243456E+02  0.11822795214E+03  0.15797959434E+03  0.80382912134E+02 0.  0.
          5    1    5    5  501    0  0.37680816568E+02 -0.24636081736E+02  0.27123029723E+03  0.27498135318E+03  0.47000000000E+01 0. -1.
        -11    1    6    6    0    0 -0.15727274837E+02  0.23662888199E+02  0.43365358963E+01  0.28741694371E+02  0.00000000000E+00 0.  1.
         12    1    6    6    0    0  0.51067612606E+02  0.33515355258E+02  0.11389141624E+03  0.12923789997E+03  0.00000000000E+00 0. -1.
         -5    1    3    3    0  503 -0.25004375532E+02  0.35658775410E+02 -0.87014239463E+02  0.97418350062E+02  0.47000000000E+01 0.  1.
         13    1    4    4    0    0 -0.64007893095E+02 -0.48508565542E+02 -0.12353085146E+03  0.14734300991E+03  0.00000000000E+00 0. -1.
        -14    1    4    4    0    0  0.15991114289E+02 -0.19692371589E+02  0.12279554825E+02  0.28183198926E+02  0.00000000000E+00 0.  1.
</event>
<event>
12    1  0.8226261E-002  0.2521687E+03  0.7818608E-02  0.1112158E+00
         21   -1    0    0  503  502  0.00000000000E+00  0.00000000000E+00  0.10561347064E+03  0.10561347064E+03  0.00000000000E+00 0. -1.
         21   -1    0    0  501  503 -0.00000000000E+00 -0.00000000000E+00 -0.99958770277E+03  0.99958770277E+03  0.00000000000E+00 0. -1.
          6    2    1    2  501    0 -0.17889366395E+03 -0.44501633930E+02 -0.79763375235E+03  0.83654567878E+03  0.17206316101E+03 0.  0.
         24    2    3    3    0    0 -0.13660500860E+03  0.26232921794E+02 -0.61934034822E+03  0.64007090762E+03  0.82214386182E+02 0.  0.
         -6    2    1    2    0  502  0.17889366395E+03  0.44501633930E+02 -0.96340479783E+02  0.26865549463E+03  0.17003219792E+03 0.  0.
        -24    2    5    5    0    0  0.17952388389E+02  0.32315501127E+02 -0.48922472961E+02  0.10036659606E+03  0.79457317993E+02 0.  0.
          5    1    3    3  501    0 -0.42288655347E+02 -0.70734555725E+02 -0.17829340413E+03  0.19647477116E+03  0.47000000000E+01 0. -1.
        -13    1    4    4    0    0 -0.29191321523E+02  0.40703279294E+02 -0.14183659376E+03  0.15042110732E+03  0.00000000000E+00 0.  1.
         14    1    4    4    0    0 -0.10741368707E+03 -0.14470357499E+02 -0.47750375446E+03  0.48964980030E+03  0.00000000000E+00 0. -1.
         -5    1    5    5    0  502  0.16094127556E+03  0.12186132803E+02 -0.47418006822E+02  0.16828889857E+03  0.47000000000E+01 0.  1.
         11    1    6    6    0    0  0.19679167968E+02  0.36723062247E+02  0.86898282552E+01  0.42560146473E+02  0.00000000000E+00 0. -1.
        -12    1    6    6    0    0 -0.17267795789E+01 -0.44075611199E+01 -0.57612301216E+02  0.57806449590E+02  0.00000000000E+00 0.  1.
</event>
<event>
12    1  0.8226261E-002  0.1829847E+03  0.7818608E-02  0.1165046E+00
         21   -1    0    0  503  502  0.00000000000E+00  0.00000000000E+00  0.16918544203E+03  0.16918544203E+03  0.00000000000E+00 0.  1.
         21   -1    0    0  501  503 -0.00000000000E+00 -0.00000000000E+00 -0.25148104430E+03  0.25148104430E+03  0.00000000000E+00 0.  1.
          6    2    1    2  501    0  0.40369472109E+02  0.45477091231E+02 -0.13860518795E+03  0.22921372018E+03  0.17213271416E+03 0.  0.
         24    2    3    3    0    0  0.49927267026E+02 -0.48027748214E+01 -0.14474384079E+02  0.94863570033E+02  0.79207262838E+02 0.  0.
         -6    2    1    2    0  502 -0.40369472109E+02 -0.45477091231E+02  0.56309585674E+02  0.19145276615E+03  0.17258485485E+03 0.  0.
        -24    2    5    5    0    0  0.82658967816E+00 -0.54531618643E+02 -0.16873929757E+02  0.10685361187E+03  0.90324881306E+02 0.  0.
          5    1    3    3  501    0 -0.95577949165E+01  0.50279866053E+02 -0.12413080387E+03  0.13435015014E+03  0.47000000000E+01 0. -1.
        -13    1    4    4    0    0  0.20505164533E+02 -0.23469955746E+02 -0.40693359467E+02  0.51256707853E+02  0.00000000000E+00 0.  1.
         14    1    4    4    0    0  0.29422102493E+02  0.18667180924E+02  0.26218975388E+02  0.43606862180E+02  0.00000000000E+00 0. -1.
         -5    1    5    5    0  502 -0.41196061787E+02  0.90545274120E+01  0.73183515431E+02  0.84599154276E+02  0.47000000000E+01 0.  1.
         13    1    6    6    0    0  0.41509693792E+02 -0.21275388505E+02 -0.26181001778E+02  0.53489640949E+02  0.00000000000E+00 0. -1.
        -14    1    6    6    0    0 -0.40683104114E+02 -0.33256230139E+02  0.93070720213E+01  0.53363970926E+02  0.00000000000E+00 0.  1.
</event>
<event>
12    1  0.8226261E-002  0.1924281E+03  0.7818608E-02  0.1157782E+00
         21   -1    0    0  501  502  0.00000000000E+00  0.00000000000E+00  0.20391096162E+03  0.20391096162E+03  0.00000000000E+00 0. -1.
         21   -1    0    0  502  503 -0.00000000000E+00 -0.00000000000E+00 -0.72027418726E+03  0.72027418726E+03  0.00000000000E+00 0. -1.
         -6    2    1    2    0  503  0.42979316573E+02  0.63589136275E+02 -0.66116984531E+03  0.68860302643E+03  0.17645895771E+03 0.  0.
        -24    2    3    3    0    0  0.64739285085E+02  0.96556340607E+02 -0.39248974932E+03  0.41699408554E+03  0.79508251827E+02 0.  0.
          6    2    1    2  501    0 -0.42979316573E+02 -0.63589136275E+02  0.14480661967E+03  0.23558212245E+03  0.16923114197E+03 0.  0.
         24    2    5    5    0    0  0.38664063308E+02 -0.30651564501E+02  0.49556266557E+02  0.10579288992E+03  0.79384405300E+02 0.  0.
          5    1    5    5  501    0 -0.81643379882E+02 -0.32937571774E+02  0.95250353110E+02  0.12978923253E+03  0.47000000000E+01 0. -1.
        -11    1    6    6    0    0  0.33836183480E+02  0.13128645698E+02 -0.39289064482E+01  0.36505957819E+02  0.00000000000E+00 0.  1.
         12    1    6    6    0    0  0.48278798280E+01 -0.43780210199E+02  0.53485173005E+02  0.69286932102E+02  0.00000000000E+00 0. -1.
         -5    1    3    3    0  503 -0.21759968511E+02 -0.32967204332E+02 -0.26868009598E+03  0.27160894089E+03  0.47000000000E+01 0.  1.
         13    1    4    4    0    0  0.65343248401E+02  0.88110371650E+02 -0.23570465343E+03  0.25998050187E+03  0.00000000000E+00 0. -1.
        -14    1    4    4    0    0 -0.60396331599E+00  0.84459689571E+01 -0.15678509590E+03  0.15701358367E+03  0.00000000000E+00 0.  1.
</event>
<event>
12    1  0.8226261E-002  0.1983052E+03  0.7818608E-02  0.1151772E+00
         21   -1    0    0  503  502  0.00000000000E+00  0.00000000000E+00  0.75778159289E+03  0.75778159289E+03  0.00000000000E+00 0. -1.
         21   -1    0    0  501  503 -0.00000000000E+00 -0.00000000000E+00 -0.67102896006E+02  0.67102896006E+02  0.00000000000E+00 0. -1.
          6    2    1    2  501    0 -0.83241698294E+02  0.48089743082E+02  0.14623633151E+03  0.24639402267E+03  0.17344493659E+03 0.  0.
         24    2    3    3    0    0 -0.96872360652E+02  0.79654949174E+02  0.14153358534E+03  0.21137455646E+03  0.94436656836E+02 0.  0.
         -6    2    1    2    0  502  0.83241698294E+02 -0.48089743082E+02  0.54444236538E+03  0.57849046623E+03  0.17027015762E+03 0.  0.
        -24    2    5    5    0    0  0.40513352407E+02 -0.21229327134E+01  0.47575941778E+03  0.48533416484E+03  0.86927495012E+02 0.  0.
          5    1    3    3  501    0  0.13630662359E+02 -0.31565206092E+02  0.47027461704E+01  0.35019466208E+02  0.47000000000E+01 0. -1.
        -11    1    4    4    0    0 -0.16085411367E+02  0.37458557629E+02  0.10596640014E+03  0.11353749141E+03  0.00000000000E+00 0.  1.
         12    1    4    4    0    0 -0.80786949285E+02  0.42196391545E+02  0.35567185204E+02  0.97837065050E+02  0.00000000000E+00 0. -1.
         -5    1    5    5    0  502  0.42728345887E+02 -0.45966810369E+02  0.68682947600E+02  0.93156301390E+02  0.47000000000E+01 0.  1.
         13    1    6    6    0    0  0.14740991290E+02 -0.35326230180E+02  0.36270314720E+03  0.36471744180E+03  0.00000000000E+00 0. -1.
        -14    1    6    6    0    0  0.25772361117E+02  0.33203297467E+02  0.11305627058E+03  0.12061672304E+03  0.00000000000E+00 0.  1.
</event>
<event>
12    1  0.8226261E-002  0.1833193E+03  0.7818608E-02  0.1165036E+00
         21   -1    0    0  501  502  0.00000000000E+00  0.00000000000E+00  0.15054039762E+03  0.15054039762E+03  0.00000000000E+00 0. -1.
         21   -1    0    0  502  503 -0.00000000000E+00 -0.00000000000E+00 -0.38431561401E+03  0.38431561401E+03  0.00000000000E+00 0. -1.
         -6    2    1    2    0  503 -0.10055880503E+02  0.65507834954E+02 -0.29082117195E+03  0.34286588981E+03  0.16907887854E+03 0.  0.
        -24    2    3    3    0    0  0.59051462544E+02  0.44428814982E+02 -0.17756089140E+03  0.20844070208E+03  0.80365796830E+02 0.  0.
          6    2    1    2  501    0  0.10055880503E+02 -0.65507834954E+02  0.57045955551E+02  0.19199012182E+03  0.17091977258E+03 0.  0.
         24    2    5    5    0    0  0.55386835533E+02 -0.24263349289E+02 -0.11229908437E+02  0.10012235443E+03  0.79006096885E+02 0.  0.
          5    1    5    5  501    0 -0.45330955029E+02 -0.41244485665E+02  0.68275863988E+02  0.91867767389E+02  0.47000000000E+01 0. -1.
        -13    1    6    6    0    0  0.64599840444E+00 -0.17979756666E+02 -0.35588727962E+02  0.39877895151E+02  0.00000000000E+00 0.  1.
         14    1    6    6    0    0  0.54740837128E+02 -0.62835926233E+01  0.24358819525E+02  0.60244459284E+02  0.00000000000E+00 0. -1.
         -5    1    3    3    0  503 -0.69107343047E+02  0.21079019972E+02 -0.11326028055E+03  0.13442518773E+03  0.47000000000E+01 0.  1.
         13    1    4    4    0    0 -0.93599385552E+00  0.46884284274E+01 -0.10882451192E+03  0.10892948104E+03  0.00000000000E+00 0. -1.
        -14    1    4    4    0    0  0.59987456399E+02  0.39740386555E+02 -0.68736379484E+02  0.99511221042E+02  0.00000000000E+00 0.  1.
</event>
<event>
12    1  0.8226261E-002  0.3083341E+03  0.7818608E-02  0.1082082E+00
         21   -1    0    0  501  502  0.00000000000E+00  0.00000000000E+00  0.32441186106E+03  0.32441186106E+03  0.00000000000E+00 0. -1.
         21   -1    0    0  502  503 -0.00000000000E+00 -0.00000000000E+00 -0.12430983011E+04  0.12430983011E+04  0.00000000000E+00 0.  1.
         -6    2    1    2    0  503 -0.17020790227E+03  0.17632663746E+03 -0.11484257597E+04  0.11890969925E+04  0.18710456656E+03 0.  0.
        -24    2    3    3    0    0 -0.25587656450E+02  0.52073797090E+02 -0.22284837036E+03  0.24407351258E+03  0.80895456391E+02 0.  0.
          6    2    1    2  501    0  0.17020790227E+03 -0.17632663746E+03  0.22973931970E+03  0.37841316968E+03  0.17422559772E+03 0.  0.
         24    2    5    5    0    0  0.19296797287E+03 -0.15005722101E+03  0.22754689962E+03  0.34327060632E+03  0.79393384534E+02 0.  0.
          5    1    5    5  501    0 -0.22760070596E+02 -0.26269416445E+02  0.21924200827E+01  0.35142563363E+02  0.47000000000E+01 0. -1.
        -11    1    6    6    0    0  0.10316945689E+03 -0.32125346283E+02  0.83256652341E+02  0.13640984153E+03  0.00000000000E+00 0.  1.
         12    1    6    6    0    0  0.89798515980E+02 -0.11793187473E+03  0.14429024728E+03  0.20686076479E+03  0.00000000000E+00 0. -1.
         -5    1    3    3    0  503 -0.14462024582E+03  0.12425284037E+03 -0.92557738939E+03  0.94502347991E+03  0.47000000000E+01 0.  1.
         11    1    4    4    0    0 -0.45298306690E+02  0.62201101362E+02 -0.18208265446E+03  0.19767399084E+03  0.00000000000E+00 0. -1.
        -12    1    4    4    0    0  0.19710650240E+02 -0.10127304272E+02 -0.40765715896E+02  0.46399521735E+02  0.00000000000E+00 0.  1.
</event>
<event>
12    1  0.8226261E-002  0.1789529E+03  0.7818608E-02  0.1168869E+00
         21   -1    0    0  501  502  0.00000000000E+00  0.00000000000E+00  0.24334727058E+03  0.24334727058E+03  0.00000000000E+00 0. -1.
         21   -1    0    0  502  503 -0.00000000000E+00 -0.00000000000E+00 -0.18584017857E+03  0.18584017857E+03  0.00000000000E+00 0. -1.
         -6    2    1    2    0  503  0.16753832077E+01 -0.39991414558E+02 -0.87328037811E+02  0.19912392096E+03  0.17441912040E+03 0.  0.
        -24    2    3    3    0    0  0.89895616583E+00  0.35689622352E+02 -0.52137705689E+01  0.87351540327E+02  0.79552189964E+02 0.  0.
          6    2    1    2  501    0 -0.16753832077E+01  0.39991414558E+02  0.14483512981E+03  0.23006352820E+03  0.17421220402E+03 0.  0.
         24    2    5    5    0    0 -0.41218847392E+02 -0.33274839916E+02  0.73882892343E+02  0.12057407845E+03  0.79203650551E+02 0.  0.
          5    1    5    5  501    0  0.39543464184E+02  0.73266254474E+02  0.70952237472E+02  0.10948944975E+03  0.47000000000E+01 0. -1.
        -11    1    6    6    0    0 -0.17718423453E+02  0.17447921602E+02 -0.34988426638E+01  0.25112036912E+02  0.00000000000E+00 0.  1.
         12    1    6    6    0    0 -0.23500423939E+02 -0.50722761518E+02  0.77381735007E+02  0.95462041535E+02  0.00000000000E+00 0. -1.
         -5    1    3    3    0  503  0.77642704183E+00 -0.75681036910E+02 -0.82114267242E+02  0.11177238063E+03  0.47000000000E+01 0.  1.
         13    1    4    4    0    0 -0.84214814246E+01  0.99707446884E+01 -0.40587506205E+02  0.42634290881E+02  0.00000000000E+00 0. -1.
        -14    1    4    4    0    0  0.93204375905E+01  0.25718877664E+02  0.35373735636E+02  0.44717249446E+02  0.00000000000E+00 0.  1.
</event>
<event>
12    1  0.8226261E-002  0.1827981E+03  0.7818608E-02  0.1165134E+00
         21   -1    0    0  501  502  0.00000000000E+00  0.00000000000E+00  0.32338464968E+02  0.32338464968E+02  0.00000000000E+00 0.  1.
         21   -1    0    0  502  503 -0.00000000000E+00 -0.00000000000E+00 -0.14597772902E+04  0.14597772902E+04  0.00000000000E+00 0.  1.
         -6    2    1    2    0  503 -0.10222166674E+01  0.62944263537E+02 -0.11170412293E+04  0.11318910834E+04  0.17156133468E+03 0.  0.
        -24    2    3    3    0    0 -0.45742986707E+02  0.48668027217E+02 -0.40144017501E+03  0.41473648566E+03  0.79944610348E+02 0.  0.
          6    2    1    2  501    0  0.10222166674E+01 -0.62944263537E+02 -0.31039759597E+03  0.36022467178E+03  0.17161620358E+03 0.  0.
         24    2    5    5    0    0  0.33360359936E+02  0.23301072348E+02 -0.15218640265E+03  0.17709388473E+03  0.80905434118E+02 0.  0.
          5    1    5    5  501    0 -0.32338143269E+02 -0.86245335885E+02 -0.15821119333E+03  0.18313078705E+03  0.47000000000E+01 0. -1.
        -11    1    6    6    0    0  0.48680598204E+02 -0.46006888585E+01 -0.12828536056E+03  0.13728838521E+03  0.00000000000E+00 0.  1.
         12    1    6    6    0    0 -0.15320238267E+02  0.27901761207E+02 -0.23901042084E+02  0.39805499516E+02  0.00000000000E+00 0. -1.
         -5    1    3    3    0  503  0.44720770040E+02  0.14276236320E+02 -0.71560105430E+03  0.71715459777E+03  0.47000000000E+01 0.  1.
         13    1    4    4    0    0 -0.54195072510E+02  0.31864243393E+01 -0.16158699446E+03  0.17046294601E+03  0.00000000000E+00 0. -1.
        -14    1    4    4    0    0  0.84520858032E+01  0.45481602877E+02 -0.23985318055E+03  0.24427353965E+03  0.00000000000E+00 0.  1.
</event>
<event>
12    1  0.8226261E-002  0.2394594E+03  0.7818608E-02  0.1120234E+00
         21   -1    0    0  503  502  0.00000000000E+00  0.00000000000E+00  0.31174628756E+03  0.31174628756E+03  0.00000000000E+00 0. -1.
         21   -1    0    0  501  503 -0.00000000000E+00 -0.00000000000E+00 -0.30329319731E+03  0.30329319731E+03  0.00000000000E+00 0.  1.
          6    2    1    2  501    0 -0.47604231426E+02 -0.15750443645E+03 -0.18899230125E+03  0.30467601967E+03  0.17330775136E+03 0.  0.
         24    2    3    3    0    0 -0.32318075311E+02 -0.91415694365E+02 -0.19982223722E+03  0.23582279961E+03  0.79260199091E+02 0.  0.
         -6    2    1    2    0  502  0.47604231426E+02  0.15750443645E+03  0.19744539150E+03  0.31036346519E+03  0.17397410023E+03 0.  0.
        -24    2    5    5    0    0  0.65872377488E+02  0.13001142297E+03  0.21552392023E+03  0.27243571609E+03  0.80799251204E+02 0.  0.
          5    1    3    3  501    0 -0.15286156115E+02 -0.66088742090E+02  0.10829935974E+02  0.68853220063E+02  0.47000000000E+01 0. -1.
        -11    1    4    4    0    0 -0.43372657290E+02 -0.12358863822E+02 -0.80222148602E+02  0.92030006203E+02  0.00000000000E+00 0.  1.
         12    1    4    4    0    0  0.11054581979E+02 -0.79056830542E+02 -0.11960008862E+03  0.14379279341E+03  0.00000000000E+00 0. -1.
         -5    1    5    5    0  502 -0.18268146062E+02  0.27493013483E+02 -0.18078528726E+02  0.37927749100E+02  0.47000000000E+01 0.  1.
         13    1    6    6    0    0  0.53023579892E+02  0.11988969681E+03  0.12737632264E+03  0.18278338818E+03  0.00000000000E+00 0. -1.
        -14    1    6    6    0    0  0.12848797596E+02  0.10121726163E+02  0.88147597587E+02  0.89652327915E+02  0.00000000000E+00 0.  1.
</event>
<event>
12    1  0.8226261E-002  0.1811854E+03  0.7818608E-02  0.1170200E+00
         21   -1    0    0  501  502  0.00000000000E+00  0.00000000000E+00  0.80418420019E+03  0.80418420019E+03  0.00000000000E+00 0.  1.
         21   -1    0    0  502  503 -0.00000000000E+00 -0.00000000000E+00 -0.44819944528E+02  0.44819944528E+02  0.00000000000E+00 0.  1.
         -6    2    1    2    0  503 -0.56810650878E+02 -0.31624489224E+01  0.22357018467E+03  0.28777032313E+03  0.17201941829E+03 0.  0.
        -24    2    3    3    0    0 -0.90714546728E+02  0.39273812057E+02  0.17271985186E+03  0.21321727661E+03  0.76536909496E+02 0.  0.
          6    2    1    2  501    0  0.56810650878E+02  0.31624489224E+01  0.53579407099E+03  0.56123382158E+03  0.15706898116E+03 0.  0.
         24    2    5    5    0    0  0.46022463727E+02 -0.40734703615E+02  0.47322516482E+03  0.48390140275E+03  0.80256636608E+02 0.  0.
          5    1    5    5  501    0  0.10788187151E+02  0.43897152538E+02  0.62568906172E+02  0.77332418832E+02  0.47000000000E+01 0. -1.
        -11    1    6    6    0    0 -0.10663384016E+02  0.11505645409E+02  0.18104394339E+03  0.18172230759E+03  0.00000000000E+00 0.  1.
         12    1    6    6    0    0  0.56685847743E+02 -0.52240349024E+02  0.29218122143E+03  0.30217909517E+03  0.00000000000E+00 0. -1.
         -5    1    3    3    0  503  0.33903895851E+02 -0.42436260980E+02  0.50850332810E+02  0.74553046529E+02  0.47000000000E+01 0.  1.
         13    1    4    4    0    0 -0.60644256839E+02  0.54283624486E+02  0.15536390543E+03  0.17539207760E+03  0.00000000000E+00 0. -1.
        -14    1    4    4    0    0 -0.30070289889E+02 -0.15009812429E+02  0.17355946427E+02  0.37825199002E+02  0.00000000000E+00 0.  1.
</event>
<event>
12    1  0.8226261E-002  0.2605654E+03  0.7818608E-02  0.1106810E+00
         21   -1    0    0  501  502  0.00000000000E+00  0.00000000000E+00  0.67279934597E+02  0.67279934597E+02  0.00000000000E+00 0. -1.
         21   -1    0    0  502  503 -0.00000000000E+00 -0.00000000000E+00 -0.10194963328E+04  0.10194963328E+04  0.00000000000E+00 0.  1.
         -6    2    1    2    0  503  0.64661690030E+02 -0.18405852953E+03 -0.53135503229E+03  0.59180442085E+03  0.17272992140E+03 0.  0.
        -24    2    3    3    0    0  0.20522617784E+02 -0.11861752052E+03 -0.47069842748E+03  0.49214451383E+03  0.78472408212E+02 0.  0.
          6    2    1    2  501    0 -0.64661690030E+02  0.18405852953E+03 -0.42086136596E+03  0.49497184660E+03  0.17266778250E+03 0.  0.
         24    2    5    5    0    0 -0.10187632038E+03  0.83634490353E+02 -0.23822896384E+03  0.28320168661E+03  0.77952828394E+02 0.  0.
          5    1    5    5  501    0  0.37214630353E+02  0.10042403918E+03 -0.18263240212E+03  0.21177015999E+03  0.47000000000E+01 0. -1.
        -11    1    6    6    0    0 -0.20881550237E+02 -0.10994756994E+02 -0.16213993328E+02  0.28632453637E+02  0.00000000000E+00 0.  1.
         12    1    6    6    0    0 -0.80994770146E+02  0.94629247347E+02 -0.22201497052E+03  0.25456923297E+03  0.00000000000E+00 0. -1.
         -5    1    3    3    0  503  0.44139072245E+02 -0.65441009009E+02 -0.60656604808E+02  0.99659907012E+02  0.47000000000E+01 0.  1.
         13    1    4    4    0    0 -0.15536016777E+02 -0.71782292297E+02 -0.16246052547E+03  0.17829045864E+03  0.00000000000E+00 0. -1.
        -14    1    4    4    0    0  0.36058634561E+02 -0.46835228223E+02 -0.30823790201E+03  0.31385405520E+03  0.00000000000E+00 0.  1.
</event>
<event>
12    1  0.8226261E-002  0.2318811E+03  0.7818608E-02  0.1125559E+00
         21   -1    0    0  503  502  0.00000000000E+00  0.00000000000E+00  0.50543569148E+03  0.50543569148E+03  0.00000000000E+00 0.  1.
         21   -1    0    0  501  503 -0.00000000000E+00 -0.00000000000E+00 -0.14740384023E+03  0.14740384023E+03  0.00000000000E+00 0.  1.
          6    2    1    2  501    0 -0.11106021747E+03  0.10365542636E+03  0.51473491699E+01  0.23058805384E+03  0.17339416383E+03 0.  0.
         24    2    3    3    0    0 -0.94814563156E+02  0.76494051503E+02 -0.60187315641E+02  0.15783937691E+03  0.80309492832E+02 0.  0.
         -6    2    1    2    0  502  0.11106021747E+03 -0.10365542636E+03  0.35288450208E+03  0.42225147786E+03  0.17518567131E+03 0.  0.
        -24    2    5    5    0    0  0.77700823614E+02 -0.96086754001E+02  0.35829067233E+03  0.38730221984E+03  0.79754130503E+02 0.  0.
          5    1    3    3  501    0 -0.16245654311E+02  0.27161374861E+02  0.65334664811E+02  0.72748676924E+02  0.47000000000E+01 0. -1.
        -13    1    4    4    0    0 -0.93886190933E+02  0.85435867830E+02 -0.35866489686E+02  0.13191023251E+03  0.00000000000E+00 0.  1.
         14    1    4    4    0    0 -0.92837222326E+00 -0.89418163262E+01 -0.24320825955E+02  0.25929144400E+02  0.00000000000E+00 0. -1.
         -5    1    5    5    0  502  0.33359393853E+02 -0.75686723624E+01 -0.54061702500E+01  0.34949258023E+02  0.47000000000E+01 0.  1.
         13    1    6    6    0    0  0.24140053889E+01 -0.11156831695E+02  0.14713862686E+03  0.14758075020E+03  0.00000000000E+00 0. -1.
        -14    1    6    6    0    0  0.75286818226E+02 -0.84929922307E+02  0.21115204547E+03  0.23972146964E+03  0.00000000000E+00 0.  1.
</event>
<event>
12    1  0.8226261E-002  0.1894814E+03  0.7818608E-02  0.1159113E+00
         21   -1    0    0  501  502  0.00000000000E+00  0.00000000000E+00  0.31855888582E+03  0.31855888582E+03  0.00000000000E+00 0.  1.
         21   -1    0    0  502  503 -0.00000000000E+00 -0.00000000000E+00 -0.31067238155E+03  0.31067238155E+03  0.00000000000E+00 0.  1.
         -6    2    1    2    0  503 -0.59260279667E+02  0.53267136775E+02 -0.24750250936E+03  0.31170610660E+03  0.17191287370E+03 0.  0.
        -24    2    3    3    0    0 -0.10225776336E+03  0.26242533840E+02 -0.13559363777E+03  0.18872318783E+03  0.78009526801E+02 0.  0.
          6    2    1    2  501    0  0.59260279667E+02 -0.53267136775E+02  0.25538901363E+03  0.31752516077E+03  0.17102488367E+03 0.  0.
         24    2    5    5    0    0  0.39260205274E+02 -0.95575697347E+02  0.21622354811E+03  0.25632025114E+03  0.90947076625E+02 0.  0.
          5    1    5    5  501    0  0.20000074392E+02  0.42308560572E+02  0.39165465519E+02  0.61204909629E+02  0.47000000000E+01 0. -1.
        -13    1    6    6    0    0  0.57029846698E+02 -0.80027558034E+02  0.21007224445E+03  0.23192059276E+03  0.00000000000E+00 0.  1.
         14    1    6    6    0    0 -0.17769641423E+02 -0.15548139312E+02  0.61513036634E+01  0.24399658382E+02  0.00000000000E+00 0. -1.
         -5    1    3    3    0  503  0.42997483696E+02  0.27024602935E+02 -0.11190887159E+03  0.12298291877E+03  0.47000000000E+01 0.  1.
         11    1    4    4    0    0 -0.14202772242E+01 -0.10299100152E+02  0.52852630593E+01  0.11662875158E+02  0.00000000000E+00 0. -1.
        -12    1    4    4    0    0 -0.10083748614E+03  0.36541633992E+02 -0.14087890083E+03  0.17706031268E+03  0.00000000000E+00 0.  1.
</event>
<event>
12    1  0.8226261E-002  0.2297136E+03  0.7818608E-02  0.1127158E+00
         21   -1    0    0  503  502  0.00000000000E+00  0.00000000000E+00  0.17645958397E+03  0.17645958397E+03  0.00000000000E+00 0. -1.
         21   -1    0    0  501  503 -0.00000000000E+00 -0.00000000000E+00 -0.29741827144E+03  0.29741827144E+03  0.00000000000E+00 0. -1.
          6    2    1    2  501    0 -0.14543168331E+03 -0.35092313244E+02 -0.48720284536E+02  0.23307351151E+03  0.17195275713E+03 0.  0.
         24    2    3    3    0    0 -0.99256224573E+02 -0.62487936548E+02  0.26832417087E+02  0.14026729465E+03  0.72099896053E+02 0.  0.
         -6    2    1    2    0  502  0.14543168331E+03  0.35092313244E+02 -0.72238402930E+02  0.24080434390E+03  0.17431724018E+03 0.  0.
        -24    2    5    5    0    0  0.17723708560E+03  0.27404111231E+02 -0.59504135169E+02  0.20537916019E+03  0.80472899265E+02 0.  0.
          5    1    3    3  501    0 -0.46175458733E+02  0.27395623304E+02 -0.75552701624E+02  0.92806216861E+02  0.47000000000E+01 0. -1.
        -11    1    4    4    0    0  0.10137982113E+02  0.23996486682E+01  0.32106265299E+01  0.10901610788E+02  0.00000000000E+00 0.  1.
         12    1    4    4    0    0 -0.10939420669E+03 -0.64887585216E+02  0.23621790557E+02  0.12936568386E+03  0.00000000000E+00 0. -1.
         -5    1    5    5    0  502 -0.31805402290E+02  0.76882020133E+01 -0.12734267761E+02  0.35425183704E+02  0.47000000000E+01 0.  1.
         13    1    6    6    0    0  0.15724403226E+03  0.43861965488E+02 -0.69758791096E+02  0.17752703071E+03  0.00000000000E+00 0. -1.
        -14    1    6    6    0    0  0.19993053335E+02 -0.16457854257E+02  0.10254655927E+02  0.27852129480E+02  0.00000000000E+00 0.  1.
</event>
<event>
12    1  0.8226261E-002  0.1831468E+03  0.7818608E-02  0.1167392E+00
         21   -1    0    0  501  502  0.00000000000E+00  0.00000000000E+00  0.10570001084E+04  0.10570001084E+04  0.00000000000E+00 0.  1.
         21   -1    0    0  502  503 -0.00000000000E+00 -0.00000000000E+00 -0.30024834155E+02  0.30024834155E+02  0.00000000000E+00 0.  1.
         -6    2    1    2    0  503  0.15574929659E+02  0.52318040402E+00  0.46544643635E+03  0.49638345379E+03  0.17179434197E+03 0.  0.
        -24    2    3    3    0    0  0.34983317723E+02  0.61530519835E+02  0.25267988382E+03  0.27414422038E+03  0.79360522229E+02 0.  0.
          6    2    1    2  501    0 -0.15574929659E+02 -0.52318040402E+00  0.56152883788E+03  0.59064148876E+03  0.18248254797E+03 0.  0.
         24    2    5    5    0    0 -0.75916619032E+02  0.12286735454E+01  0.45419721143E+03  0.46740855280E+03  0.80067506950E+02 0.  0.
          5    1    5    5  501    0  0.60341689373E+02 -0.17518539494E+01  0.10733162645E+03  0.12323293596E+03  0.47000000000E+01 0. -1.
        -11    1    6    6    0    0  0.95895418303E+01  0.19271338583E+02  0.63221966240E+02  0.66785932789E+02  0.00000000000E+00 0.  1.
         12    1    6    6    0    0 -0.85506160862E+02 -0.18042665037E+02  0.39097524519E+03  0.40062262001E+03  0.00000000000E+00 0. -1.
         -5    1    3    3    0  503 -0.19408388065E+02 -0.61007339431E+02  0.21276655253E+03  0.22223923341E+03  0.47000000000E+01 0.  1.
         13    1    4    4    0    0  0.52667967711E+02  0.67823186097E+02  0.22370831488E+03  0.23962326586E+03  0.00000000000E+00 0. -1.
        -14    1    4    4    0    0 -0.17684649987E+02 -0.62926662624E+01  0.28971568940E+02  0.34520954516E+02  0.00000000000E+00 0.  1.
</event>
<event>
12    1  0.8226261E-002  0.1930515E+03  0.7818608E-02  0.1157230E+00
         21   -1    0    0  503  502  0.00000000000E+00  0.00000000000E+00  0.22904173384E+03  0.22904173384E+03  0.00000000000E+00 0. -1.
         21   -1    0    0  501  503 -0.00000000000E+00 -0.00000000000E+00 -0.19237539000E+03  0.19237539000E+03  0.00000000000E+00 0. -1.
          6    2    1    2  501    0  0.76229156108E+00 -0.78708735629E+02 -0.71528367668E+02  0.20587662319E+03  0.17627600642E+03 0.  0.
         24    2    3    3    0    0  0.44820325290E+02  0.85932497030E+01 -0.50678006696E+02  0.10577879838E+03  0.80859064576E+02 0.  0.
         -6    2    1    2    0  502 -0.76229156108E+00  0.78708735629E+02  0.10819471151E+03  0.21554050066E+03  0.16898510488E+03 0.  0.
        -24    2    5    5    0    0  0.74601019765E+01  0.44727047521E+02  0.14341673328E+03  0.16569028802E+03  0.69489209666E+02 0.  0.
          5    1    3    3  501    0 -0.44058033729E+02 -0.87301985332E+02 -0.20850360971E+02  0.10009782481E+03  0.47000000000E+01 0. -1.
        -13    1    4    4    0    0 -0.17207727944E+01  0.11444583525E+02 -0.57500803438E+02  0.58653916725E+02  0.00000000000E+00 0.  1.
         14    1    4    4    0    0  0.46541098084E+02 -0.28513338221E+01  0.68227967422E+01  0.47124881653E+02  0.00000000000E+00 0. -1.
         -5    1    5    5    0  502 -0.82223935376E+01  0.33981688107E+02 -0.35222021766E+02  0.49850212631E+02  0.47000000000E+01 0.  1.
         11    1    6    6    0    0  0.33292258668E+02  0.54426250610E+01  0.41728621165E+02  0.53658871393E+02  0.00000000000E+00 0. -1.
        -12    1    6    6    0    0 -0.25832156692E+02  0.39284422460E+02  0.10168811211E+03  0.11203141663E+03  0.00000000000E+00 0.  1.
</event>
<event>
12    1  0.8226261E-002  0.1964045E+03  0.7818608E-02  0.1153419E+00
         21   -1    0    0  501  502  0.00000000000E+00  0.00000000000E+00  0.62377473338E+02  0.62377473338E+02  0.00000000000E+00 0.  1.
         21   -1    0    0  502  503 -0.00000000000E+00 -0.00000000000E+00 -0.62450782065E+03  0.62450782065E+03  0.00000000000E+00 0.  1.
         -6    2    1    2    0  503  0.84273396275E+02 -0.19111099505E+02 -0.22604869099E+03  0.29762240259E+03  0.17324504143E+03 0.  0.
        -24    2    3    3    0    0  0.49499357182E+02  0.34603014227E+02 -0.51724800011E+02  0.11186624852E+03  0.78683210827E+02 0.  0.
          6    2    1    2  501    0 -0.84273396275E+02  0.19111099505E+02 -0.33608165632E+03  0.38926289140E+03  0.17637312568E+03 0.  0.
         24    2    5    5    0    0 -0.31258669786E+02 -0.16428703929E+02 -0.60539154265E+02  0.10638588758E+03  0.80037248371E+02 0.  0.
          5    1    5    5  501    0 -0.53014726489E+02  0.35539803434E+02 -0.27554250206E+03  0.28287700382E+03  0.47000000000E+01 0. -1.
        -11    1    6    6    0    0 -0.57849678649E+02 -0.86715161278E+01 -0.32263864927E+02  0.66803723637E+02  0.00000000000E+00 0.  1.
         12    1    6    6    0    0  0.26591008864E+02 -0.77571878013E+01 -0.28275289338E+02  0.39582163940E+02  0.00000000000E+00 0. -1.
         -5    1    3    3    0  503  0.34774039093E+02 -0.53714113732E+02 -0.17432389098E+03  0.18575615407E+03  0.47000000000E+01 0.  1.
         13    1    4    4    0    0  0.25834610710E+02  0.12813697725E+01  0.17673455054E+02  0.31327624114E+02  0.00000000000E+00 0. -1.
        -14    1    4    4    0    0  0.23664746472E+02  0.33321644455E+02 -0.69398255065E+02  0.80538624403E+02  0.00000000000E+00 0.  1.
</event>
<event>
12    1  0.8226261E-002  0.1783662E+03  0.7818608E-02  0.1170980E+00
         21   -1    0    0  501  502  0.00000000000E+00  0.00000000000E+00  0.42575818972E+03  0.42575818972E+03  0.00000000000E+00 0. -1.
         21   -1    0    0  502  503 -0.00000000000E+00 -0.00000000000E+00 -0.91533369607E+02  0.91533369607E+02  0.00000000000E+00 0. -1.
         -6    2    1    2    0  503  0.47494051782E+02  0.11388917343E+02  0.45522769609E+02  0.17793428794E+03  0.16493300422E+03 0.  0.
        -24    2    3    3    0    0  0.94309046979E+02  0.28877999703E+01  0.37407370928E+02  0.12943828328E+03  0.80326969625E+02 0.  0.
          6    2    1    2  501    0 -0.47494051782E+02 -0.11388917343E+02  0.28870205051E+03  0.33935727139E+03  0.17154909293E+03 0.  0.
         24    2    5    5    0    0  0.46667951146E+01  0.11075330986E+02  0.53496298771E+02  0.97346461606E+02  0.80436544381E+02 0.  0.
          5    1    5    5  501    0 -0.52160846896E+02 -0.22464248329E+02  0.23520575174E+03  0.24201080978E+03  0.47000000000E+01 0. -1.
        -13    1    6    6    0    0 -0.11664994720E+02 -0.19767218822E+02 -0.98860690436E+01  0.24990986433E+02  0.00000000000E+00 0.  1.
         14    1    6    6    0    0  0.16331789834E+02  0.30842549807E+02  0.63382367815E+02  0.72355475174E+02  0.00000000000E+00 0. -1.
         -5    1    3    3    0  503 -0.46814995198E+02  0.85011173731E+01  0.81153986809E+01  0.48496004657E+02  0.47000000000E+01 0.  1.
         11    1    4    4    0    0  0.14448490740E+02  0.27993723217E+02 -0.10226837471E+02  0.33120924336E+02  0.00000000000E+00 0. -1.
        -12    1    4    4    0    0  0.79860556239E+02 -0.25105923247E+02  0.47634208399E+02  0.96317358948E+02  0.00000000000E+00 0.  1.
</event>
<event>
12    1  0.8226261E-002  0.1818145E+03  0.7818608E-02  0.1166185E+00
         21   -1    0    0  501  502  0.00000000000E+00  0.00000000000E+00  0.33913220342E+02  0.33913220342E+02  0.00000000000E+00 0.  1.
         21   -1    0    0  502  503 -0.00000000000E+00 -0.00000000000E+00 -0.10889283755E+04  0.10889283755E+04  0.00000000000E+00 0.  1.
         -6    2    1    2    0  503 -0.42082930326E+02 -0.40123199904E+02 -0.34414176862E+03  0.38921725871E+03  0.17226628623E+03 0.  0.
        -24    2    3    3    0    0  0.36470709412E+02 -0.13052548118E+02 -0.21170433600E+03  0.23280351870E+03  0.88759623599E+02 0.  0.
          6    2    1    2  501    0  0.42082930326E+02  0.40123199904E+02 -0.71087338656E+03  0.73362433716E+03  0.17170571380E+03 0.  0.
         24    2    5    5    0    0  0.92837103348E+02  0.11618425428E+02 -0.44205480980E+03  0.45853521440E+03  0.78028023230E+02 0.  0.
          5    1    5    5  501    0 -0.50754173021E+02  0.28504774476E+02 -0.26881857676E+03  0.27508912276E+03  0.47000000000E+01 0. -1.
        -11    1    6    6    0    0  0.27851116496E+02  0.26285884382E+02 -0.63434128994E+02  0.74098050778E+02  0.00000000000E+00 0.  1.
         12    1    6    6    0    0  0.64985986851E+02 -0.14667458953E+02 -0.37862068081E+03  0.38443716362E+03  0.00000000000E+00 0. -1.
         -5    1    3    3    0  503 -0.78553639738E+02 -0.27070651786E+02 -0.13243743262E+03  0.15641374001E+03  0.47000000000E+01 0.  1.
         11    1    4    4    0    0 -0.96003229896E+01  0.30993612528E+02 -0.59053155498E+02  0.67379858959E+02  0.00000000000E+00 0. -1.
        -12    1    4    4    0    0  0.46071032402E+02 -0.44046160646E+02 -0.15265118050E+03  0.16542365974E+03  0.00000000000E+00 0.  1.
</event>
<event>
12    1  0.8226261E-002  0.2142362E+03  0.7818608E-02  0.1138599E+00
         21   -1    0    0  503  502  0.00000000000E+00  0.00000000000E+00  0.99246065217E+02  0.99246065217E+02  0.00000000000E+00 0.  1.
         21   -1    0    0  501  503 -0.00000000000E+00 -0.00000000000E+00 -0.47672009423E+03  0.47672009423E+03  0.00000000000E+00 0.  1.
          6    2    1    2  501    0  0.11267236572E+03  0.56515703329E+02 -0.24408176767E+03  0.32359607091E+03  0.17102462126E+03 0.  0.
         24    2    3    3    0    0  0.80199394107E+02  0.37151311636E+01 -0.56082923927E+02  0.12558584502E+03  0.78617842112E+02 0.  0.
         -6    2    1    2    0  502 -0.11267236572E+03 -0.56515703329E+02 -0.13339226134E+03  0.25237008854E+03  0.17322840265E+03 0.  0.
        -24    2    5    5    0    0 -0.14842291152E+03 -0.47212532194E+02 -0.94892594138E+02  0.19880736930E+03  0.79128893604E+02 0.  0.
          5    1    3    3  501    0  0.32472971614E+02  0.52800572165E+02 -0.18799884374E+03  0.19801022589E+03  0.47000000000E+01 0. -1.
        -11    1    4    4    0    0 -0.85959343743E+01  0.12303168682E+02  0.67632172544E+01  0.16462051968E+02  0.00000000000E+00 0.  1.
         12    1    4    4    0    0  0.88795328482E+02 -0.85880375179E+01 -0.62846141182E+02  0.10912379305E+03  0.00000000000E+00 0. -1.
         -5    1    5    5    0  502  0.35750545801E+02 -0.93031711353E+01 -0.38499667205E+02  0.53562719247E+02  0.47000000000E+01 0.  1.
         13    1    6    6    0    0 -0.11286153168E+03 -0.10539927082E+02 -0.94728780641E+02  0.14772392250E+03  0.00000000000E+00 0. -1.
        -14    1    6    6    0    0 -0.35561379840E+02 -0.36672605112E+02 -0.16381349737E+00  0.51083446797E+02  0.00000000000E+00 0.  1.
</event>
<event>
12    1  0.8226261E-002  0.1778918E+03  0.7818608E-02  0.1170740E+00
         21   -1    0    0  503  502  0.00000000000E+00  0.00000000000E+00  0.18057585095E+02  0.18057585095E+02  0.00000000000E+00 0. -1.
         21   -1    0    0  501  503 -0.00000000000E+00 -0.00000000000E+00 -0.19680202351E+04  0.19680202351E+04  0.00000000000E+00 0. -1.
          6    2    1    2  501    0 -0.45762178399E+02 -0.24987081987E+01 -0.13376786291E+04  0.13494553067E+04  0.17188685070E+03 0.  0.
         24    2    3    3    0    0 -0.12790473118E+02 -0.61460227599E+02 -0.93726607453E+03  0.94335692207E+03  0.86681210046E+02 0.  0.
         -6    2    1    2    0  502  0.45762178399E+02  0.24987081987E+01 -0.61228402086E+03  0.63662251348E+03  0.16821439282E+03 0.  0.
        -24    2    5    5    0    0  0.77389795734E+02 -0.32631468126E+02 -0.52116966546E+03  0.53386867547E+03  0.79648912406E+02 0.  0.
          5    1    3    3  501    0 -0.32971705282E+02  0.58961519401E+02 -0.40041255458E+03  0.40609838461E+03  0.47000000000E+01 0. -1.
        -13    1    4    4    0    0  0.28158164781E+02 -0.70439382531E+01 -0.12891951749E+03  0.13214666587E+03  0.00000000000E+00 0.  1.
         14    1    4    4    0    0 -0.40948637898E+02 -0.54416289346E+02 -0.80834655703E+03  0.81121025620E+03  0.00000000000E+00 0. -1.
         -5    1    5    5    0  502 -0.31627617335E+02  0.35130176325E+02 -0.91114355399E+02  0.10275383801E+03  0.47000000000E+01 0.  1.
         11    1    6    6    0    0  0.92656320972E+02 -0.22546415820E+02 -0.39323788684E+03  0.40463510763E+03  0.00000000000E+00 0. -1.
        -12    1    6    6    0    0 -0.15266525238E+02 -0.10085052306E+02 -0.12793177863E+03  0.12923356784E+03  0.00000000000E+00 0.  1.
</event>
<event>
12    1  0.8226261E-002  0.1751045E+03  0.7818608E-02  0.1173419E+00
         21   -1    0    0  501  502  0.00000000000E+00  0.00000000000E+00  0.17376045192E+03  0.17376045192E+03  0.00000000000E+00 0. -1.
         21   -1    0    0  502  503 -0.00000000000E+00 -0.00000000000E+00 -0.29707485973E+03  0.29707485973E+03  0.00000000000E+00 0. -1.
         -6    2    1    2    0  503  0.22002020746E+01  0.12471087639E+02 -0.21392118201E+03  0.27644867725E+03  0.17464601378E+03 0.  0.
        -24    2    3    3    0    0  0.45624485979E+01 -0.60908192732E+02 -0.11783942585E+03  0.15543672387E+03  0.80893887056E+02 0.  0.
          6    2    1    2  501    0 -0.22002020746E+01 -0.12471087639E+02  0.90606774196E+02  0.19438663440E+03  0.17151153659E+03 0.  0.
         24    2    5    5    0    0  0.42935939638E+02  0.39350771375E+02  0.27496650316E+02  0.10096418476E+03  0.77754245572E+02 0.  0.
          5    1    5    5  501    0 -0.45136141713E+02 -0.51821859014E+02  0.63110123880E+02  0.93422449639E+02  0.47000000000E+01 0. -1.
        -11    1    6    6    0    0  0.17440573126E+02  0.33161402150E+02 -0.23066956513E+02  0.43999280293E+02  0.00000000000E+00 0.  1.
         12    1    6    6    0    0  0.25495366512E+02  0.61893692253E+01  0.50563606829E+02  0.56964904464E+02  0.00000000000E+00 0. -1.
         -5    1    3    3    0  503 -0.23622465233E+01  0.73379280370E+02 -0.96081756159E+02  0.12101195339E+03  0.47000000000E+01 0.  1.
         13    1    4    4    0    0  0.48414394007E+01  0.77463202388E+01 -0.72700154636E+02  0.73271805606E+02  0.00000000000E+00 0. -1.
        -14    1    4    4    0    0 -0.27899080285E+00 -0.68654512970E+02 -0.45139271211E+02  0.82164918259E+02  0.00000000000E+00 0.  1.
</event>
<event>
12    1  0.8226261E-002  0.2023008E+03  0.7818608E-02  0.1148653E+00
         21   -1    0    0  503  502  0.00000000000E+00  0.00000000000E+00  0.30356062652E+02  0.30356062652E+02  0.00000000000E+00 0.  1.
         21   -1    0    0  501  503 -0.00000000000E+00 -0.00000000000E+00 -0.14880431510E+04  0.14880431510E+04  0.00000000000E+00 0.  1.
          6    2    1    2  501    0 -0.97489642576E+02  0.42239634874E+02 -0.98919231090E+03  0.10096668058E+04  0.17215462107E+03 0.  0.
         24    2    3    3    0    0 -0.53961478533E+02 -0.43008618109E+02 -0.53498807421E+03  0.54546260035E+03  0.80966823033E+02 0.  0.
         -6    2    1    2    0  502  0.97489642576E+02 -0.42239634874E+02 -0.46849477749E+03  0.50873240793E+03  0.16743025168E+03 0.  0.
        -24    2    5    5    0    0  0.12084349660E+03 -0.65562867438E+02 -0.43029085432E+03  0.45802732514E+03  0.75744115308E+02 0.  0.
          5    1    3    3  501    0 -0.43528164043E+02  0.85248252983E+02 -0.45420423669E+03  0.46420420542E+03  0.47000000000E+01 0. -1.
        -11    1    4    4    0    0 -0.35135243660E+02 -0.36315019999E+02 -0.51402487498E+03  0.51650250544E+03  0.00000000000E+00 0.  1.
         12    1    4    4    0    0 -0.18826234873E+02 -0.66935981093E+01 -0.20963199229E+02  0.28960094908E+02  0.00000000000E+00 0. -1.
         -5    1    5    5    0  502 -0.23353854029E+02  0.23323232564E+02 -0.38203923170E+02  0.50705082790E+02  0.47000000000E+01 0.  1.
         13    1    6    6    0    0  0.20364040614E+02 -0.43548359018E+02 -0.20184927814E+03  0.20749526455E+03  0.00000000000E+00 0. -1.
        -14    1    6    6    0    0  0.10047945599E+03 -0.22014508420E+02 -0.22844157617E+03  0.25053206059E+03  0.00000000000E+00 0.  1.
</event>
<event>
12    1  0.8226261E-002  0.2842344E+03  0.7818608E-02  0.1094641E+00
         21   -1    0    0  503  502  0.00000000000E+00  0.00000000000E+00  0.24405846546E+03  0.24405846546E+03  0.00000000000E+00 0. -1.
         21   -1    0    0  501  503 -0.00000000000E+00 -0.00000000000E+00 -0.47673422945E+03  0.47673422945E+03  0.00000000000E+00 0. -1.
          6    2    1    2  501    0 -0.15217638027E+03  0.15212095324E+03 -0.32391184036E+03  0.43093857672E+03  0.18571683135E+03 0.  0.
         24    2    3    3    0    0 -0.41330584633E+02  0.54251159791E+02 -0.23728022059E+03  0.25949641613E+03  0.79906703956E+02 0.  0.
         -6    2    1    2    0  502  0.15217638027E+03 -0.15212095324E+03  0.91236076380E+02  0.28985411820E+03  0.17144373151E+03 0.  0.
        -24    2    5    5    0    0  0.86290632344E+02 -0.15374256022E+03  0.22594348383E+02  0.19457905214E+03  0.79168522163E+02 0.  0.
          5    1    3    3  501    0 -0.11084579564E+03  0.97869793451E+02 -0.86631619774E+02  0.17144216058E+03  0.47000000000E+01 0. -1.
        -11    1    4    4    0    0 -0.30964749378E+01 -0.16185573620E+02 -0.12001409663E+02  0.20386141968E+02  0.00000000000E+00 0.  1.
         12    1    4    4    0    0 -0.38234109696E+02  0.70436733411E+02 -0.22527881093E+03  0.23911027416E+03  0.00000000000E+00 0. -1.
         -5    1    5    5    0  502  0.65885747928E+02  0.16216069766E+01  0.68641727996E+02  0.95275066054E+02  0.47000000000E+01 0.  1.
         11    1    6    6    0    0  0.98931501263E+02 -0.11192835215E+03  0.21138920067E+02  0.15087164047E+03  0.00000000000E+00 0. -1.
        -12    1    6    6    0    0 -0.12640868918E+02 -0.41814208074E+02  0.14554283163E+01  0.43707411676E+02  0.00000000000E+00 0.  1.
</event>
<event>
12    1  0.8226261E-002  0.1805311E+03  0.7818608E-02  0.1167792E+00
         21   -1    0    0  503  502  0.00000000000E+00  0.00000000000E+00  0.11706391206E+03  0.11706391206E+03  0.00000000000E+00 0. -1.
         21   -1    0    0  501  503 -0.00000000000E+00 -0.00000000000E+00 -0.27817629924E+03  0.27817629924E+03  0.00000000000E+00 0. -1.
          6    2    1    2  501    0  0.53729670305E+02 -0.11226830912E+02 -0.59741168956E+02  0.18819531119E+03  0.16981033150E+03 0.  0.
         24    2    3    3    0    0  0.34136434952E+02 -0.41916695970E+02  0.20444080262E+02  0.10000502328E+03  0.81613348614E+02 0.  0.
         -6    2    1    2    0  502 -0.53729670305E+02  0.11226830912E+02 -0.10137121822E+03  0.20704490012E+03  0.17198414920E+03 0.  0.
        -24    2    5    5    0    0 -0.69480562822E+02 -0.20793932525E+02 -0.12333000126E+03  0.16488214335E+03  0.81950568898E+02 0.  0.
          5    1    3    3  501    0  0.19593235354E+02  0.30689865058E+02 -0.80185249218E+02  0.88190287907E+02  0.47000000000E+01 0. -1.
        -13    1    4    4    0    0  0.17255530778E+02 -0.57109920456E+02 -0.11551986358E+02  0.60767958216E+02  0.00000000000E+00 0.  1.
         14    1    4    4    0    0  0.16880904174E+02  0.15193224486E+02  0.31996066620E+02  0.39237065068E+02  0.00000000000E+00 0. -1.
         -5    1    5    5    0  502  0.15750892517E+02  0.32020763437E+02  0.21958783039E+02  0.42162756773E+02  0.47000000000E+01 0.  1.
         13    1    6    6    0    0 -0.73788066663E+02 -0.91563365535E+01 -0.47920429664E+02  0.88458379253E+02  0.00000000000E+00 0. -1.
        -14    1    6    6    0    0  0.43075038407E+01 -0.11637595972E+02 -0.75409571598E+02  0.76423764092E+02  0.00000000000E+00 0.  1.
</event>
<event>
12    1  0.8226261E-002  0.3133254E+03  0.7818608E-02  0.1079051E+00
         21   -1    0    0  501  502  0.00000000000E+00  0.00000000000E+00  0.97893948106E+03  0.97893948106E+03  0.00000000000E+00 0. -1.
         21   -1    0    0  502  503 -0.00000000000E+00 -0.00000000000E+00 -0.99558821000E+02  0.99558821000E+02  0.00000000000E+00 0.  1.
         -6    2    1    2    0  503 -0.62431299629E+02 -0.25333719888E+03  0.42935151663E+03  0.53152187534E+03  0.17348018801E+03 0.  0.
        -24    2    3    3    0    0 -0.32042590007E+02 -0.22940621032E+03  0.25693832008E+03  0.35476054974E+03  0.78637207602E+02 0.  0.
          6    2    1    2  501    0  0.62431299629E+02  0.25333719888E+03  0.45002914344E+03  0.54697642672E+03  0.16905495537E+03 0.  0.
         24    2    5    5    0    0  0.10493349537E+03  0.17858289289E+03  0.35819911583E+03  0.42108168148E+03  0.78104339308E+02 0.  0.
          5    1    5    5  501    0 -0.42502195742E+02  0.74754305990E+02  0.91830027609E+02  0.12589474523E+03  0.47000000000E+01 0. -1.
        -11    1    6    6    0    0  0.65941208165E+02  0.16855593078E+03  0.28777626515E+03  0.33996253252E+03  0.00000000000E+00 0.  1.
         12    1    6    6    0    0  0.38992287206E+02  0.10026962107E+02  0.70422850677E+02  0.81119148961E+02  0.00000000000E+00 0. -1.
         -5    1    3    3    0  503 -0.30388709623E+02 -0.23930988562E+02  0.17241319655E+03  0.17676132561E+03  0.47000000000E+01 0.  1.
         11    1    4    4    0    0 -0.25684489156E+02 -0.13998912792E+03  0.99727224526E+02  0.17378771024E+03  0.00000000000E+00 0. -1.
        -12    1    4    4    0    0 -0.63581008502E+01 -0.89417082394E+02  0.15721109555E+03  0.18097283949E+03  0.00000000000E+00 0.  1.
</event>
<event>
12    1  0.8226261E-002  0.1974094E+03  0.7818608E-02  0.1152115E+00
         21   -1    0    0  501  502  0.00000000000E+00  0.00000000000E+00  0.10080630784E+03  0.10080630784E+03  0.00000000000E+00 0. -1.
         21   -1    0    0  502  503 -0.00000000000E+00 -0.00000000000E+00 -0.63004035873E+03  0.63004035873E+03  0.00000000000E+00 0. -1.
         -6    2    1    2    0  503 -0.55298112377E+02  0.78762968494E+02 -0.36405996867E+02  0.19995124859E+03  0.17144567293E+03 0.  0.
        -24    2    3    3    0    0  0.36979913168E+01 -0.16420789756E+02 -0.28368222445E+02  0.87580505500E+02  0.81131198826E+02 0.  0.
          6    2    1    2  501    0  0.55298112377E+02 -0.78762968494E+02 -0.49282805402E+03  0.53089541797E+03  0.17236289495E+03 0.  0.
         24    2    5    5    0    0 -0.17378309114E+02 -0.85672116464E+02 -0.37150873396E+03  0.38922655765E+03  0.76399323303E+02 0.  0.
          5    1    5    5  501    0  0.72676421491E+02  0.69091479699E+01 -0.12131932006E+03  0.14166886033E+03  0.47000000000E+01 0. -1.
        -13    1    6    6    0    0 -0.23491670949E+02 -0.62811477221E+00 -0.35536078101E+02  0.42603591151E+02  0.00000000000E+00 0.  1.
         14    1    6    6    0    0  0.61133618351E+01 -0.85044001692E+02 -0.33597265586E+03  0.34662296649E+03  0.00000000000E+00 0. -1.
         -5    1    3    3    0  503 -0.58996103694E+02  0.95183758251E+02 -0.80377744220E+01  0.11237074309E+03  0.47000000000E+01 0.  1.
         13    1    4    4    0    0  0.10782669691E+02  0.31897525693E+02 -0.76287280250E+01  0.34524130725E+02  0.00000000000E+00 0. -1.
        -14    1    4    4    0    0 -0.70846783742E+01 -0.48318315450E+02 -0.20739494420E+02  0.53056374776E+02  0.00000000000E+00 0.  1.
</event>
<event>
12    1  0.8226261E-002  0.2092428E+03  0.7818608E-02  0.1142724E+00
         21   -1    0    0  501  502  0.00000000000E+00  0.00000000000E+00  0.34733433201E+03  0.34733433201E+03  0.00000000000E+00 0. -1.
         21   -1    0    0  502  503 -0.00000000000E+00 -0.00000000000E+00 -0.16738968738E+03  0.16738968738E+03  0.00000000000E+00 0.  1.
         -6    2    1    2    0  503  0.48611772580E+02 -0.10707901973E+03 -0.40920735303E+02  0.21048058998E+03  0.16970135910E+03 0.  0.
        -24    2    3    3    0    0 -0.21053308718E+02 -0.76319261107E+02  0.18253173410E+02  0.11392476274E+03  0.79861140744E+02 0.  0.
          6    2    1    2  501    0 -0.48611772580E+02  0.10707901973E+03  0.22086537994E+03  0.30424342941E+03  0.17307087388E+03 0.  0.
         24    2    5    5    0    0 -0.76153258104E+02  0.12833409394E+03  0.20484024080E+03  0.26565318856E+03  0.79643794208E+02 0.  0.
          5    1    5    5  501    0  0.27541485524E+02 -0.21255074209E+02  0.16025139138E+02  0.38590240850E+02  0.47000000000E+01 0. -1.
        -11    1    6    6    0    0 -0.52761140626E+01  0.86788757478E+02  0.10221673815E+03  0.13419533286E+03  0.00000000000E+00 0.  1.
         12    1    6    6    0    0 -0.70877144042E+02  0.41545336461E+02  0.10262350265E+03  0.13145785570E+03  0.00000000000E+00 0. -1.
         -5    1    3    3    0  503  0.69665081298E+02 -0.30759758623E+02 -0.59173908714E+02  0.96555827247E+02  0.47000000000E+01 0.  1.
         13    1    4    4    0    0 -0.35742925712E+02 -0.20270809379E+02  0.34603836056E+02  0.53720460917E+02  0.00000000000E+00 0. -1.
        -14    1    4    4    0    0  0.14689616994E+02 -0.56048451727E+02 -0.16350662645E+02  0.60204301818E+02  0.00000000000E+00 0.  1.
</event>
<event>
12    1  0.8226261E-002  0.1887296E+03  0.7818608E-02  0.1160560E+00
         21   -1    0    0  503  502  0.00000000000E+00  0.00000000000E+00  0.84425850077E+03  0.84425850077E+03  0.00000000000E+00 0. -1.
         21   -1    0    0  501  503 -0.00000000000E+00 -0.00000000000E+00 -0.41991061614E+02  0.41991061614E+02  0.00000000000E+00 0. -1.
          6    2    1    2  501    0 -0.24540523244E+01  0.70271222844E+02  0.45469721628E+03  0.49074492777E+03  0.17069551403E+03 0.  0.
         24    2    3    3    0    0 -0.15338329788E+02 -0.24000727945E+02  0.14338428916E+03  0.16518228572E+03  0.76907956900E+02 0.  0.
         -6    2    1    2    0  502  0.24540523244E+01 -0.70271222844E+02  0.34757022287E+03  0.39550463461E+03  0.17514219661E+03 0.  0.
        -24    2    5    5    0    0 -0.48325940467E+02 -0.51155163385E+01  0.16624007743E+03  0.19618934316E+03  0.92157094116E+02 0.  0.
          5    1    3    3  501    0  0.12884277463E+02  0.94271950789E+02  0.31131292712E+03  0.32556264206E+03  0.47000000000E+01 0. -1.
        -13    1    4    4    0    0  0.16987331109E+02  0.46149837489E+01  0.24363459177E+01  0.17770854640E+02  0.00000000000E+00 0.  1.
         14    1    4    4    0    0 -0.32325660897E+02 -0.28615711694E+02  0.14094794324E+03  0.14741143108E+03  0.00000000000E+00 0. -1.
         -5    1    5    5    0  502  0.50779992791E+02 -0.65155706505E+02  0.18133014544E+03  0.19931529144E+03  0.47000000000E+01 0.  1.
         11    1    6    6    0    0 -0.42018772101E+02 -0.40184838637E+02  0.57547736410E+02  0.81805503672E+02  0.00000000000E+00 0. -1.
        -12    1    6    6    0    0 -0.63071683655E+01  0.35069322298E+02  0.10869234102E+03  0.11438383949E+03  0.00000000000E+00 0.  1.
</event>
<event>
12    1  0.8226261E-002  0.2767035E+03  0.7818608E-02  0.1097669E+00
         21   -1    0    0  503  502  0.00000000000E+00  0.00000000000E+00  0.12972860873E+03  0.12972860873E+03  0.00000000000E+00 0.  1.
         21   -1    0    0  501  503 -0.00000000000E+00 -0.00000000000E+00 -0.71470820065E+03  0.71470820065E+03  0.00000000000E+00 0. -1.
          6    2    1    2  501    0  0.20965063601E+03 -0.46507777726E+02 -0.46999332295E+03  0.54479253190E+03  0.17259437021E+03 0.  0.
         24    2    3    3    0    0  0.18811790789E+03  0.18734397157E+02 -0.37272025191E+03  0.42561056970E+03  0.80527299427E+02 0.  0.
         -6    2    1    2    0  502 -0.20965063601E+03  0.46507777726E+02 -0.11498626898E+03  0.29964427748E+03  0.17449495237E+03 0.  0.
        -24    2    5    5    0    0 -0.31955434802E+02  0.42382707793E+01 -0.60893035963E+01  0.86940410986E+02  0.80513618050E+02 0.  0.
          5    1    3    3  501    0  0.21532728124E+02 -0.65242174883E+02 -0.97273071039E+02  0.11918196220E+03  0.47000000000E+01 0. -1.
        -11    1    4    4    0    0  0.44396892356E+02 -0.14913303322E+02 -0.39899751310E+02  0.61526261234E+02  0.00000000000E+00 0.  1.
         12    1    4    4    0    0  0.14372101553E+03  0.33647700479E+02 -0.33282050060E+03  0.36408430847E+03  0.00000000000E+00 0. -1.
         -5    1    5    5    0  502 -0.17769520121E+03  0.42269506946E+02 -0.10889696538E+03  0.21270386649E+03  0.47000000000E+01 0.  1.
         11    1    6    6    0    0  0.21783725490E+02 -0.68991706988E+01 -0.19952582234E+02  0.30335371934E+02  0.00000000000E+00 0. -1.
        -12    1    6    6    0    0 -0.53739160292E+02  0.11137441478E+02  0.13863278638E+02  0.56605039052E+02  0.00000000000E+00 0.  1.
</event>
<event>
12    1  0.8226261E-002  0.1859337E+03  0.7818608E-02  0.1162564E+00
         21   -1    0    0  503  502  0.00000000000E+00  0.00000000000E+00  0.20828952205E+03  0.20828952205E+03  0.00000000000E+00 0. -1.
         21   -1    0    0  501  503 -0.00000000000E+00 -0.00000000000E+00 -0.25817774693E+03  0.25817774693E+03  0.00000000000E+00 0.  1.
          6    2    1    2  501    0  0.53033915723E+02 -0.43378704006E+02 -0.16535387024E+03  0.24759823931E+03  0.17108090930E+03 0.  0.
         24    2    3    3    0    0  0.32059764991E+02 -0.89128495391E+02 -0.15294885336E+03  0.19555082963E+03  0.76648926944E+02 0.  0.
         -6    2    1    2    0  502 -0.53033915723E+02  0.43378704006E+02  0.11546564535E+03  0.21886902967E+03  0.17284972871E+03 0.  0.
        -24    2    5    5    0    0  0.18795408205E+01  0.19789113916E+02  0.13281400026E+03  0.15645899932E+03  0.80279001615E+02 0.  0.
          5    1    3    3  501    0  0.20974150733E+02  0.45749791385E+02 -0.12405016874E+02  0.52047409680E+02  0.47000000000E+01 0. -1.
        -13    1    4    4    0    0  0.57074751035E+02 -0.59666132220E+02 -0.94639652764E+02  0.12559553501E+03  0.00000000000E+00 0.  1.
         14    1    4    4    0    0 -0.25014986044E+02 -0.29462363171E+02 -0.58309200600E+02  0.69955294617E+02  0.00000000000E+00 0. -1.
         -5    1    5    5    0  502 -0.54913456544E+02  0.23589590090E+02 -0.17348354910E+02  0.62410030350E+02  0.47000000000E+01 0.  1.
         11    1    6    6    0    0 -0.28531101358E+02 -0.18319690039E+02  0.56936050819E+02  0.66267251872E+02  0.00000000000E+00 0. -1.
        -12    1    6    6    0    0  0.30410642178E+02  0.38108803955E+02  0.75877949441E+02  0.90191747449E+02  0.00000000000E+00 0.  1.
</event>
<event>
12    1  0.8226261E-002  0.1830905E+03  0.7818608E-02  0.1165596E+00
         21   -1    0    0  503  502  0.00000000000E+00  0.00000000000E+00  0.57501595397E+03  0.57501595397E+03  0.00000000000E+00 0.  1.
         21   -1    0    0  501  503 -0.00000000000E+00 -0.00000000000E+00 -0.92238792354E+02  0.92238792354E+02  0.00000000000E+00 0.  1.
          6    2    1    2  501    0  0.31443514712E+02  0.40124878129E+02  0.34767508031E+02  0.18327665749E+03  0.17257709322E+03 0.  0.
         24    2    3    3    0    0  0.76860363247E+01  0.83957502530E+02  0.56193150831E+02  0.12880772221E+03  0.79535034521E+02 0.  0.
         -6    2    1    2    0  502 -0.31443514712E+02 -0.40124878129E+02  0.44800965359E+03  0.48397808883E+03  0.17585061927E+03 0.  0.
        -24    2    5    5    0    0  0.44776569913E+01 -0.42737904671E+02  0.43683437792E+03  0.44597630900E+03  0.78892436578E+02 0.  0.
          5    1    3    3  501    0  0.23757478387E+02 -0.43832624401E+02 -0.21425642800E+02  0.54468935280E+02  0.47000000000E+01 0. -1.
        -11    1    4    4    0    0 -0.14565277446E+02  0.51140771854E+02  0.69026690076E+02  0.87133287530E+02  0.00000000000E+00 0.  1.
         12    1    4    4    0    0  0.22251313770E+02  0.32816730676E+02 -0.12833539244E+02  0.41674434685E+02  0.00000000000E+00 0. -1.
         -5    1    5    5    0  502 -0.35921171703E+02  0.26130265420E+01  0.11175275670E+02  0.38001779834E+02  0.47000000000E+01 0.  1.
         13    1    6    6    0    0 -0.30406455166E+02  0.37098538032E+01  0.11913124333E+03  0.12300637654E+03  0.00000000000E+00 0. -1.
        -14    1    6    6    0    0  0.34884112157E+02 -0.46447758474E+02  0.31770313458E+03  0.32296993246E+03  0.00000000000E+00 0.  1.
</event>
<event>
12    1  0.8226261E-002  0.2163669E+03  0.7818608E-02  0.1136954E+00
         21   -1    0    0  501  502  0.00000000000E+00  0.00000000000E+00  0.53038327791E+03  0.53038327791E+03  0.00000000000E+00 0.  1.
         21   -1    0    0  502  503 -0.00000000000E+00 -0.00000000000E+00 -0.93028940222E+02  0.93028940222E+02  0.00000000000E+00 0. -1.
         -6    2    1    2    0  503 -0.12085721657E+03  0.32614287653E+02  0.29344292592E+03  0.36355622942E+03  0.17433938919E+03 0.  0.
        -24    2    3    3    0    0 -0.13289780796E+03 -0.23708296337E+02  0.23702464074E+03  0.28279533412E+03  0.74623119763E+02 0.  0.
          6    2    1    2  501    0  0.12085721657E+03 -0.32614287653E+02  0.14391141177E+03  0.25985598871E+03  0.17647799261E+03 0.  0.
         24    2    5    5    0    0  0.10768393389E+02  0.29047749551E+02  0.31359753759E+02  0.90705991539E+02  0.79274287731E+02 0.  0.
          5    1    5    5  501    0  0.11008882318E+03 -0.61662037204E+02  0.11255165801E+03  0.16914999717E+03  0.47000000000E+01 0. -1.
        -11    1    6    6    0    0  0.41771515482E+02  0.40544763057E+01  0.28602544636E+02  0.50787831647E+02  0.00000000000E+00 0.  1.
         12    1    6    6    0    0 -0.31003122093E+02  0.24993273245E+02  0.27572091229E+01  0.39918159892E+02  0.00000000000E+00 0. -1.
         -5    1    3    3    0  503  0.12040591385E+02  0.56322583990E+02  0.56418285174E+02  0.80760895303E+02  0.47000000000E+01 0.  1.
         13    1    4    4    0    0 -0.10110049709E+03  0.13170746687E+02  0.12997950444E+03  0.16519518956E+03  0.00000000000E+00 0. -1.
        -14    1    4    4    0    0 -0.31797310868E+02 -0.36879043024E+02  0.10704513631E+03  0.11760014456E+03  0.00000000000E+00 0.  1.
</event>
<event>
12    1  0.8226261E-002  0.2092310E+03  0.7818608E-02  0.1142534E+00
         21   -1    0    0  503  502  0.00000000000E+00  0.00000000000E+00  0.17313758601E+04  0.17313758601E+04  0.00000000000E+00 0. -1.
         21   -1    0    0  501  503 -0.00000000000E+00 -0.00000000000E+00 -0.72232875100E+02  0.72232875100E+02  0.00000000000E+00 0.  1.
          6    2    1    2  501    0 -0.74635771863E+02 -0.89474893655E+02  0.99637213561E+02  0.23012983368E+03  0.17162724431E+03 0.  0.
         24    2    3    3    0    0 -0.11520603510E+03 -0.77716734265E+02  0.58257717559E+02  0.17081243943E+03  0.80440080187E+02 0.  0.
         -6    2    1    2    0  502  0.74635771863E+02  0.89474893655E+02  0.15595057714E+04  0.15734789015E+04  0.17378534843E+03 0.  0.
        -24    2    5    5    0    0  0.10869453643E+03  0.35650449608E+02  0.12395004848E+04  0.12471622705E+04  0.77245195675E+02 0.  0.
          5    1    3    3  501    0  0.40570263239E+02 -0.11758159389E+02  0.41379496002E+02  0.59317394252E+02  0.47000000000E+01 0. -1.
        -13    1    4    4    0    0 -0.69357618904E+02 -0.22158372084E+02 -0.76053736452E+01  0.73207338851E+02  0.00000000000E+00 0.  1.
         14    1    4    4    0    0 -0.45848416198E+02 -0.55558362182E+02  0.65863091204E+02  0.97605100580E+02  0.00000000000E+00 0. -1.
         -5    1    5    5    0  502 -0.34058764569E+02  0.53824444046E+02  0.32000528658E+03  0.32631663099E+03  0.47000000000E+01 0.  1.
         13    1    6    6    0    0  0.10913140814E+03  0.19928334159E+02  0.83261854996E+03  0.83997645948E+03  0.00000000000E+00 0. -1.
        -14    1    6    6    0    0 -0.43687170386E+00  0.15722115449E+02  0.40688193487E+03  0.40718581102E+03  0.00000000000E+00 0.  1.
</event>
<event>
12    1  0.8226261E-002  0.1902076E+03  0.7818608E-02  0.1158335E+00
         21   -1    0    0  501  502  0.00000000000E+00  0.00000000000E+00  0.17259551884E+03  0.17259551884E+03  0.00000000000E+00 0. -1.
         21   -1    0    0  502  503 -0.00000000000E+00 -0.00000000000E+00 -0.30237123484E+03  0.30237123484E+03  0.00000000000E+00 0. -1.
         -6    2    1    2    0  503 -0.79834687337E+02  0.11028649816E+02  0.66823434660E+02  0.20160427930E+03  0.17228959805E+03 0.  0.
        -24    2    3    3    0    0 -0.45417479762E+02 -0.53973309024E+02  0.52321245119E+02  0.12648968464E+03  0.91028907904E+02 0.  0.
          6    2    1    2  501    0  0.79834687337E+02 -0.11028649816E+02 -0.19659915066E+03  0.27336247438E+03  0.17199013907E+03 0.  0.
         24    2    5    5    0    0  0.78811466391E+02  0.47603369304E+02 -0.18495443173E+03  0.21339206396E+03  0.53391976369E+02 0.  0.
          5    1    5    5  501    0  0.10232209458E+01 -0.58632019119E+02 -0.11644718938E+02  0.59970410423E+02  0.47000000000E+01 0. -1.
        -13    1    6    6    0    0  0.36195653157E+01  0.11873158883E+02 -0.72065514151E+02  0.73126681073E+02  0.00000000000E+00 0.  1.
         14    1    6    6    0    0  0.75191901075E+02  0.35730210420E+02 -0.11288891758E+03  0.14026538288E+03  0.00000000000E+00 0. -1.
         -5    1    3    3    0  503 -0.34417207575E+02  0.65001958839E+02  0.14502189542E+02  0.75114594665E+02  0.47000000000E+01 0.  1.
         11    1    4    4    0    0 -0.71839320619E+02 -0.31243454189E+02  0.46652238437E+02  0.91178247230E+02  0.00000000000E+00 0. -1.
        -12    1    4    4    0    0  0.26421840858E+02 -0.22729854835E+02  0.56690066814E+01  0.35311437409E+02  0.00000000000E+00 0.  1.
</event>
<event>
12    1  0.8226261E-002  0.1935159E+03  0.7818608E-02  0.1155331E+00
         21   -1    0    0  503  502  0.00000000000E+00  0.00000000000E+00  0.75991661456E+02  0.75991661456E+02  0.00000000000E+00 0.  1.
         21   -1    0    0  501  503 -0.00000000000E+00 -0.00000000000E+00 -0.66432785934E+03  0.66432785934E+03  0.00000000000E+00 0.  1.
          6    2    1    2  501    0 -0.22765130632E+02 -0.85935656585E+02 -0.48227330897E+03  0.51964385149E+03  0.17186913513E+03 0.  0.
         24    2    3    3    0    0  0.31055220731E+02 -0.97142577179E+02 -0.27383654705E+03  0.30402799167E+03  0.83937227632E+02 0.  0.
         -6    2    1    2    0  502  0.22765130632E+02  0.85935656585E+02 -0.10606288892E+03  0.22067566931E+03  0.17188724901E+03 0.  0.
        -24    2    5    5    0    0 -0.41248439853E+02  0.57259547886E+02 -0.18148193538E+02  0.10810951062E+03  0.79863757386E+02 0.  0.
          5    1    3    3  501    0 -0.53820351362E+02  0.11206920594E+02 -0.20843676192E+03  0.21561585982E+03  0.47000000000E+01 0. -1.
        -11    1    4    4    0    0 -0.28997302839E+02 -0.36812328244E+02 -0.10295635032E+03  0.11311941104E+03  0.00000000000E+00 0.  1.
         12    1    4    4    0    0  0.60052523569E+02 -0.60330248936E+02 -0.17088019673E+03  0.19090858063E+03  0.00000000000E+00 0. -1.
         -5    1    5    5    0  502  0.64013570485E+02  0.28676108700E+02 -0.87914695384E+02  0.11256615868E+03  0.47000000000E+01 0.  1.
         13    1    6    6    0    0 -0.13725207429E+02  0.43433880599E+02  0.27376218810E+02  0.53144526145E+02  0.00000000000E+00 0. -1.
        -14    1    6    6    0    0 -0.27523232424E+02  0.13825667286E+02 -0.45524412347E+02  0.54964984477E+02  0.00000000000E+00 0.  1.
</event>
<event>
12    1  0.8226261E-002  0.2558236E+03  0.7818608E-02  0.1112024E+00
         21   -1    0    0  501  502  0.00000000000E+00  0.00000000000E+00  0.27098120310E+03  0.27098120310E+03  0.00000000000E+00 0. -1.
         21   -1    0    0  502  503 -0.00000000000E+00 -0.00000000000E+00 -0.28080238645E+03  0.28080238645E+03  0.00000000000E+00 0.  1.
         -6    2    1    2    0  503 -0.16694219346E+03 -0.27469703909E+02 -0.12468821699E+03  0.27135505549E+03  0.17164537307E+03 0.  0.
        -24    2    3    3    0    0 -0.15539660105E+03 -0.76194821862E+02 -0.89990522060E+02  0.21025302724E+03  0.78449263259E+02 0.  0.
          6    2    1    2  501    0  0.16694219346E+03  0.27469703909E+02  0.11486703363E+03  0.28042853406E+03  0.19188915214E+03 0.  0.
         24    2    5    5    0    0  0.52422945295E+02 -0.57754179808E+02  0.30443557057E+02  0.11451535811E+03  0.78123278212E+02 0.  0.
          5    1    5    5  501    0  0.11451924816E+03  0.85223883717E+02  0.84423476575E+02  0.16591317595E+03  0.47000000000E+01 0. -1.
        -11    1    6    6    0    0 -0.15356006170E+02 -0.25846345020E+02 -0.68463285400E+01  0.30833629220E+02  0.00000000000E+00 0.  1.
         12    1    6    6    0    0  0.67778951465E+02 -0.31907834788E+02  0.37289885597E+02  0.83681728893E+02  0.00000000000E+00 0. -1.
         -5    1    3    3    0  503 -0.11545592409E+02  0.48725117954E+02 -0.34697694929E+02  0.61102028256E+02  0.47000000000E+01 0.  1.
         13    1    4    4    0    0 -0.46004701267E+02 -0.10364604510E+02  0.98529532605E+01  0.48176117042E+02  0.00000000000E+00 0. -1.
        -14    1    4    4    0    0 -0.10939189978E+03 -0.65830217352E+02 -0.99843475320E+02  0.16207691019E+03  0.00000000000E+00 0.  1.
</event>
<event>
12    1  0.8226261E-002  0.1790510E+03  0.7818608E-02  0.1169005E+00
         21   -1    0    0  501  502  0.00000000000E+00  0.00000000000E+00  0.18768602467E+04  0.18768602467E+04  0.00000000000E+00 0. -1.
         21   -1    0    0  502  503 -0.00000000000E+00 -0.00000000000E+00 -0.24020391867E+02  0.24020391867E+02  0.00000000000E+00 0. -1.
         -6    2    1    2    0  503  0.10597472286E+02  0.48981695596E+02  0.40946580206E+03  0.44644331773E+03  0.17069821314E+03 0.  0.
        -24    2    3    3    0    0  0.34119148163E+02  0.88930428230E+01  0.94469106843E+02  0.12800120790E+03  0.78846018249E+02 0.  0.
          6    2    1    2  501    0 -0.10597472286E+02 -0.48981695596E+02  0.14433740528E+04  0.14544373209E+04  0.17189459300E+03 0.  0.
         24    2    5    5    0    0 -0.43641265208E+02 -0.88506681981E+01  0.12748840458E+04  0.12780475137E+04  0.78059097422E+02 0.  0.
          5    1    5    5  501    0  0.33043792922E+02 -0.40131027398E+02  0.16849000696E+03  0.17638980713E+03  0.47000000000E+01 0. -1.
        -11    1    6    6    0    0 -0.39033212469E+02 -0.13470522686E+02  0.26973536037E+03  0.27287764894E+03  0.00000000000E+00 0.  1.
         12    1    6    6    0    0 -0.46080527388E+01  0.46198544878E+01  0.10051486855E+04  0.10051698648E+04  0.00000000000E+00 0. -1.
         -5    1    3    3    0  503 -0.23521675877E+02  0.40088652773E+02  0.31499669521E+03  0.31844210983E+03  0.47000000000E+01 0.  1.
         11    1    4    4    0    0 -0.61702935737E+01 -0.82804093736E+01 -0.10214609991E+02  0.14525011513E+02  0.00000000000E+00 0. -1.
        -12    1    4    4    0    0  0.40289441736E+02  0.17173452197E+02  0.10468371683E+03  0.11347619639E+03  0.00000000000E+00 0.  1.
</event>
<event>
12    1  0.8226261E-002  0.1862469E+03  0.7818608E-02  0.1162069E+00
         21   -1    0    0  501  502  0.00000000000E+00  0.00000000000E+00  0.85442062853E+02  0.85442062853E+02  0.00000000000E+00 0.  1.
         21   -1    0    0  502  503 -0.00000000000E+00 -0.00000000000E+00 -0.41471906402E+03  0.41471906402E+03  0.00000000000E+00 0. -1.
         -6    2    1    2    0  503  0.98524843980E+01  0.69287220324E+02 -0.20393571523E+03  0.27566539885E+03  0.17176683566E+03 0.  0.
        -24    2    3    3    0    0 -0.43281866750E+00  0.11433663544E+03 -0.15534974655E+03  0.20844989757E+03  0.79023809738E+02 0.  0.
          6    2    1    2  501    0 -0.98524843980E+01 -0.69287220324E+02 -0.12534128594E+03  0.22449572802E+03  0.17259809845E+03 0.  0.
         24    2    5    5    0    0  0.26613162647E+02  0.22282717716E+02 -0.64831268464E+02  0.10874448966E+03  0.80109242450E+02 0.  0.
          5    1    5    5  501    0 -0.36465647045E+02 -0.91569938040E+02 -0.60510017479E+02  0.11575123836E+03  0.47000000000E+01 0. -1.
        -13    1    6    6    0    0  0.48681350618E+02 -0.83685616814E+01 -0.39787775743E+02  0.63426917166E+02  0.00000000000E+00 0.  1.
         14    1    6    6    0    0 -0.22068187972E+02  0.30651279397E+02 -0.25043492721E+02  0.45317572494E+02  0.00000000000E+00 0. -1.
         -5    1    3    3    0  503  0.10285303066E+02 -0.45049415117E+02 -0.48585968671E+02  0.67215501287E+02  0.47000000000E+01 0.  1.
         11    1    4    4    0    0 -0.38489445956E+02  0.56884340753E+02 -0.62829591563E+02  0.93085032357E+02  0.00000000000E+00 0. -1.
        -12    1    4    4    0    0  0.38056627288E+02  0.57452294687E+02 -0.92520154992E+02  0.11536486521E+03  0.00000000000E+00 0.  1.
</event>
<event>
12    1  0.8226261E-002  0.1995929E+03  0.7818608E-02  0.1150517E+00
         21   -1    0    0  503  502  0.00000000000E+00  0.00000000000E+00  0.11129032260E+03  0.11129032260E+03  0.00000000000E+00 0. -1.
         21   -1    0    0  501  503 -0.00000000000E+00 -0.00000000000E+00 -0.43590519360E+03  0.43590519360E+03  0.00000000000E+00 0.  1.
          6    2    1    2  501    0  0.33158253941E+02 -0.94776365404E+02 -0.28000389019E+03  0.34267787538E+03  0.17012912304E+03 0.  0.
         24    2    3    3    0    0  0.81607830839E+02 -0.86258846170E+02 -0.23772762092E+03  0.27764494081E+03  0.80447901211E+02 0.  0.
         -6    2    1    2    0  502 -0.33158253941E+02  0.94776365404E+02 -0.44610980802E+02  0.20451764082E+03  0.17249723637E+03 0.  0.
        -24    2    5    5    0    0  0.38394206725E+02  0.87206354762E+02 -0.36321867445E+02  0.13193762230E+03  0.83720933481E+02 0.  0.
          5    1    3    3  501    0 -0.48449576898E+02 -0.85175192338E+01 -0.42276269271E+02  0.65032934571E+02  0.47000000000E+01 0. -1.
        -13    1    4    4    0    0  0.27273218548E+02 -0.27957141950E+02 -0.16564368747E+03  0.17018596133E+03  0.00000000000E+00 0.  1.
         14    1    4    4    0    0  0.54334612291E+02 -0.58301704220E+02 -0.72083933455E+02  0.10745897948E+03  0.00000000000E+00 0. -1.
         -5    1    5    5    0  502 -0.71552460666E+02  0.75700106417E+01 -0.82891133571E+01  0.72580018522E+02  0.47000000000E+01 0.  1.
         13    1    6    6    0    0  0.27400009343E+02  0.37079379744E+02  0.24619965087E+02  0.52266467214E+02  0.00000000000E+00 0. -1.
        -14    1    6    6    0    0  0.10994197382E+02  0.50126975018E+02 -0.60941832532E+02  0.79671155087E+02  0.00000000000E+00 0.  1.
</event>
<event>
12    1  0.8226261E-002  0.2778388E+03  0.7818608E-02  0.1097089E+00
         21   -1    0    0  503  502  0.00000000000E+00  0.00000000000E+00  0.35524738236E+04  0.35524738236E+04  0.00000000000E+00 0. -1.
         21   -1    0    0  501  503 -0.00000000000E+00 -0.00000000000E+00 -0.36428747205E+02  0.36428747205E+02  0.00000000000E+00 0.  1.
          6    2    1    2  501    0  0.43115780848E+02 -0.21355986100E+03  0.61639494763E+03  0.67611917855E+03  0.17241701587E+03 0.  0.
         24    2    3    3    0    0  0.42174716467E+02 -0.17428628843E+03  0.30793599200E+03  0.36513313962E+03  0.79644318309E+02 0.  0.
         -6    2    1    2    0  502 -0.43115780848E+02  0.21355986100E+03  0.28996501288E+04  0.29127833923E+04  0.16991008247E+03 0.  0.
        -24    2    5    5    0    0  0.32488526093E+02  0.69754918706E+02  0.14013803985E+04  0.14057232915E+04  0.79181424208E+02 0.  0.
          5    1    3    3  501    0  0.94106438141E+00 -0.39273572570E+02  0.30845895562E+03  0.31098603893E+03  0.47000000000E+01 0. -1.
        -13    1    4    4    0    0 -0.59014008926E+01 -0.81942456632E+02  0.80589230143E+02  0.11508265180E+03  0.00000000000E+00 0.  1.
         14    1    4    4    0    0  0.48076117359E+02 -0.92343831794E+02  0.22734676186E+03  0.25005048782E+03  0.00000000000E+00 0. -1.
         -5    1    5    5    0  502 -0.75604306941E+02  0.14380494229E+03  0.14982697303E+04  0.15070601008E+04  0.47000000000E+01 0.  1.
         11    1    6    6    0    0 -0.15931618814E+02  0.55852261656E+02  0.61731735288E+03  0.62004355152E+03  0.00000000000E+00 0. -1.
        -12    1    6    6    0    0  0.48420144907E+02  0.13902657050E+02  0.78406304564E+03  0.78567974000E+03  0.00000000000E+00 0.  1.
</event>
<event>
12    1  0.8226261E-002  0.2499852E+03  0.7818608E-02  0.1113537E+00
         21   -1    0    0  503  502  0.00000000000E+00  0.00000000000E+00  0.18947137258E+03  0.18947137258E+03  0.00000000000E+00 0.  1.
         21   -1    0    0  501  503 -0.00000000000E+00 -0.00000000000E+00 -0.45416617251E+03  0.45416617251E+03  0.00000000000E+00 0. -1.
          6    2    1    2  501    0 -0.90377426224E+02 -0.15707015893E+03 -0.30171295838E+03  0.39092638591E+03  0.17015762090E+03 0.  0.
         24    2    3    3    0    0 -0.89636777735E+02 -0.10496982580E+03 -0.29796195336E+03  0.33847494827E+03  0.82039921404E+02 0.  0.
         -6    2    1    2    0  502  0.90377426224E+02  0.15707015893E+03  0.37018158449E+02  0.25271115918E+03  0.17220183485E+03 0.  0.
        -24    2    5    5    0    0  0.38478305893E+02  0.16141979727E+03  0.61647273818E+02  0.19490872525E+03  0.81560369254E+02 0.  0.
          5    1    3    3  501    0 -0.74064848889E+00 -0.52100333122E+02 -0.37510050139E+01  0.52451437638E+02  0.47000000000E+01 0. -1.
        -11    1    4    4    0    0 -0.29164193595E+02  0.64883138448E+01 -0.31708620375E+02  0.43567017464E+02  0.00000000000E+00 0.  1.
         12    1    4    4    0    0 -0.60472584140E+02 -0.11145813965E+03 -0.26625333299E+03  0.29490793081E+03  0.00000000000E+00 0. -1.
         -5    1    5    5    0  502  0.51899120332E+02 -0.43496383464E+01 -0.24629115370E+02  0.57802433935E+02  0.47000000000E+01 0.  1.
         13    1    6    6    0    0  0.42951846458E+02  0.49423190381E+02 -0.29413234912E+01  0.65545131364E+02  0.00000000000E+00 0. -1.
        -14    1    6    6    0    0 -0.44735405650E+01  0.11199660689E+03  0.64588597309E+02  0.12936359388E+03  0.00000000000E+00 0.  1.
</event>
<event>
12    1  0.8226261E-002  0.2999587E+03  0.7818608E-02  0.1085328E+00
         21   -1    0    0  501  502  0.00000000000E+00  0.00000000000E+00  0.71582171480E+03  0.71582171480E+03  0.00000000000E+00 0.  1.
         21   -1    0    0  502  503 -0.00000000000E+00 -0.00000000000E+00 -0.22194043727E+03  0.22194043727E+03  0.00000000000E+00 0.  1.
         -6    2    1    2    0  503 -0.23147898214E+03 -0.79951139464E+02 -0.62063682183E+02  0.30631216692E+03  0.17320663696E+03 0.  0.
        -24    2    3    3    0    0 -0.19644982982E+03 -0.70678473905E+02  0.11035526318E+02  0.22458941537E+03  0.82040479902E+02 0.  0.
          6    2    1    2  501    0  0.23147898214E+03  0.79951139464E+02  0.55594495971E+03  0.63144998515E+03  0.17227762956E+03 0.  0.
         24    2    5    5    0    0  0.24367494577E+03  0.92372535827E+02  0.46712920254E+03  0.54082238815E+03  0.79806009111E+02 0.  0.
          5    1    5    5  501    0 -0.12195963627E+02 -0.12421396363E+02  0.88815757167E+02  0.90627596997E+02  0.47000000000E+01 0. -1.
        -13    1    6    6    0    0  0.32298073784E+02  0.93632766958E+01  0.13044897595E+03  0.13471366614E+03  0.00000000000E+00 0.  1.
         14    1    6    6    0    0  0.21137687198E+03  0.83009259131E+02  0.33668022659E+03  0.40610872201E+03  0.00000000000E+00 0. -1.
         -5    1    3    3    0  503 -0.35029152316E+02 -0.92726655596E+01 -0.73099208501E+02  0.81722751557E+02  0.47000000000E+01 0.  1.
         13    1    4    4    0    0 -0.14996996899E+03 -0.17290690400E+02  0.23293892327E+02  0.15275000816E+03  0.00000000000E+00 0. -1.
        -14    1    4    4    0    0 -0.46479860836E+02 -0.53387783504E+02 -0.12258366009E+02  0.71839407208E+02  0.00000000000E+00 0.  1.
</event>
<event>
12    1  0.8226261E-002  0.1975267E+03  0.7818608E-02  0.1154806E+00
         21   -1    0    0  503  502  0.00000000000E+00  0.00000000000E+00  0.29923788793E+02  0.29923788793E+02  0.00000000000E+00 0. -1.
         21   -1    0    0  501  503 -0.00000000000E+00 -0.00000000000E+00 -0.20474064643E+04  0.20474064643E+04  0.00000000000E+00 0. -1.
          6    2    1    2  501    0  0.96189338929E+02  0.20337197552E+02 -0.16488833168E+04  0.16591409680E+04  0.15577730485E+03 0.  0.
         24    2    3    3    0    0  0.71525392631E+02  0.13894221900E+02 -0.16017420328E+04  0.16053430792E+04  0.78993234339E+02 0.  0.
         -6    2    1    2    0  502 -0.96189338929E+02 -0.20337197552E+02 -0.36859935867E+03  0.41818928507E+03  0.17132075299E+03 0.  0.
        -24    2    5    5    0    0 -0.50498771604E+02 -0.77557047372E+02 -0.20638920785E+03  0.24015568659E+03  0.80703328040E+02 0.  0.
          5    1    3    3  501    0  0.24663946298E+02  0.64429756516E+01 -0.47141284022E+02  0.53797888820E+02  0.47000000000E+01 0. -1.
        -11    1    4    4    0    0  0.21940119208E+02  0.44147847276E+02 -0.76640559899E+03  0.76798954642E+03  0.00000000000E+00 0.  1.
         12    1    4    4    0    0  0.49585273423E+02 -0.30253625376E+02 -0.83533643383E+03  0.83735353278E+03  0.00000000000E+00 0. -1.
         -5    1    5    5    0  502 -0.45690567325E+02  0.57219849821E+02 -0.16221015082E+03  0.17803359847E+03  0.47000000000E+01 0.  1.
         13    1    6    6    0    0 -0.46947344334E+02 -0.58157552791E+01 -0.11170501949E+03  0.12130905790E+03  0.00000000000E+00 0. -1.
        -14    1    6    6    0    0 -0.35514272700E+01 -0.71741292093E+02 -0.94684188359E+02  0.11884662869E+03  0.00000000000E+00 0.  1.
</event>
<event>
12    1  0.8226261E-002  0.2260564E+03  0.7818608E-02  0.1129577E+00
         21   -1    0    0  503  502  0.00000000000E+00  0.00000000000E+00  0.13872725289E+03  0.13872725289E+03  0.00000000000E+00 0. -1.
         21   -1    0    0  501  503 -0.00000000000E+00 -0.00000000000E+00 -0.37184814937E+03  0.37184814937E+03  0.00000000000E+00 0. -1.
          6    2    1    2  501    0  0.98585103420E+02  0.10704528553E+03 -0.88152656048E+02  0.24263633737E+03  0.17298492903E+03 0.  0.
         24    2    3    3    0    0  0.27583776762E+02  0.93524900493E+02  0.14985240645E+01  0.12738264635E+03  0.81953165058E+02 0.  0.
         -6    2    1    2    0  502 -0.98585103420E+02 -0.10704528553E+03 -0.14496824043E+03  0.26793906490E+03  0.17204021621E+03 0.  0.
        -24    2    5    5    0    0 -0.13124276421E+03 -0.10224744538E+03 -0.91981336375E+02  0.20533519856E+03  0.77606535049E+02 0.  0.
          5    1    3    3  501    0  0.71001326658E+02  0.13520385036E+02 -0.89651180112E+02  0.11525369102E+03  0.47000000000E+01 0. -1.
        -13    1    4    4    0    0 -0.25543892476E+02  0.20793910622E+02  0.15204070074E+02  0.36277278131E+02  0.00000000000E+00 0.  1.
         14    1    4    4    0    0  0.53127669237E+02  0.72730989870E+02 -0.13705546009E+02  0.91105368215E+02  0.00000000000E+00 0. -1.
         -5    1    5    5    0  502  0.32657660792E+02 -0.47978401485E+01 -0.52986904059E+02  0.62603866336E+02  0.47000000000E+01 0.  1.
         11    1    6    6    0    0 -0.75602584481E+02 -0.48817047377E+02 -0.65521535537E+01  0.90231843664E+02  0.00000000000E+00 0. -1.
        -12    1    6    6    0    0 -0.55640179731E+02 -0.53430398003E+02 -0.85429182821E+02  0.11510335490E+03  0.00000000000E+00 0.  1.
</event>
<event>
12    1  0.8226261E-002  0.1828781E+03  0.7818608E-02  0.1165194E+00
         21   -1    0    0  501  502  0.00000000000E+00  0.00000000000E+00  0.23630016349E+03  0.23630016349E+03  0.00000000000E+00 0.  1.
         21   -1    0    0  502  503 -0.00000000000E+00 -0.00000000000E+00 -0.26228659675E+03  0.26228659675E+03  0.00000000000E+00 0.  1.
         -6    2    1    2    0  503  0.32745047219E+02 -0.50550579428E+02 -0.18246661974E+03  0.25789928077E+03  0.17201852372E+03 0.  0.
        -24    2    3    3    0    0  0.50742960450E+02 -0.91010041257E+02 -0.16123905089E+03  0.20856782416E+03  0.81515827271E+02 0.  0.
          6    2    1    2  501    0 -0.32745047219E+02  0.50550579428E+02  0.15648018649E+03  0.24068747946E+03  0.17267546094E+03 0.  0.
         24    2    5    5    0    0  0.16341911188E+02  0.74897983601E+02  0.51498945296E+02  0.12217386600E+03  0.79984662010E+02 0.  0.
          5    1    5    5  501    0 -0.49086958407E+02 -0.24347404173E+02  0.10498124119E+03  0.11851361347E+03  0.47000000000E+01 0. -1.
        -11    1    6    6    0    0  0.30221376071E+02  0.69298923674E+02  0.66716189488E+02  0.10083016579E+03  0.00000000000E+00 0.  1.
         12    1    6    6    0    0 -0.13879464883E+02  0.55990599273E+01 -0.15217244192E+02  0.21343700202E+02  0.00000000000E+00 0. -1.
         -5    1    3    3    0  503 -0.17997913232E+02  0.40459461829E+02 -0.21227568851E+02  0.49331456613E+02  0.47000000000E+01 0.  1.
         13    1    4    4    0    0 -0.54426484162E+01 -0.61650149835E+02 -0.46251428552E+02  0.77262915035E+02  0.00000000000E+00 0. -1.
        -14    1    4    4    0    0  0.56185608867E+02 -0.29359891422E+02 -0.11498762234E+03  0.13130490912E+03  0.00000000000E+00 0.  1.
</event>
<event>
12    1  0.8226261E-002  0.2170981E+03  0.7818608E-02  0.1136135E+00
         21   -1    0    0  503  502  0.00000000000E+00  0.00000000000E+00  0.51348165516E+03  0.51348165516E+03  0.00000000000E+00 0.  1.
         21   -1    0    0  501  503 -0.00000000000E+00 -0.00000000000E+00 -0.96254404845E+02  0.96254404845E+02  0.00000000000E+00 0.  1.
          6    2    1    2  501    0  0.11014847324E+03  0.73193320421E+02  0.14197255144E+03  0.25939887905E+03  0.17216743241E+03 0.  0.
         24    2    3    3    0    0  0.97774625044E+02  0.99681389806E+02  0.15778547618E+03  0.22583001658E+03  0.81281505385E+02 0.  0.
         -6    2    1    2    0  502 -0.11014847324E+03 -0.73193320421E+02  0.27525469888E+03  0.35033718095E+03  0.17170044493E+03 0.  0.
        -24    2    5    5    0    0 -0.62854925451E+02 -0.32419333373E+02  0.60138791164E+02  0.12629222690E+03  0.85622996581E+02 0.  0.
          5    1    3    3  501    0  0.12373848198E+02 -0.26488069385E+02 -0.15812924746E+02  0.33568862477E+02  0.47000000000E+01 0. -1.
        -13    1    4    4    0    0  0.52445527291E+02  0.10857050335E+02  0.23301044429E+02  0.58406742301E+02  0.00000000000E+00 0.  1.
         14    1    4    4    0    0  0.45329097753E+02  0.88824339471E+02  0.13448443175E+03  0.16742327428E+03  0.00000000000E+00 0. -1.
         -5    1    5    5    0  502 -0.47293547790E+02 -0.40773987048E+02  0.21511590771E+03  0.22404495405E+03  0.47000000000E+01 0.  1.
         11    1    6    6    0    0 -0.70985117990E+02 -0.43283904596E+02  0.22278976266E+02  0.86074015571E+02  0.00000000000E+00 0. -1.
        -12    1    6    6    0    0  0.81301925388E+01  0.10864571223E+02  0.37859814898E+02  0.40218211331E+02  0.00000000000E+00 0.  1.
</event>
<event>
12    1  0.8226261E-002  0.1976139E+03  0.7818608E-02  0.1151973E+00
         21   -1    0    0  503  502  0.00000000000E+00  0.00000000000E+00  0.42572446523E+03  0.42572446523E+03  0.00000000000E+00 0. -1.
         21   -1    0    0  501  503 -0.00000000000E+00 -0.00000000000E+00 -0.94270346190E+02  0.94270346190E+02  0.00000000000E+00 0. -1.
          6    2    1    2  501    0 -0.84926247811E+02  0.46126724126E+02  0.21159388203E+03  0.28887201789E+03  0.17127442762E+03 0.  0.
         24    2    3    3    0    0 -0.24692823994E+02  0.80359312595E+02  0.82450359477E+02  0.14224297957E+03  0.79797548725E+02 0.  0.
         -6    2    1    2    0  502  0.84926247811E+02 -0.46126724126E+02  0.11986023701E+03  0.23112279354E+03  0.17236915916E+03 0.  0.
        -24    2    5    5    0    0  0.82331412234E+02  0.21374020811E+02  0.33014434705E+02  0.12099846781E+03  0.79469277761E+02 0.  0.
          5    1    3    3  501    0 -0.60233423817E+02 -0.34232588470E+02  0.12914352256E+03  0.14662903831E+03  0.47000000000E+01 0. -1.
        -13    1    4    4    0    0  0.16278919607E+02  0.71588169853E+02  0.59294968982E+02  0.94370348272E+02  0.00000000000E+00 0.  1.
         14    1    4    4    0    0 -0.40971743601E+02  0.87711427423E+01  0.23155390495E+02  0.47872631301E+02  0.00000000000E+00 0. -1.
         -5    1    5    5    0  502  0.25948355773E+01 -0.67500744937E+02  0.86845802306E+02  0.11012432573E+03  0.47000000000E+01 0.  1.
         11    1    6    6    0    0  0.88146452553E+02  0.39730197722E+01  0.61277660107E+01  0.88448468049E+02  0.00000000000E+00 0. -1.
        -12    1    6    6    0    0 -0.58150403199E+01  0.17401001039E+02  0.26886668694E+02  0.32549999763E+02  0.00000000000E+00 0.  1.
</event>
<event>
12    1  0.8226261E-002  0.2151034E+03  0.7818608E-02  0.1137605E+00
         21   -1    0    0  501  502  0.00000000000E+00  0.00000000000E+00  0.29114470205E+03  0.29114470205E+03  0.00000000000E+00 0. -1.
         21   -1    0    0  502  503 -0.00000000000E+00 -0.00000000000E+00 -0.19116479371E+03  0.19116479371E+03  0.00000000000E+00 0. -1.
         -6    2    1    2    0  503  0.71371535908E+02  0.10715171576E+03  0.14912363598E+03  0.26166371836E+03  0.17220527393E+03 0.  0.
        -24    2    3    3    0    0  0.29323439148E+02  0.32113032019E+02  0.15575773489E+01  0.90793363532E+02  0.79686246652E+02 0.  0.
          6    2    1    2  501    0 -0.71371535908E+02 -0.10715171576E+03 -0.49143727642E+02  0.22064577739E+03  0.17231966454E+03 0.  0.
         24    2    5    5    0    0 -0.53159534111E+02 -0.27257340076E+02 -0.84646727391E+02  0.13121792230E+03  0.80524381522E+02 0.  0.
          5    1    5    5  501    0 -0.18212001797E+02 -0.79894375686E+02  0.35502999749E+02  0.89427855094E+02  0.47000000000E+01 0. -1.
        -11    1    6    6    0    0  0.60580611290E+01 -0.19318465870E+02 -0.65376703520E+02  0.68439875741E+02  0.00000000000E+00 0.  1.
         12    1    6    6    0    0 -0.59217595240E+02 -0.79388742059E+01 -0.19270023871E+02  0.62778046558E+02  0.00000000000E+00 0. -1.
         -5    1    3    3    0  503  0.42048096761E+02  0.75038683743E+02  0.14756605864E+03  0.17087035483E+03  0.47000000000E+01 0.  1.
         11    1    4    4    0    0  0.23147910158E+02  0.56054570440E+02  0.15244506493E+02  0.62532676179E+02  0.00000000000E+00 0. -1.
        -12    1    4    4    0    0  0.61755289895E+01 -0.23941538421E+02 -0.13686929144E+02  0.28260687353E+02  0.00000000000E+00 0.  1.
</event>
<event>
12    1  0.8226261E-002  0.1869473E+03  0.7818608E-02  0.1161759E+00
         21   -1    0    0  503  502  0.00000000000E+00  0.00000000000E+00  0.23416054288E+03  0.23416054288E+03  0.00000000000E+00 0. -1.
         21   -1    0    0  501  503 -0.00000000000E+00 -0.00000000000E+00 -0.16587623005E+03  0.16587623005E+03  0.00000000000E+00 0. -1.
          6    2    1    2  501    0  0.40207670553E+02 -0.57402180666E+02  0.10056201888E+03  0.21032344930E+03  0.17091391567E+03 0.  0.
         24    2    3    3    0    0  0.14607251899E+02 -0.42421905844E+02 -0.12891840755E+02  0.92962219186E+02  0.80391446898E+02 0.  0.
         -6    2    1    2    0  502 -0.40207670553E+02  0.57402180666E+02 -0.32277706051E+02  0.18971332363E+03  0.17331366864E+03 0.  0.
        -24    2    5    5    0    0  0.21483453480E+02 -0.82336894814E+01  0.21380963083E+02  0.84759976813E+02  0.78725952970E+02 0.  0.
          5    1    3    3  501    0  0.25600418653E+02 -0.14980274822E+02  0.11345385963E+03  0.11736123012E+03  0.47000000000E+01 0. -1.
        -11    1    4    4    0    0  0.27306188415E+02  0.13923481394E+02 -0.17013987037E+02  0.35056625832E+02  0.00000000000E+00 0.  1.
         12    1    4    4    0    0 -0.12698936515E+02 -0.56345387238E+02  0.41221462813E+01  0.57905593353E+02  0.00000000000E+00 0. -1.
         -5    1    5    5    0  502 -0.61691124032E+02  0.65635870147E+02 -0.53658669135E+02  0.10495334682E+03  0.47000000000E+01 0.  1.
         13    1    6    6    0    0 -0.14350639785E+02 -0.88717587784E+01 -0.22487258420E+02  0.28112733010E+02  0.00000000000E+00 0. -1.
        -14    1    6    6    0    0  0.35834093265E+02  0.63806929707E+00  0.43868221504E+02  0.56647243803E+02  0.00000000000E+00 0.  1.
</event>
<event>
12    1  0.8226261E-002  0.2107338E+03  0.7818608E-02  0.1143410E+00
         21   -1    0    0  503  502  0.00000000000E+00  0.00000000000E+00  0.91361980023E+02  0.91361980023E+02  0.00000000000E+00 0.  1.
         21   -1    0    0  501  503 -0.00000000000E+00 -0.00000000000E+00 -0.76465236567E+03  0.76465236567E+03  0.00000000000E+00 0.  1.
          6    2    1    2  501    0 -0.78792124969E+02  0.66732468969E+02 -0.60131234171E+03  0.63332721490E+03  0.16989822678E+03 0.  0.
         24    2    3    3    0    0 -0.36074100264E+02  0.22652646720E+02 -0.53500906357E+03  0.54285028383E+03  0.81469315891E+02 0.  0.
         -6    2    1    2    0  502  0.78792124969E+02 -0.66732468969E+02 -0.71978043934E+02  0.22268713079E+03  0.18370437676E+03 0.  0.
        -24    2    5    5    0    0  0.42653353160E+02 -0.56274071152E+02 -0.12067886097E+03  0.16096802117E+03  0.79757361638E+02 0.  0.
          5    1    3    3  501    0 -0.42718024706E+02  0.44079822249E+02 -0.66303278137E+02  0.90476931071E+02  0.47000000000E+01 0. -1.
        -11    1    4    4    0    0 -0.30069259311E+02 -0.27755402243E+02 -0.25874504938E+03  0.26196091940E+03  0.00000000000E+00 0.  1.
         12    1    4    4    0    0 -0.60048409525E+01  0.50408048963E+02 -0.27626401419E+03  0.28088936443E+03  0.00000000000E+00 0. -1.
         -5    1    5    5    0  502  0.36138771810E+02 -0.10458397817E+02  0.48700817034E+02  0.61719109623E+02  0.47000000000E+01 0.  1.
         13    1    6    6    0    0  0.91627511748E+01 -0.67093951838E+02 -0.58347681425E+02  0.89386835216E+02  0.00000000000E+00 0. -1.
        -14    1    6    6    0    0  0.33490601985E+02  0.10819880687E+02 -0.62331179544E+02  0.71581185955E+02  0.00000000000E+00 0.  1.
</event>
<event>
12    1  0.8226261E-002  0.2440644E+03  0.7818608E-02  0.1117483E+00
         21   -1    0    0  501  502  0.00000000000E+00  0.00000000000E+00  0.58558635313E+03  0.58558635313E+03  0.00000000000E+00 0.  1.
         21   -1    0    0  502  503 -0.00000000000E+00 -0.00000000000E+00 -0.47681120165E+03  0.47681120165E+03  0.00000000000E+00 0.  1.
         -6    2    1    2    0  503  0.15668996994E+03 -0.66509675424E+02 -0.41739181221E+03  0.48238107093E+03  0.17175648193E+03 0.  0.
        -24    2    3    3    0    0  0.15403685351E+03 -0.15928617624E+02 -0.22997202247E+03  0.28818078766E+03  0.78612735353E+02 0.  0.
          6    2    1    2  501    0 -0.15668996994E+03  0.66509675424E+02  0.52616696369E+03  0.58001648385E+03  0.17490615843E+03 0.  0.
         24    2    5    5    0    0 -0.13434957280E+03  0.88183435080E+02  0.28447809057E+03  0.33628620960E+03  0.79589602425E+02 0.  0.
          5    1    5    5  501    0 -0.22340397144E+02 -0.21673759657E+02  0.24168887311E+03  0.24373027425E+03  0.47000000000E+01 0. -1.
        -11    1    6    6    0    0 -0.83299508624E+02  0.83485823079E+01  0.14989561334E+03  0.17168925960E+03  0.00000000000E+00 0.  1.
         12    1    6    6    0    0 -0.51050064171E+02  0.79834852772E+02  0.13458247723E+03  0.16459694999E+03  0.00000000000E+00 0. -1.
         -5    1    3    3    0  503  0.26531164308E+01 -0.50581057800E+02 -0.18741978974E+03  0.19420028327E+03  0.47000000000E+01 0.  1.
         11    1    4    4    0    0  0.93580563042E+02  0.28787714034E+02 -0.14148250200E+03  0.17205624845E+03  0.00000000000E+00 0. -1.
        -12    1    4    4    0    0  0.60456290466E+02 -0.44716331658E+02 -0.88489520471E+02  0.11612453921E+03  0.00000000000E+00 0.  1.
</event>
<event>
12    1  0.8226261E-002  0.2385322E+03  0.7818608E-02  0.1120961E+00
         21   -1    0    0  501  502  0.00000000000E+00  0.00000000000E+00  0.11064434572E+03  0.11064434572E+03  0.00000000000E+00 0.  1.
         21   -1    0    0  502  503 -0.00000000000E+00 -0.00000000000E+00 -0.95119877101E+03  0.95119877101E+03  0.00000000000E+00 0.  1.
         -6    2    1    2    0  503 -0.14735785381E+03 -0.74176669749E+02 -0.78162830839E+03  0.81721503339E+03  0.17228198662E+03 0.  0.
        -24    2    3    3    0    0 -0.83861714867E+02 -0.10971968825E+03 -0.35804885911E+03  0.38740495245E+03  0.53032202160E+02 0.  0.
          6    2    1    2  501    0  0.14735785381E+03  0.74176669749E+02 -0.58926116896E+02  0.24462808334E+03  0.17074570709E+03 0.  0.
         24    2    5    5    0    0  0.13897591403E+03  0.50995232694E+02 -0.10039255402E+03  0.19615962611E+03  0.80530215284E+02 0.  0.
          5    1    5    5  501    0  0.83819397807E+01  0.23181437055E+02  0.41466437125E+02  0.48468457230E+02  0.47000000000E+01 0. -1.
        -11    1    6    6    0    0  0.60782160916E+02 -0.11291920580E+01 -0.30680483558E+01  0.60870017915E+02  0.00000000000E+00 0.  1.
         12    1    6    6    0    0  0.78193753116E+02  0.52124424752E+02 -0.97324505665E+02  0.13528960819E+03  0.00000000000E+00 0. -1.
         -5    1    3    3    0  503 -0.63496138945E+02  0.35543018500E+02 -0.42357944928E+03  0.42981008094E+03  0.47000000000E+01 0.  1.
         13    1    4    4    0    0 -0.55302001880E+01 -0.21436762088E+02 -0.21907969309E+02  0.31146059176E+02  0.00000000000E+00 0. -1.
        -14    1    4    4    0    0 -0.78331514679E+02 -0.88282926161E+02 -0.33614088980E+03  0.35625889328E+03  0.00000000000E+00 0.  1.
</event>
<event>
12    1  0.8226261E-002  0.1878621E+03  0.7818608E-02  0.1160608E+00
         21   -1    0    0  503  502  0.00000000000E+00  0.00000000000E+00  0.31502471740E+02  0.31502471740E+02  0.00000000000E+00 0. -1.
         21   -1    0    0  501  503 -0.00000000000E+00 -0.00000000000E+00 -0.12943091433E+04  0.12943091433E+04  0.00000000000E+00 0. -1.
          6    2    1    2  501    0 -0.67661301232E+02  0.21689854793E+02 -0.87942399133E+03  0.89926565395E+03  0.17390703940E+03 0.  0.
         24    2    3    3    0    0 -0.80873721146E+02  0.71448882020E+02 -0.67763819082E+03  0.69096268201E+03  0.81181332553E+02 0.  0.
         -6    2    1    2    0  502  0.67661301232E+02 -0.21689854793E+02 -0.38338268021E+03  0.42654596107E+03  0.17294703218E+03 0.  0.
        -24    2    5    5    0    0  0.27262687639E+01  0.33734805292E+02 -0.27619861041E+03  0.28943663898E+03  0.79639349315E+02 0.  0.
          5    1    3    3  501    0  0.13212419914E+02 -0.49759027227E+02 -0.20178580051E+03  0.20830297194E+03  0.47000000000E+01 0. -1.
        -13    1    4    4    0    0  0.68209218568E+01  0.39629534008E+02 -0.15933871834E+03  0.16433457367E+03  0.00000000000E+00 0.  1.
         14    1    4    4    0    0 -0.87694643003E+02  0.31819348012E+02 -0.51829947248E+03  0.52662810834E+03  0.00000000000E+00 0. -1.
         -5    1    5    5    0  502  0.64935032468E+02 -0.55424660086E+02 -0.10718406979E+03  0.13710932209E+03  0.47000000000E+01 0.  1.
         11    1    6    6    0    0 -0.11302913903E+02 -0.13740691521E+02 -0.14094591861E+02  0.22698457787E+02  0.00000000000E+00 0. -1.
        -12    1    6    6    0    0  0.14029182667E+02  0.47475496814E+02 -0.26210401855E+03  0.26673818119E+03  0.00000000000E+00 0.  1.
</event>
<event>
12    1  0.8226261E-002  0.2026464E+03  0.7818608E-02  0.1147611E+00
         21   -1    0    0  501  502  0.00000000000E+00  0.00000000000E+00  0.28052249193E+03  0.28052249193E+03  0.00000000000E+00 0.  1.
         21   -1    0    0  502  503 -0.00000000000E+00 -0.00000000000E+00 -0.50391876570E+03  0.50391876570E+03  0.00000000000E+00 0.  1.
         -6    2    1    2    0  503  0.79022601159E+02  0.72223358619E+02 -0.44217636117E+03  0.48622944140E+03  0.17157607724E+03 0.  0.
        -24    2    3    3    0    0  0.25884107059E+00  0.69178597430E+02 -0.16174844518E+03  0.19489645915E+03  0.83882804752E+02 0.  0.
          6    2    1    2  501    0 -0.79022601159E+02 -0.72223358619E+02  0.21878008740E+03  0.29821181624E+03  0.17206038382E+03 0.  0.
         24    2    5    5    0    0 -0.68891636795E+02  0.16463558891E+02  0.16050200009E+03  0.19150459420E+03  0.76785488038E+02 0.  0.
          5    1    5    5  501    0 -0.10130964364E+02 -0.88686917510E+02  0.58278087307E+02  0.10670722205E+03  0.47000000000E+01 0. -1.
        -11    1    6    6    0    0 -0.15161272840E+02  0.20761466507E+02  0.12344436961E+03  0.12609288273E+03  0.00000000000E+00 0.  1.
         12    1    6    6    0    0 -0.53730363955E+02 -0.42979076155E+01  0.37057630481E+02  0.65411711470E+02  0.00000000000E+00 0. -1.
         -5    1    3    3    0  503  0.78763760089E+02  0.30447611890E+01 -0.28042791599E+03  0.29133298224E+03  0.47000000000E+01 0.  1.
         11    1    4    4    0    0 -0.19687651038E+02  0.82286201740E+02 -0.13145835386E+03  0.15633272658E+03  0.00000000000E+00 0. -1.
        -12    1    4    4    0    0  0.19946492109E+02 -0.13107604310E+02 -0.30290091319E+02  0.38563732577E+02  0.00000000000E+00 0.  1.
</event>
<event>
12    1  0.8226261E-002  0.1966927E+03  0.7818608E-02  0.1152594E+00
         21   -1    0    0  501  502  0.00000000000E+00  0.00000000000E+00  0.20925066137E+04  0.20925066137E+04  0.00000000000E+00 0. -1.
         21   -1    0    0  502  503 -0.00000000000E+00 -0.00000000000E+00 -0.76210475885E+02  0.76210475885E+02  0.00000000000E+00 0. -1.
         -6    2    1    2    0  503  0.15574593036E+01 -0.96274502602E+02  0.64228003503E+02  0.20676448100E+03  0.17133332612E+03 0.  0.
        -24    2    3    3    0    0  0.36959160563E+02 -0.11515831668E+03  0.19023310475E+02  0.14613913022E+03  0.79795623869E+02 0.  0.
          6    2    1    2  501    0 -0.15574593036E+01  0.96274502602E+02  0.19520681343E+04  0.19619526086E+04  0.17151335748E+03 0.  0.
         24    2    5    5    0    0  0.63991220365E+02  0.42314942272E+02  0.10633078734E+04  0.10691339512E+04  0.80860011091E+02 0.  0.
          5    1    5    5  501    0 -0.65548679669E+02  0.53959560330E+02  0.88876026094E+03  0.89281865739E+03  0.47000000000E+01 0. -1.
        -11    1    6    6    0    0  0.28318026336E+01  0.44943366409E+02  0.29820611118E+03  0.30158715164E+03  0.00000000000E+00 0.  1.
         12    1    6    6    0    0  0.61159417732E+02 -0.26284241369E+01  0.76510176220E+03  0.76754679956E+03  0.00000000000E+00 0. -1.
         -5    1    3    3    0  503 -0.35401701260E+02  0.18883814078E+02  0.45204693027E+02  0.60625350786E+02  0.47000000000E+01 0.  1.
         13    1    4    4    0    0  0.85686358468E+01 -0.11446357836E+02 -0.25915833883E+02  0.29598497831E+02  0.00000000000E+00 0. -1.
        -14    1    4    4    0    0  0.28390524717E+02 -0.10371195884E+03  0.44939144359E+02  0.11654063239E+03  0.00000000000E+00 0.  1.
</event>
<event>
12    1  0.8226261E-002  0.2025844E+03  0.7818608E-02  0.1150454E+00
         21   -1    0    0  501  502  0.00000000000E+00  0.00000000000E+00  0.11013416220E+04  0.11013416220E+04  0.00000000000E+00 0. -1.
         21   -1    0    0  502  503 -0.00000000000E+00 -0.00000000000E+00 -0.54490708407E+02  0.54490708407E+02  0.00000000000E+00 0. -1.
         -6    2    1    2    0  503 -0.19800959313E+02  0.78580789687E+02  0.16512186344E+03  0.25112986574E+03  0.17097941742E+03 0.  0.
        -24    2    3    3    0    0 -0.17880081183E+02 -0.59487009925E+01  0.23654871154E+02  0.86254384014E+02  0.80778595468E+02 0.  0.
          6    2    1    2  501    0  0.19800959313E+02 -0.78580789687E+02  0.88172905018E+03  0.90470246469E+03  0.18567017315E+03 0.  0.
         24    2    5    5    0    0  0.88602800555E+02 -0.48093224072E+02  0.57632290021E+03  0.59012625540E+03  0.77055159059E+02 0.  0.
          5    1    5    5  501    0 -0.68801841241E+02 -0.30487565615E+02  0.30540614997E+03  0.31457620929E+03  0.47000000000E+01 0. -1.
        -13    1    6    6    0    0  0.45870900938E+01 -0.33227126816E+02  0.83726388186E+02  0.90195296056E+02  0.00000000000E+00 0.  1.
         14    1    6    6    0    0  0.84015710461E+02 -0.14866097256E+02  0.49259651202E+03  0.49993095934E+03  0.00000000000E+00 0. -1.
         -5    1    3    3    0  503 -0.19208781300E+01  0.84529490679E+02  0.14146699229E+03  0.16487548172E+03  0.47000000000E+01 0.  1.
         11    1    4    4    0    0 -0.38694322842E+02  0.14854534951E+02 -0.88765743119E+01  0.42387514675E+02  0.00000000000E+00 0. -1.
        -12    1    4    4    0    0  0.20814241659E+02 -0.20803235943E+02  0.32531445466E+02  0.43866869339E+02  0.00000000000E+00 0.  1.
</event>
<event>
12    1  0.8226261E-002  0.1744868E+03  0.7818608E-02  0.1173620E+00
         21   -1    0    0  501  502  0.00000000000E+00  0.00000000000E+00  0.36393424648E+03  0.36393424648E+03  0.00000000000E+00 0.  1.
         21   -1    0    0  502  503 -0.00000000000E+00 -0.00000000000E+00 -0.85258483393E+02  0.85258483393E+02  0.00000000000E+00 0.  1.
         -6    2    1    2    0  503 -0.11043363372E+02  0.19369691599E+02  0.10183765369E+03  0.20076296466E+03  0.17157423887E+03 0.  0.
        -24    2    3    3    0    0  0.32532156737E+02  0.36835491064E+02  0.11799515823E+03  0.15089278262E+03  0.80190896353E+02 0.  0.
          6    2    1    2  501    0  0.11043363372E+02 -0.19369691599E+02  0.17683810940E+03  0.24842976521E+03  0.17305632170E+03 0.  0.
         24    2    5    5    0    0  0.10254507638E+02 -0.14315322488E+02  0.17485313598E+02  0.88925619594E+02  0.85392893403E+02 0.  0.
          5    1    5    5  501    0  0.78885573390E+00 -0.50543691106E+01  0.15935279580E+03  0.15950414562E+03  0.47000000000E+01 0. -1.
        -13    1    6    6    0    0  0.38368587611E+02 -0.74307290113E+01 -0.18087949145E+02  0.43064348981E+02  0.00000000000E+00 0.  1.
         14    1    6    6    0    0 -0.28114079973E+02 -0.68845934770E+01  0.35573262743E+02  0.45861270613E+02  0.00000000000E+00 0. -1.
         -5    1    3    3    0  503 -0.43575520109E+02 -0.17465799465E+02 -0.16157504538E+02  0.49870182039E+02  0.47000000000E+01 0.  1.
         11    1    4    4    0    0  0.26449163337E+01  0.54205264256E+02  0.94893041193E+02  0.10931557767E+03  0.00000000000E+00 0. -1.
        -12    1    4    4    0    0  0.29887240403E+02 -0.17369773192E+02  0.23102117036E+02  0.41577204947E+02  0.00000000000E+00 0.  1.
</event>
<event>
12    1  0.8226261E-002  0.1846100E+03  0.7818608E-02  0.1163459E+00
         21   -1    0    0  501  502  0.00000000000E+00  0.00000000000E+00  0.62229025934E+02  0.62229025934E+02  0.00000000000E+00 0. -1.
         21   -1    0    0  502  503 -0.00000000000E+00 -0.00000000000E+00 -0.10694276882E+04  0.10694276882E+04  0.00000000000E+00 0. -1.
         -6    2    1    2    0  503 -0.24155198406E+02  0.61112700388E+02 -0.89890483423E+03  0.91762776103E+03  0.17231532451E+03 0.  0.
        -24    2    3    3    0    0 -0.82283332644E+02  0.30117083765E+02 -0.59246098455E+03  0.60414804679E+03  0.79418251383E+02 0.  0.
          6    2    1    2  501    0  0.24155198406E+02 -0.61112700388E+02 -0.10829382807E+03  0.21402895314E+03  0.17251841590E+03 0.  0.
         24    2    5    5    0    0  0.15757934830E+02  0.12952391095E+02 -0.95411005643E+01  0.90213190802E+02  0.87357370894E+02 0.  0.
          5    1    5    5  501    0  0.83972635762E+01 -0.74065091483E+02 -0.98752727508E+02  0.12381576233E+03  0.47000000000E+01 0. -1.
        -11    1    6    6    0    0  0.42865066182E+02  0.34294930617E+02 -0.95036597553E+01  0.55712437692E+02  0.00000000000E+00 0.  1.
         12    1    6    6    0    0 -0.27107131352E+02 -0.21342539522E+02 -0.37440809037E-01  0.34500753110E+02  0.00000000000E+00 0. -1.
         -5    1    3    3    0  503  0.58128134238E+02  0.30995616623E+02 -0.30644384967E+03  0.31347971424E+03  0.47000000000E+01 0.  1.
         11    1    4    4    0    0 -0.62406209583E+02 -0.15033101368E+02 -0.41590733572E+03  0.42083184414E+03  0.00000000000E+00 0. -1.
        -12    1    4    4    0    0 -0.19877123061E+02  0.45150185133E+02 -0.17655364883E+03  0.18331620265E+03  0.00000000000E+00 0.  1.
</event>
<event>
12    1  0.8226261E-002  0.2198359E+03  0.7818608E-02  0.1134462E+00
         21   -1    0    0  503  502  0.00000000000E+00  0.00000000000E+00  0.77830964895E+02  0.77830964895E+02  0.00000000000E+00 0. -1.
         21   -1    0    0  501  503 -0.00000000000E+00 -0.00000000000E+00 -0.89428868844E+03  0.89428868844E+03  0.00000000000E+00 0. -1.
          6    2    1    2  501    0 -0.31850546122E+02  0.13275087930E+03 -0.67874124785E+03  0.71270943858E+03  0.16919754448E+03 0.  0.
         24    2    3    3    0    0 -0.16851978119E+02 -0.21279628262E+01 -0.29964496501E+03  0.31002675859E+03  0.77723668176E+02 0.  0.
         -6    2    1    2    0  502  0.31850546122E+02 -0.13275087930E+03 -0.13771647570E+03  0.25941021476E+03  0.17230954298E+03 0.  0.
        -24    2    5    5    0    0 -0.16491634093E+02 -0.14726457382E+03 -0.11684615456E+03  0.20458983515E+03  0.79026249512E+02 0.  0.
          5    1    3    3  501    0 -0.14998568003E+02  0.13487884212E+03 -0.37909628285E+03  0.40268267999E+03  0.47000000000E+01 0. -1.
        -11    1    4    4    0    0 -0.15257433789E+01 -0.25207577601E+02 -0.26237437332E+03  0.26358691477E+03  0.00000000000E+00 0.  1.
         12    1    4    4    0    0 -0.15326234740E+02  0.23079614775E+02 -0.37270591685E+02  0.46439843820E+02  0.00000000000E+00 0. -1.
         -5    1    5    5    0  502  0.48342180216E+02  0.14513694526E+02 -0.20870321131E+02  0.54820379613E+02  0.47000000000E+01 0.  1.
         13    1    6    6    0    0 -0.44763298958E+02 -0.71724434805E+02 -0.41368094380E+02  0.94124740182E+02  0.00000000000E+00 0. -1.
        -14    1    6    6    0    0  0.28271664865E+02 -0.75540139018E+02 -0.75478060184E+02  0.11046509497E+03  0.00000000000E+00 0.  1.
</event>
<event>
12    1  0.8226261E-002  0.1790045E+03  0.7818608E-02  0.1168869E+00
         21   -1    0    0  503  502  0.00000000000E+00  0.00000000000E+00  0.28841393936E+03  0.28841393936E+03  0.00000000000E+00 0. -1.
         21   -1    0    0  501  503 -0.00000000000E+00 -0.00000000000E+00 -0.18455709299E+03  0.18455709299E+03  0.00000000000E+00 0. -1.
          6    2    1    2  501    0 -0.21796941423E+02 -0.45637410045E+02 -0.97557976221E+02  0.20350762843E+03  0.17128898463E+03 0.  0.
         24    2    3    3    0    0  0.47004853396E+02 -0.10255698175E+01 -0.31484823356E+02  0.98095794240E+02  0.80131034621E+02 0.  0.
         -6    2    1    2    0  502  0.21796941423E+02  0.45637410045E+02  0.20141482258E+03  0.26946340392E+03  0.17171113954E+03 0.  0.
        -24    2    5    5    0    0  0.40382937081E+02  0.56292266873E+02  0.21842773077E+03  0.24170562566E+03  0.76885206567E+02 0.  0.
          5    1    3    3  501    0 -0.68801794819E+02 -0.44611840227E+02 -0.66073152865E+02  0.10541183419E+03  0.47000000000E+01 0. -1.
        -11    1    4    4    0    0  0.27927516317E+02  0.26046788133E+02  0.14991976308E+02  0.41026097710E+02  0.00000000000E+00 0.  1.
         12    1    4    4    0    0  0.19077337078E+02 -0.27072357950E+02 -0.46476799664E+02  0.57069696530E+02  0.00000000000E+00 0. -1.
         -5    1    5    5    0  502 -0.18585995658E+02 -0.10654856828E+02 -0.17012908190E+02  0.27757778256E+02  0.47000000000E+01 0.  1.
         11    1    6    6    0    0 -0.11457069222E+02  0.43341032206E+02  0.13839648425E+03  0.14547610237E+03  0.00000000000E+00 0. -1.
        -12    1    6    6    0    0  0.51840006303E+02  0.12951234666E+02  0.80031246521E+02  0.96229523290E+02  0.00000000000E+00 0.  1.
</event>
<event>
12    1  0.8226261E-002  0.2576324E+03  0.7818608E-02  0.1108649E+00
         21   -1    0    0  501  502  0.00000000000E+00  0.00000000000E+00  0.29690073523E+03  0.29690073523E+03  0.00000000000E+00 0.  1.
         21   -1    0    0  502  503 -0.00000000000E+00 -0.00000000000E+00 -0.26927414569E+03  0.26927414569E+03  0.00000000000E+00 0. -1.
         -6    2    1    2    0  503  0.57317541305E+02 -0.18279211550E+03 -0.10338389609E+03  0.27714514071E+03  0.17153116632E+03 0.  0.
        -24    2    3    3    0    0 -0.23003473950E+02 -0.61007195137E+02 -0.79797151356E+02  0.12928893744E+03  0.78083329255E+02 0.  0.
          6    2    1    2  501    0 -0.57317541305E+02  0.18279211550E+03  0.13101048563E+03  0.28902974020E+03  0.17226777222E+03 0.  0.
         24    2    5    5    0    0 -0.52186177991E+02  0.15426256875E+02  0.39698186889E+02  0.98247960609E+02  0.71521669074E+02 0.  0.
          5    1    5    5  501    0 -0.51313633140E+01  0.16736585863E+03  0.91312298741E+02  0.19078177959E+03  0.47000000000E+01 0. -1.
        -11    1    6    6    0    0 -0.70188620929E+00  0.67314957386E+01  0.45238091996E+02  0.45741563665E+02  0.00000000000E+00 0.  1.
         12    1    6    6    0    0 -0.51484291781E+02  0.86947611362E+01 -0.55399051064E+01  0.52506396944E+02  0.00000000000E+00 0. -1.
         -5    1    3    3    0  503  0.80321015255E+02 -0.12178492036E+03 -0.23586744733E+02  0.14785620327E+03  0.47000000000E+01 0.  1.
         13    1    4    4    0    0  0.71869947834E+01 -0.32740094483E+02 -0.81263130822E+02  0.87904852607E+02  0.00000000000E+00 0. -1.
        -14    1    4    4    0    0 -0.30190468734E+02 -0.28267100653E+02  0.14659794657E+01  0.41384084833E+02  0.00000000000E+00 0.  1.
</event>
<event>
12    1  0.8226261E-002  0.1856955E+03  0.7818608E-02  0.1164161E+00
         21   -1    0    0  501  502  0.00000000000E+00  0.00000000000E+00  0.12589513091E+03  0.12589513091E+03  0.00000000000E+00 0. -1.
         21   -1    0    0  502  503 -0.00000000000E+00 -0.00000000000E+00 -0.99123018308E+03  0.99123018308E+03  0.00000000000E+00 0.  1.
         -6    2    1    2    0  503  0.31578804422E+02 -0.55519537389E+02 -0.90903779886E+03  0.92635652456E+03  0.16645435085E+03 0.  0.
        -24    2    3    3    0    0 -0.35129113462E+02 -0.16537094112E+02 -0.64309486545E+03  0.64937762459E+03  0.81318898586E+02 0.  0.
          6    2    1    2  501    0 -0.31578804422E+02  0.55519537389E+02  0.43702746695E+02  0.19076878943E+03  0.17436502238E+03 0.  0.
         24    2    5    5    0    0 -0.51887677771E+02  0.98369527396E+02  0.21768722451E+02  0.13831153636E+03  0.79292551909E+02 0.  0.
          5    1    5    5  501    0  0.20308873349E+02 -0.42849990007E+02  0.21934024244E+02  0.52457253071E+02  0.47000000000E+01 0. -1.
        -11    1    6    6    0    0 -0.67007613981E+01  0.63339241690E+02 -0.20829624114E+02  0.67012185324E+02  0.00000000000E+00 0.  1.
         12    1    6    6    0    0 -0.45186916372E+02  0.35030285705E+02  0.42598346565E+02  0.71299351034E+02  0.00000000000E+00 0. -1.
         -5    1    3    3    0  503  0.66707917884E+02 -0.38982443277E+02 -0.26594293342E+03  0.27697889997E+03  0.47000000000E+01 0.  1.
         13    1    4    4    0    0 -0.15208754042E+02 -0.16514461902E+00 -0.17233650634E+02  0.22985477728E+02  0.00000000000E+00 0. -1.
        -14    1    4    4    0    0 -0.19920359420E+02 -0.16371949493E+02 -0.62586121481E+03  0.62639214687E+03  0.00000000000E+00 0.  1.
</event>
<event>
12    1  0.8226261E-002  0.2710981E+03  0.7818608E-02  0.1100703E+00
         21   -1    0    0  501  502  0.00000000000E+00  0.00000000000E+00  0.20266004889E+03  0.20266004889E+03  0.00000000000E+00 0.  1.
         21   -1    0    0  502  503 -0.00000000000E+00 -0.00000000000E+00 -0.36606199818E+03  0.36606199818E+03  0.00000000000E+00 0. -1.
         -6    2    1    2    0  503 -0.11265806948E+03 -0.17648277986E+03 -0.11094003993E+03  0.29259444988E+03  0.17165607312E+03 0.  0.
        -24    2    3    3    0    0 -0.84510097757E+02 -0.88912578105E+02 -0.13427080531E+03  0.19758253926E+03  0.77219217124E+02 0.  0.
          6    2    1    2  501    0  0.11265806948E+03  0.17648277986E+03 -0.52461909357E+02  0.27612759718E+03  0.17220971456E+03 0.  0.
         24    2    5    5    0    0 -0.24816843986E+01  0.10784642046E+03 -0.52497588599E+01  0.13393339931E+03  0.79205974014E+02 0.  0.
          5    1    5    5  501    0  0.11513975388E+03  0.68636359396E+02 -0.47212150497E+02  0.14219419787E+03  0.47000000000E+01 0. -1.
        -13    1    6    6    0    0  0.55129569913E+00  0.53454013035E+02 -0.42200943152E+02  0.68106938262E+02  0.00000000000E+00 0.  1.
         14    1    6    6    0    0 -0.30329800977E+01  0.54392407426E+02  0.36951184292E+02  0.65826461051E+02  0.00000000000E+00 0. -1.
         -5    1    3    3    0  503 -0.28147971722E+02 -0.87570201753E+02  0.23330765383E+02  0.95011910624E+02  0.47000000000E+01 0.  1.
         13    1    4    4    0    0 -0.94752773739E+01  0.14381431824E+02 -0.17773361706E+02  0.24748714087E+02  0.00000000000E+00 0. -1.
        -14    1    4    4    0    0 -0.75034820383E+02 -0.10329400993E+03 -0.11649744361E+03  0.17283382517E+03  0.00000000000E+00 0.  1.
</event>
<event>
12    1  0.8226261E-002  0.1857199E+03  0.7818608E-02  0.1162574E+00
         21   -1    0    0  503  502  0.00000000000E+00  0.00000000000E+00  0.77090537919E+03  0.77090537919E+03  0.00000000000E+00 0.  1.
         21   -1    0    0  501  503 -0.00000000000E+00 -0.00000000000E+00 -0.18169115342E+03  0.18169115342E+03  0.00000000000E+00 0.  1.
          6    2    1    2  501    0  0.63175238487E+02 -0.24113268114E+02 -0.11937473682E+03  0.22007334773E+03  0.17207379270E+03 0.  0.
         24    2    3    3    0    0 -0.17948875282E+02  0.50093230723E+01 -0.10200159911E+03  0.13202130025E+03  0.81719288148E+02 0.  0.
         -6    2    1    2    0  502 -0.63175238487E+02  0.24113268114E+02  0.70858896259E+03  0.73252318488E+03  0.17297207294E+03 0.  0.
        -24    2    5    5    0    0  0.21427390773E+02  0.32508121676E+02  0.24394818712E+03  0.26014492683E+03  0.81539891501E+02 0.  0.
          5    1    3    3  501    0  0.81124113769E+02 -0.29122591186E+02 -0.17373137704E+02  0.88052047483E+02  0.47000000000E+01 0. -1.
        -11    1    4    4    0    0 -0.21881719439E+02  0.41548814655E+02 -0.60527296697E+02  0.76607227402E+02  0.00000000000E+00 0.  1.
         12    1    4    4    0    0  0.39328441564E+01 -0.36539491582E+02 -0.41474302417E+02  0.55414072844E+02  0.00000000000E+00 0. -1.
         -5    1    5    5    0  502 -0.84602629259E+02 -0.83948535623E+01  0.46464077547E+03  0.47237825804E+03  0.47000000000E+01 0.  1.
         13    1    6    6    0    0 -0.20673951966E+02  0.18616089447E+02  0.27195078518E+02  0.38904284748E+02  0.00000000000E+00 0. -1.
        -14    1    6    6    0    0  0.42101342739E+02  0.13892032229E+02  0.21675310861E+03  0.22124064209E+03  0.00000000000E+00 0.  1.
</event>
<event>
12    1  0.8226261E-002  0.1919465E+03  0.7818608E-02  0.1156909E+00
         21   -1    0    0  503  502  0.00000000000E+00  0.00000000000E+00  0.19343049991E+03  0.19343049991E+03  0.00000000000E+00 0. -1.
         21   -1    0    0  501  503 -0.00000000000E+00 -0.00000000000E+00 -0.25360497788E+03  0.25360497788E+03  0.00000000000E+00 0. -1.
          6    2    1    2  501    0  0.55829785706E+02  0.61588011029E+02 -0.14230508341E+03  0.23825594585E+03  0.17206135793E+03 0.  0.
         24    2    3    3    0    0  0.58820445536E+02 -0.11050299956E+02 -0.32447529258E+02  0.10643773591E+03  0.81818063578E+02 0.  0.
         -6    2    1    2    0  502 -0.55829785706E+02 -0.61588011029E+02  0.82130605440E+02  0.20877953194E+03  0.17301274095E+03 0.  0.
        -24    2    5    5    0    0 -0.43843863794E+02 -0.10391972407E+03  0.31666793914E+02  0.14166528213E+03  0.79653454919E+02 0.  0.
          5    1    3    3  501    0 -0.29906598299E+01  0.72638310986E+02 -0.10985755415E+03  0.13181820994E+03  0.47000000000E+01 0. -1.
        -13    1    4    4    0    0  0.56520204133E+02 -0.38939995307E+02 -0.37175329717E+02  0.78056786055E+02  0.00000000000E+00 0.  1.
         14    1    4    4    0    0  0.23002414030E+01  0.27889695350E+02  0.47278004590E+01  0.28380949850E+02  0.00000000000E+00 0. -1.
         -5    1    5    5    0  502 -0.11985921911E+02  0.42331713045E+02  0.50463811526E+02  0.67114249807E+02  0.47000000000E+01 0.  1.
         11    1    6    6    0    0  0.23203733949E+02 -0.26893134646E+02  0.32659292055E+01  0.35669598454E+02  0.00000000000E+00 0. -1.
        -12    1    6    6    0    0 -0.67047597744E+02 -0.77026589428E+02  0.28400864709E+02  0.10599568368E+03  0.00000000000E+00 0.  1.
</event>
<event>
12    1  0.8226261E-002  0.1845811E+03  0.7818608E-02  0.1163603E+00
         21   -1    0    0  501  502  0.00000000000E+00  0.00000000000E+00  0.87160917036E+03  0.87160917036E+03  0.00000000000E+00 0. -1.
         21   -1    0    0  502  503 -0.00000000000E+00 -0.00000000000E+00 -0.63594340469E+02  0.63594340469E+02  0.00000000000E+00 0. -1.
         -6    2    1    2    0  503 -0.20120059374E+02  0.61272639119E+02  0.11334226114E+03  0.21660249425E+03  0.17294802474E+03 0.  0.
        -24    2    3    3    0    0 -0.24075586264E+02  0.10492582276E+03  0.65050608135E+02  0.15121579541E+03  0.83937911737E+02 0.  0.
          6    2    1    2  501    0  0.20120059374E+02 -0.61272639119E+02  0.69467256876E+03  0.71860101658E+03  0.17221582436E+03 0.  0.
         24    2    5    5    0    0  0.34728340120E+02 -0.97362090380E+02  0.38780277302E+03  0.40923551771E+03  0.79983022837E+02 0.  0.
          5    1    5    5  501    0 -0.14608280745E+02  0.36089451260E+02  0.30686979573E+03  0.30936549887E+03  0.47000000000E+01 0. -1.
        -13    1    6    6    0    0  0.44926260720E+02 -0.78435369199E+02  0.19152304116E+03  0.21178184846E+03  0.00000000000E+00 0.  1.
         14    1    6    6    0    0 -0.10197920600E+02 -0.18926721181E+02  0.19627973187E+03  0.19745366925E+03  0.00000000000E+00 0. -1.
         -5    1    3    3    0  503  0.39555268899E+01 -0.43653183643E+02  0.48291653002E+02  0.65386698837E+02  0.47000000000E+01 0.  1.
         11    1    4    4    0    0  0.75338204074E+01  0.52165758113E+01 -0.16304141802E+02  0.18702838101E+02  0.00000000000E+00 0. -1.
        -12    1    4    4    0    0 -0.31609406672E+02  0.99709246951E+02  0.81354749938E+02  0.13251295731E+03  0.00000000000E+00 0.  1.
</event>
<event>
12    1  0.8226261E-002  0.2546909E+03  0.7818608E-02  0.1110740E+00
         21   -1    0    0  501  502  0.00000000000E+00  0.00000000000E+00  0.30787750865E+03  0.30787750865E+03  0.00000000000E+00 0. -1.
         21   -1    0    0  502  503 -0.00000000000E+00 -0.00000000000E+00 -0.22809076922E+03  0.22809076922E+03  0.00000000000E+00 0.  1.
         -6    2    1    2    0  503  0.17705495927E+03  0.57680870529E+02 -0.38304108328E+02  0.25523195693E+03  0.17029564204E+03 0.  0.
        -24    2    3    3    0    0  0.63765715954E+02 -0.14746159316E+02  0.35609792795E+02  0.10172142934E+03  0.69250820196E+02 0.  0.
          6    2    1    2  501    0 -0.17705495927E+03 -0.57680870529E+02  0.11809084776E+03  0.28073632093E+03  0.17375814265E+03 0.  0.
         24    2    5    5    0    0 -0.14844835641E+02  0.92821069804E+00  0.42945579782E+02  0.92544796387E+02  0.80616287407E+02 0.  0.
          5    1    5    5  501    0 -0.16221012363E+03 -0.58609081227E+02  0.75145267976E+02  0.18819152454E+03  0.47000000000E+01 0. -1.
        -11    1    6    6    0    0  0.24942420709E+02 -0.16757916077E+02 -0.18101359436E+01  0.30103632575E+02  0.00000000000E+00 0.  1.
         12    1    6    6    0    0 -0.39787256350E+02  0.17686126775E+02  0.44755715725E+02  0.62441163812E+02  0.00000000000E+00 0. -1.
         -5    1    3    3    0  503  0.11328924332E+03  0.72427029845E+02 -0.73913901123E+02  0.15351052760E+03  0.47000000000E+01 0.  1.
         11    1    4    4    0    0  0.46036361167E+02  0.16720574940E+02  0.42624387335E+02  0.64928903976E+02  0.00000000000E+00 0. -1.
        -12    1    4    4    0    0  0.17729354787E+02 -0.31466734256E+02 -0.70145945399E+01  0.36792525362E+02  0.00000000000E+00 0.  1.
</event>
<event>
12    1  0.8226261E-002  0.1990603E+03  0.7818608E-02  0.1151271E+00
         21   -1    0    0  501  502  0.00000000000E+00  0.00000000000E+00  0.11145003581E+04  0.11145003581E+04  0.00000000000E+00 0.  1.
         21   -1    0    0  502  503 -0.00000000000E+00 -0.00000000000E+00 -0.41508049297E+02  0.41508049297E+02  0.00000000000E+00 0.  1.
         -6    2    1    2    0  503  0.89072414318E+02 -0.26793178313E+02  0.77030687967E+03  0.79561151109E+03  0.17599209732E+03 0.  0.
        -24    2    3    3    0    0  0.56093203472E+02  0.26120864824E+02  0.28180356650E+03  0.30312282971E+03  0.92959414510E+02 0.  0.
          6    2    1    2  501    0 -0.89072414318E+02  0.26793178313E+02  0.30268542918E+03  0.36039689635E+03  0.17209208136E+03 0.  0.
         24    2    5    5    0    0 -0.11539965986E+03  0.60175041247E+02  0.23250619563E+03  0.27820999075E+03  0.80022189805E+02 0.  0.
          5    1    5    5  501    0  0.26327245543E+02 -0.33381862934E+02  0.70179233554E+02  0.82186905605E+02  0.47000000000E+01 0. -1.
        -11    1    6    6    0    0 -0.71624500296E+02  0.30164943895E+02  0.61351570923E+02  0.99015191449E+02  0.00000000000E+00 0.  1.
         12    1    6    6    0    0 -0.43775159565E+02  0.30010097352E+02  0.17115462470E+03  0.17919479930E+03  0.00000000000E+00 0. -1.
         -5    1    3    3    0  503  0.32979210846E+02 -0.52914043137E+02  0.48850331317E+03  0.49248868138E+03  0.47000000000E+01 0.  1.
         13    1    4    4    0    0 -0.80003224576E+01 -0.26921643503E+02  0.60609891086E+02  0.66800740608E+02  0.00000000000E+00 0. -1.
        -14    1    4    4    0    0  0.64093525930E+02  0.53042508327E+02  0.22119367541E+03  0.23632208910E+03  0.00000000000E+00 0.  1.
</event>
<event>
12    1  0.8226261E-002  0.3265245E+03  0.7818608E-02  0.1073199E+00
         21   -1    0    0  503  502  0.00000000000E+00  0.00000000000E+00  0.13056784323E+04  0.13056784323E+04  0.00000000000E+00 0.  1.
         21   -1    0    0  501  503 -0.00000000000E+00 -0.00000000000E+00 -0.89190142045E+02  0.89190142045E+02  0.00000000000E+00 0. -1.
          6    2    1    2  501    0 -0.15635667082E+03  0.22159512652E+03  0.39470052625E+03  0.51225653739E+03  0.18184181609E+03 0.  0.
         24    2    3    3    0    0 -0.84511897333E+02  0.67683903795E+02  0.26982853987E+03  0.30138823978E+03  0.79398101528E+02 0.  0.
         -6    2    1    2    0  502  0.15635667082E+03 -0.22159512652E+03  0.82178776403E+03  0.88261203697E+03  0.17354270396E+03 0.  0.
        -24    2    5    5    0    0  0.15439712306E+03 -0.20139868533E+03  0.56095548700E+03  0.62094946265E+03  0.80667680650E+02 0.  0.
          5    1    3    3  501    0 -0.71844773485E+02  0.15391122272E+03  0.12487198638E+03  0.21086829761E+03  0.47000000000E+01 0. -1.
        -11    1    4    4    0    0  0.53412346986E+01  0.38789010928E+02  0.65449881387E+02  0.76267969230E+02  0.00000000000E+00 0.  1.
         12    1    4    4    0    0 -0.89853132032E+02  0.28894892866E+02  0.20437865848E+03  0.22512027055E+03  0.00000000000E+00 0. -1.
         -5    1    5    5    0  502  0.19595477580E+01 -0.20196441187E+02  0.26083227703E+03  0.26166257433E+03  0.47000000000E+01 0.  1.
         11    1    6    6    0    0  0.11027870304E+03 -0.12452170383E+03  0.44447866109E+03  0.47458226603E+03  0.00000000000E+00 0. -1.
        -12    1    6    6    0    0  0.44118420020E+02 -0.76876981504E+02  0.11647682591E+03  0.14636719661E+03  0.00000000000E+00 0.  1.
</event>
<event>
12    1  0.8226261E-002  0.2197339E+03  0.7818608E-02  0.1134252E+00
         21   -1    0    0  503  502  0.00000000000E+00  0.00000000000E+00  0.37720651336E+03  0.37720651336E+03  0.00000000000E+00 0. -1.
         21   -1    0    0  501  503 -0.00000000000E+00 -0.00000000000E+00 -0.14192042055E+03  0.14192042055E+03  0.00000000000E+00 0. -1.
          6    2    1    2  501    0  0.96620480895E+02 -0.94884370571E+02  0.35045321304E+02  0.22251102264E+03  0.17304455942E+03 0.  0.
         24    2    3    3    0    0  0.79018971718E+02  0.76799977539E+01 -0.13895683147E+00  0.11255973250E+03  0.79791564812E+02 0.  0.
         -6    2    1    2    0  502 -0.96620480895E+02  0.94884370571E+02  0.20024077151E+03  0.29661591126E+03  0.17188970631E+03 0.  0.
        -24    2    5    5    0    0 -0.99255095335E+02  0.56052751645E+01  0.13423718480E+03  0.18545718904E+03  0.80571422485E+02 0.  0.
          5    1    3    3  501    0  0.17601509177E+02 -0.10256436832E+03  0.35184278135E+02  0.10995129014E+03  0.47000000000E+01 0. -1.
        -13    1    4    4    0    0  0.28356670880E+02  0.29599245619E+02  0.28931445278E+02  0.50172150148E+02  0.00000000000E+00 0.  1.
         14    1    4    4    0    0  0.50662300838E+02 -0.21919247865E+02 -0.29070402109E+02  0.62387582354E+02  0.00000000000E+00 0. -1.
         -5    1    5    5    0  502  0.26346144395E+01  0.89279095406E+02  0.66003586704E+02  0.11115872223E+03  0.47000000000E+01 0.  1.
         13    1    6    6    0    0 -0.69576288625E+02  0.76739049558E+01  0.28437666858E+02  0.75554282820E+02  0.00000000000E+00 0. -1.
        -14    1    6    6    0    0 -0.29678806709E+02 -0.20686297913E+01  0.10579951795E+03  0.10990290622E+03  0.00000000000E+00 0.  1.
</event>
<event>
12    1  0.8226261E-002  0.2020643E+03  0.7818608E-02  0.1150613E+00
         21   -1    0    0  501  502  0.00000000000E+00  0.00000000000E+00  0.11031657016E+03  0.11031657016E+03  0.00000000000E+00 0. -1.
         21   -1    0    0  502  503 -0.00000000000E+00 -0.00000000000E+00 -0.61713575431E+03  0.61713575431E+03  0.00000000000E+00 0. -1.
         -6    2    1    2    0  503  0.10151303567E+03 -0.27982874211E+02 -0.49783806127E+03  0.53728271113E+03  0.17245880313E+03 0.  0.
        -24    2    3    3    0    0  0.13085382336E+03 -0.40333198200E+02 -0.38604367286E+03  0.42094919230E+03  0.97051610902E+02 0.  0.
          6    2    1    2  501    0 -0.10151303567E+03  0.27982874211E+02 -0.89811228877E+01  0.19016961333E+03  0.15810086529E+03 0.  0.
         24    2    5    5    0    0 -0.12451592942E+03  0.43842555616E+02 -0.26613064917E+02  0.15679839827E+03  0.80318715847E+02 0.  0.
          5    1    5    5  501    0  0.23002893743E+02 -0.15859681404E+02  0.17631942030E+02  0.33371215059E+02  0.47000000000E+01 0. -1.
        -13    1    6    6    0    0 -0.40471926053E+02 -0.66016283606E+01 -0.40694120082E+02  0.57771703322E+02  0.00000000000E+00 0.  1.
         14    1    6    6    0    0 -0.84044003364E+02  0.50444183976E+02  0.14081055164E+02  0.99026694952E+02  0.00000000000E+00 0. -1.
         -5    1    3    3    0  503 -0.29340787687E+02  0.12350323988E+02 -0.11179438841E+03  0.11633351883E+03  0.47000000000E+01 0.  1.
         11    1    4    4    0    0  0.64415539823E+02  0.26457505755E+02 -0.21056533385E+03  0.22178169717E+03  0.00000000000E+00 0. -1.
        -12    1    4    4    0    0  0.66438283539E+02 -0.66790703954E+02 -0.17547833901E+03  0.19916749513E+03  0.00000000000E+00 0.  1.
</event>
<event>
12    1  0.8226261E-002  0.2001116E+03  0.7818608E-02  0.1150818E+00
         21   -1    0    0  503  502  0.00000000000E+00  0.00000000000E+00  0.33934993315E+03  0.33934993315E+03  0.00000000000E+00 0.  1.
         21   -1    0    0  501  503 -0.00000000000E+00 -0.00000000000E+00 -0.33197047790E+03  0.33197047790E+03  0.00000000000E+00 0.  1.
          6    2    1    2  501    0 -0.50849407686E+02 -0.82795447483E+02 -0.26777655037E+03  0.33428870883E+03  0.17493973688E+03 0.  0.
         24    2    3    3    0    0 -0.97609202938E+02 -0.45281063920E+02 -0.21762974154E+03  0.25599056159E+03  0.81182091450E+02 0.  0.
         -6    2    1    2    0  502  0.50849407686E+02  0.82795447483E+02  0.27515600563E+03  0.33703170222E+03  0.16863805169E+03 0.  0.
        -24    2    5    5    0    0  0.42493921687E+02  0.91579376888E+01  0.61802788013E+02  0.11112468050E+03  0.81483181125E+02 0.  0.
          5    1    3    3  501    0  0.46759795252E+02 -0.37514383563E+02 -0.50146808828E+02  0.78298147243E+02  0.47000000000E+01 0. -1.
        -11    1    4    4    0    0 -0.37613493014E+02 -0.61692949571E+02 -0.12591089529E+03  0.14517006729E+03  0.00000000000E+00 0.  1.
         12    1    4    4    0    0 -0.59995709924E+02  0.16411885651E+02 -0.91718846251E+02  0.11082049430E+03  0.00000000000E+00 0. -1.
         -5    1    5    5    0  502  0.83554859990E+01  0.73637509794E+02  0.21335321762E+03  0.22590702172E+03  0.47000000000E+01 0.  1.
         11    1    6    6    0    0  0.61049981836E+02 -0.69692452665E+00  0.65772989246E+02  0.89742253707E+02  0.00000000000E+00 0. -1.
        -12    1    6    6    0    0 -0.18556060150E+02  0.98548622154E+01 -0.39702012337E+01  0.21382426789E+02  0.00000000000E+00 0.  1.
</event>
<event>
12    1  0.8226261E-002  0.2060598E+03  0.7818608E-02  0.1145062E+00
         21   -1    0    0  501  502  0.00000000000E+00  0.00000000000E+00  0.69520267703E+02  0.69520267703E+02  0.00000000000E+00 0. -1.
         21   -1    0    0  502  503 -0.00000000000E+00 -0.00000000000E+00 -0.64610519999E+03  0.64610519999E+03  0.00000000000E+00 0.  1.
         -6    2    1    2    0  503  0.11118704015E+03 -0.21629856492E+00 -0.37648955630E+03  0.42839940063E+03  0.17151984077E+03 0.  0.
        -24    2    3    3    0    0  0.47531774544E+01 -0.25937009031E+02 -0.10570997457E+03  0.13628059953E+03  0.81868687250E+02 0.  0.
          6    2    1    2  501    0 -0.11118704015E+03  0.21629856492E+00 -0.20009537599E+03  0.28722606706E+03  0.17348789417E+03 0.  0.
         24    2    5    5    0    0 -0.79798456500E+02  0.82582445662E+00 -0.22175626447E+03  0.24879562606E+03  0.79717921883E+02 0.  0.
          5    1    5    5  501    0 -0.31388583651E+02 -0.60952589170E+00  0.21660888483E+02  0.38430440998E+02  0.47000000000E+01 0. -1.
        -13    1    6    6    0    0 -0.10693304772E+02 -0.14708267625E+01 -0.14534312566E+03  0.14574338502E+03  0.00000000000E+00 0.  1.
         14    1    6    6    0    0 -0.69105151728E+02  0.22966512191E+01 -0.76413138810E+02  0.10305224105E+03  0.00000000000E+00 0. -1.
         -5    1    3    3    0  503  0.10643386270E+03  0.25720710466E+02 -0.27077958173E+03  0.29211880110E+03  0.47000000000E+01 0.  1.
         13    1    4    4    0    0  0.31929138707E+02 -0.20510998655E+02 -0.13958324992E+02  0.40435204970E+02  0.00000000000E+00 0. -1.
        -14    1    4    4    0    0 -0.27175961253E+02 -0.54260103762E+01 -0.91751649578E+02  0.95845394563E+02  0.00000000000E+00 0.  1.
</event>
<event>
12    1  0.8226261E-002  0.2303192E+03  0.7818608E-02  0.1126449E+00
         21   -1    0    0  501  502  0.00000000000E+00  0.00000000000E+00  0.58396834139E+02  0.58396834139E+02  0.00000000000E+00 0. -1.
         21   -1    0    0  502  503 -0.00000000000E+00 -0.00000000000E+00 -0.90844932160E+03  0.90844932160E+03  0.00000000000E+00 0.  1.
         -6    2    1    2    0  503  0.43562985530E+02  0.14688515387E+03 -0.43977609709E+03  0.49643725500E+03  0.17197078369E+03 0.  0.
        -24    2    3    3    0    0  0.57820264487E+02  0.93829842453E+02 -0.41260632091E+03  0.43496837823E+03  0.82500252673E+02 0.  0.
          6    2    1    2  501    0 -0.43562985530E+02 -0.14688515387E+03 -0.41027639037E+03  0.47040890074E+03  0.17171148844E+03 0.  0.
         24    2    5    5    0    0 -0.90569498348E+02 -0.76124947662E+02 -0.29144525068E+03  0.32425983714E+03  0.78779858798E+02 0.  0.
          5    1    5    5  501    0  0.47006512817E+02 -0.70760206208E+02 -0.11883113968E+03  0.14614906359E+03  0.47000000000E+01 0. -1.
        -13    1    6    6    0    0 -0.59011703386E+02 -0.15458702103E+02 -0.20587020287E+03  0.21471817119E+03  0.00000000000E+00 0.  1.
         14    1    6    6    0    0 -0.31557794961E+02 -0.60666245558E+02 -0.85575047810E+02  0.10954166596E+03  0.00000000000E+00 0. -1.
         -5    1    3    3    0  503 -0.14257278957E+02  0.53055311417E+02 -0.27169776183E+02  0.61468876764E+02  0.47000000000E+01 0.  1.
         13    1    4    4    0    0  0.17952681671E+02  0.26357062204E+02 -0.27936464640E+02  0.42396221103E+02  0.00000000000E+00 0. -1.
        -14    1    4    4    0    0  0.39867582816E+02  0.67472780249E+02 -0.38466985627E+03  0.39257215713E+03  0.00000000000E+00 0.  1.
</event>
<event>
12    1  0.8226261E-002  0.2081096E+03  0.7818608E-02  0.1143334E+00
         21   -1    0    0  501  502  0.00000000000E+00  0.00000000000E+00  0.36686824910E+03  0.36686824910E+03  0.00000000000E+00 0.  1.
         21   -1    0    0  502  503 -0.00000000000E+00 -0.00000000000E+00 -0.22221660891E+03  0.22221660891E+03  0.00000000000E+00 0.  1.
         -6    2    1    2    0  503  0.11521437251E+03  0.15618240801E+02 -0.12992631957E+03  0.24533746170E+03  0.17260168168E+03 0.  0.
        -24    2    3    3    0    0  0.13233612589E+03  0.60992888032E+01 -0.48443742090E+02  0.16140138293E+03  0.78444622026E+02 0.  0.
          6    2    1    2  501    0 -0.11521437251E+03 -0.15618240801E+02  0.27457795975E+03  0.34374739631E+03  0.17102904844E+03 0.  0.
         24    2    5    5    0    0 -0.44354221456E+02 -0.61719480830E+02  0.90317428342E+02  0.14096544747E+03  0.77054709416E+02 0.  0.
          5    1    5    5  501    0 -0.70860151051E+02  0.46101240029E+02  0.18426053141E+03  0.20278194884E+03  0.47000000000E+01 0. -1.
        -11    1    6    6    0    0 -0.29161634338E+02 -0.59717737643E+01  0.75732309740E+02  0.81372266392E+02  0.00000000000E+00 0.  1.
         12    1    6    6    0    0 -0.15192587118E+02 -0.55747707066E+02  0.14585118602E+02  0.59593181079E+02  0.00000000000E+00 0. -1.
         -5    1    3    3    0  503 -0.17121753382E+02  0.95189519980E+01 -0.81482577481E+02  0.83936078768E+02  0.47000000000E+01 0.  1.
         13    1    4    4    0    0  0.11534234992E+02 -0.25944726587E+02 -0.36015653893E+01  0.28620599012E+02  0.00000000000E+00 0. -1.
        -14    1    4    4    0    0  0.12080189090E+03  0.32044015390E+02 -0.44842176700E+02  0.13278078392E+03  0.00000000000E+00 0.  1.
</event>
<event>
12    1  0.8226261E-002  0.2494283E+03  0.7818608E-02  0.1113711E+00
         21   -1    0    0  501  502  0.00000000000E+00  0.00000000000E+00  0.41136913244E+02  0.41136913244E+02  0.00000000000E+00 0. -1.
         21   -1    0    0  502  503 -0.00000000000E+00 -0.00000000000E+00 -0.16127522148E+04  0.16127522148E+04  0.00000000000E+00 0.  1.
         -6    2    1    2    0  503  0.17953308292E+03  0.98346935552E+00 -0.99425309831E+03  0.10250627706E+04  0.17315127821E+03 0.  0.
        -24    2    3    3    0    0  0.13631818214E+03 -0.60184016272E+02 -0.77342050540E+03  0.79182874001E+03  0.81293989499E+02 0.  0.
          6    2    1    2  501    0 -0.17953308292E+03 -0.98346935552E+00 -0.57736220329E+03  0.62882635746E+03  0.17274946882E+03 0.  0.
         24    2    5    5    0    0 -0.17761021900E+03  0.34408272774E+02 -0.54792363211E+03  0.58251229600E+03  0.79818226188E+02 0.  0.
          5    1    5    5  501    0 -0.19228639265E+01 -0.35391742129E+02 -0.29438571178E+02  0.46314061467E+02  0.47000000000E+01 0. -1.
        -11    1    6    6    0    0 -0.72425128657E+02  0.28800287284E+02 -0.34706849748E+03  0.35571252121E+03  0.00000000000E+00 0.  1.
         12    1    6    6    0    0 -0.10518509034E+03  0.56079854892E+01 -0.20085513464E+03  0.22679977478E+03  0.00000000000E+00 0. -1.
         -5    1    3    3    0  503  0.43214900781E+02  0.61167485627E+02 -0.22083259290E+03  0.23323403061E+03  0.47000000000E+01 0.  1.
         13    1    4    4    0    0  0.96084499657E+02  0.15025794009E+01 -0.43627695094E+03  0.44673489537E+03  0.00000000000E+00 0. -1.
        -14    1    4    4    0    0  0.40233682486E+02 -0.61686595672E+02 -0.33714355447E+03  0.34509384464E+03  0.00000000000E+00 0.  1.
</event>
<event>
12    1  0.8226261E-002  0.1921059E+03  0.7818608E-02  0.1156961E+00
         21   -1    0    0  501  502  0.00000000000E+00  0.00000000000E+00  0.24069560205E+02  0.24069560205E+02  0.00000000000E+00 0.  1.
         21   -1    0    0  502  503 -0.00000000000E+00 -0.00000000000E+00 -0.15275952475E+04  0.15275952475E+04  0.00000000000E+00 0.  1.
         -6    2    1    2    0  503  0.15456443335E+02 -0.81553991989E+02 -0.69873084769E+03  0.72465818625E+03  0.17324760932E+03 0.  0.
        -24    2    3    3    0    0  0.77975364913E+02 -0.50119038466E+02 -0.46530348914E+03  0.48092227675E+03  0.78656364792E+02 0.  0.
          6    2    1    2  501    0 -0.15456443335E+02  0.81553991989E+02 -0.80479483961E+03  0.82700662146E+03  0.17133377608E+03 0.  0.
         24    2    5    5    0    0 -0.26335432759E+02 -0.19788725709E+02 -0.43978305597E+03  0.44800214782E+03  0.78813954669E+02 0.  0.
          5    1    5    5  501    0  0.10878989423E+02  0.10134271770E+03 -0.36501178364E+03  0.37900447364E+03  0.47000000000E+01 0. -1.
        -13    1    6    6    0    0  0.92507133697E+01  0.23036050537E+02 -0.21487276994E+03  0.21630197083E+03  0.00000000000E+00 0.  1.
         14    1    6    6    0    0 -0.35586146128E+02 -0.42824776247E+02 -0.22491028603E+03  0.23170017699E+03  0.00000000000E+00 0. -1.
         -5    1    3    3    0  503 -0.62518921578E+02 -0.31434953523E+02 -0.23342735855E+03  0.24373590950E+03  0.47000000000E+01 0.  1.
         11    1    4    4    0    0  0.31297266186E+02  0.19816373832E+02 -0.16187193487E+03  0.16605640861E+03  0.00000000000E+00 0. -1.
        -12    1    4    4    0    0  0.46678098727E+02 -0.69935412298E+02 -0.30343155427E+03  0.31486586814E+03  0.00000000000E+00 0.  1.
</event>
<event>
12    1  0.8226261E-002  0.2244433E+03  0.7818608E-02  0.1134215E+00
         21   -1    0    0  503  502  0.00000000000E+00  0.00000000000E+00  0.58962377433E+03  0.58962377433E+03  0.00000000000E+00 0. -1.
         21   -1    0    0  501  503 -0.00000000000E+00 -0.00000000000E+00 -0.40742525708E+03  0.40742525708E+03  0.00000000000E+00 0. -1.
          6    2    1    2  501    0 -0.11203125845E+03 -0.16603064938E+02 -0.35605546523E+03  0.42089228030E+03  0.19377345707E+03 0.  0.
         24    2    3    3    0    0 -0.12351509221E+03  0.17878914740E+01 -0.13768118278E+03  0.20139393645E+03  0.79650706141E+02 0.  0.
         -6    2    1    2    0  502  0.11203125845E+03  0.16603064938E+02  0.53825398247E+03  0.57615675110E+03  0.17150098413E+03 0.  0.
        -24    2    5    5    0    0  0.11587094556E+03 -0.43073277049E+02  0.37685916089E+03  0.40397548783E+03  0.76759262614E+02 0.  0.
          5    1    3    3  501    0  0.11483833766E+02 -0.18390956412E+02 -0.21837428245E+03  0.21949834385E+03  0.47000000000E+01 0. -1.
        -11    1    4    4    0    0 -0.22561790326E+02  0.97311750504E+01  0.63018227981E+01  0.25366180658E+02  0.00000000000E+00 0.  1.
         12    1    4    4    0    0 -0.10095330189E+03 -0.79432835764E+01 -0.14398300557E+03  0.17602775579E+03  0.00000000000E+00 0. -1.
         -5    1    5    5    0  502 -0.38396871084E+01  0.59676341986E+02  0.16139482158E+03  0.17218126328E+03  0.47000000000E+01 0.  1.
         11    1    6    6    0    0  0.61328779916E+02  0.12430192005E+02  0.22219419039E+03  0.23083757745E+03  0.00000000000E+00 0. -1.
        -12    1    6    6    0    0  0.54542165640E+02 -0.55503469054E+02  0.15466497050E+03  0.17313791038E+03  0.00000000000E+00 0.  1.
</event>
<event>
12    1  0.8226261E-002  0.1764375E+03  0.7818608E-02  0.1172036E+00
         21   -1    0    0  503  502  0.00000000000E+00  0.00000000000E+00  0.47559214629E+03  0.47559214629E+03  0.00000000000E+00 0. -1.
         21   -1    0    0  501  503 -0.00000000000E+00 -0.00000000000E+00 -0.12429624564E+03  0.12429624564E+03  0.00000000000E+00 0. -1.
          6    2    1    2  501    0  0.45444463159E+01 -0.32068771229E+02 -0.31856093330E+02  0.17929025025E+03  0.17343911056E+03 0.  0.
         24    2    3    3    0    0  0.35693453415E+02  0.33266075553E+02 -0.45546474360E+02  0.10547684103E+03  0.81671465444E+02 0.  0.
         -6    2    1    2    0  502 -0.45444463159E+01  0.32068771229E+02  0.38315199398E+03  0.42059814168E+03  0.17043558377E+03 0.  0.
        -24    2    5    5    0    0 -0.25079351012E+02 -0.36718195349E+02  0.28271017489E+03  0.29705066860E+03  0.79604378109E+02 0.  0.
          5    1    3    3  501    0 -0.31149007099E+02 -0.65334846782E+02  0.13690381030E+02  0.73813409216E+02  0.47000000000E+01 0. -1.
        -13    1    4    4    0    0  0.16943430951E+02  0.28338082501E+02  0.18991836502E+02  0.38089586844E+02  0.00000000000E+00 0.  1.
         14    1    4    4    0    0  0.18750022464E+02  0.49279930527E+01 -0.64538310862E+02  0.67387254187E+02  0.00000000000E+00 0. -1.
         -5    1    5    5    0  502  0.20534904696E+02  0.68786966577E+02  0.10044181909E+03  0.12354747308E+03  0.47000000000E+01 0.  1.
         13    1    6    6    0    0 -0.31243964332E+02 -0.89636549367E+01  0.25595361616E+03  0.25800927511E+03  0.00000000000E+00 0. -1.
        -14    1    6    6    0    0  0.61646133205E+01 -0.27754540412E+02  0.26756558732E+02  0.39041393495E+02  0.00000000000E+00 0.  1.
</event>
<event>
12    1  0.8226261E-002  0.1746168E+03  0.7818608E-02  0.1173429E+00
         21   -1    0    0  503  502  0.00000000000E+00  0.00000000000E+00  0.22104914286E+04  0.22104914286E+04  0.00000000000E+00 0.  1.
         21   -1    0    0  501  503 -0.00000000000E+00 -0.00000000000E+00 -0.22705480284E+02  0.22705480284E+02  0.00000000000E+00 0.  1.
          6    2    1    2  501    0 -0.32410831575E+01  0.27004159971E+02  0.39288829034E+03  0.42994446527E+03  0.17248566680E+03 0.  0.
         24    2    3    3    0    0  0.43556666300E+02 -0.20841448161E+02  0.30769110485E+03  0.32150147570E+03  0.79736025301E+02 0.  0.
         -6    2    1    2    0  502  0.32410831575E+01 -0.27004159971E+02  0.17948976579E+04  0.18032524436E+04  0.17123680539E+03 0.  0.
        -24    2    5    5    0    0 -0.30371553363E+02 -0.77269404929E+02  0.11131562466E+04  0.11188184832E+04  0.75795625291E+02 0.  0.
          5    1    3    3  501    0 -0.46797749458E+02  0.47845608132E+02  0.85197185492E+02  0.10844298957E+03  0.47000000000E+01 0. -1.
        -13    1    4    4    0    0 -0.98119262690E+01  0.18951388564E+02  0.36703527826E+02  0.42456777792E+02  0.00000000000E+00 0.  1.
         14    1    4    4    0    0  0.53368592569E+02 -0.39792836725E+02  0.27098757703E+03  0.27904469791E+03  0.00000000000E+00 0. -1.
         -5    1    5    5    0  502  0.33612636521E+02  0.50265244958E+02  0.68174141136E+03  0.68443396040E+03  0.47000000000E+01 0.  1.
         11    1    6    6    0    0  0.52072270556E+01  0.43679535080E+01  0.10103767309E+02  0.12177041730E+02  0.00000000000E+00 0. -1.
        -12    1    6    6    0    0 -0.35578780419E+02 -0.81637358437E+02  0.11030524793E+04  0.11066414415E+04  0.00000000000E+00 0.  1.
</event>
<event>
12    1  0.8226261E-002  0.2369381E+03  0.7818608E-02  0.1121881E+00
         21   -1    0    0  503  502  0.00000000000E+00  0.00000000000E+00  0.45938355455E+03  0.45938355455E+03  0.00000000000E+00 0.  1.
         21   -1    0    0  501  503 -0.00000000000E+00 -0.00000000000E+00 -0.14106573451E+03  0.14106573451E+03  0.00000000000E+00 0.  1.
          6    2    1    2  501    0 -0.11636065844E+03 -0.11371079082E+03  0.26915443295E+03  0.35846432802E+03  0.17199598514E+03 0.  0.
         24    2    3    3    0    0 -0.68311726856E+02  0.14035736681E+02  0.10552299389E+03  0.14533241355E+03  0.71574536394E+02 0.  0.
         -6    2    1    2    0  502  0.11636065844E+03  0.11371079082E+03  0.49163387089E+02  0.24198496104E+03  0.17224905213E+03 0.  0.
        -24    2    5    5    0    0 -0.48428328696E+01  0.32331400522E+02  0.39562759385E+02  0.95604793250E+02  0.80661589819E+02 0.  0.
          5    1    3    3  501    0 -0.48048931586E+02 -0.12774652750E+03  0.16363143906E+03  0.21313191447E+03  0.47000000000E+01 0. -1.
        -11    1    4    4    0    0 -0.55916668951E+02 -0.55560134590E+01  0.10827338501E+03  0.12198634782E+03  0.00000000000E+00 0.  1.
         12    1    4    4    0    0 -0.12395057905E+02  0.19591750140E+02 -0.27503911231E+01  0.23346065736E+02  0.00000000000E+00 0. -1.
         -5    1    5    5    0  502  0.12120349131E+03  0.81379390295E+02  0.96006277039E+01  0.14638016779E+03  0.47000000000E+01 0.  1.
         11    1    6    6    0    0  0.18872269302E+02 -0.16884874745E+02  0.31443693098E+02  0.40372854486E+02  0.00000000000E+00 0. -1.
        -12    1    6    6    0    0 -0.23715102171E+02  0.49216275267E+02  0.81190662873E+01  0.55231938763E+02  0.00000000000E+00 0.  1.
</event>
<event>
12    1  0.8226261E-002  0.2885749E+03  0.7818608E-02  0.1091139E+00
         21   -1    0    0  501  502  0.00000000000E+00  0.00000000000E+00  0.23889952064E+03  0.23889952064E+03  0.00000000000E+00 0. -1.
         21   -1    0    0  502  503 -0.00000000000E+00 -0.00000000000E+00 -0.35785253719E+03  0.35785253719E+03  0.00000000000E+00 0.  1.
         -6    2    1    2    0  503  0.11383018074E+03 -0.19829193194E+03 -0.10856832406E+03  0.30832220253E+03  0.17606390676E+03 0.  0.
        -24    2    3    3    0    0  0.85067955186E+02 -0.13541001187E+03  0.10111291667E+01  0.17866439112E+03  0.79671286906E+02 0.  0.
          6    2    1    2  501    0 -0.11383018074E+03  0.19829193194E+03 -0.10384692495E+02  0.28842985530E+03  0.17551905672E+03 0.  0.
         24    2    5    5    0    0 -0.24931327966E+02  0.16060756557E+03 -0.44418977401E+02  0.18594307546E+03  0.78647444494E+02 0.  0.
          5    1    5    5  501    0 -0.88898852774E+02  0.37684366372E+02  0.34034284906E+02  0.10248677984E+03  0.47000000000E+01 0. -1.
        -13    1    6    6    0    0  0.19188313831E+02  0.11181158104E+03 -0.38889352809E+02  0.11992665593E+03  0.00000000000E+00 0.  1.
         14    1    6    6    0    0 -0.44119641796E+02  0.48795984532E+02 -0.55296245921E+01  0.66016419525E+02  0.00000000000E+00 0. -1.
         -5    1    3    3    0  503  0.28762225553E+02 -0.62881920074E+02 -0.10957945322E+03  0.12965781141E+03  0.47000000000E+01 0.  1.
         11    1    4    4    0    0  0.33931689210E+02 -0.10502380209E+03 -0.25914914744E+02  0.11337081346E+03  0.00000000000E+00 0. -1.
        -12    1    4    4    0    0  0.51136265976E+02 -0.30386209778E+02  0.26926043911E+02  0.65293577658E+02  0.00000000000E+00 0.  1.
</event>
<event>
12    1  0.8226261E-002  0.2854892E+03  0.7818608E-02  0.1092879E+00
         21   -1    0    0  501  502  0.00000000000E+00  0.00000000000E+00  0.21271901791E+03  0.21271901791E+03  0.00000000000E+00 0.  1.
         21   -1    0    0  502  503 -0.00000000000E+00 -0.00000000000E+00 -0.38814563923E+03  0.38814563923E+03  0.00000000000E+00 0.  1.
         -6    2    1    2    0  503 -0.13968479584E+02  0.22666064901E+03 -0.12677600560E+03  0.31237199789E+03  0.17301428045E+03 0.  0.
        -24    2    3    3    0    0 -0.61510584834E+02  0.17277113371E+03 -0.78997425251E+02  0.22594738120E+03  0.10572705038E+03 0.  0.
          6    2    1    2  501    0  0.13968479584E+02 -0.22666064901E+03 -0.48650615716E+02  0.28849265925E+03  0.17114603062E+03 0.  0.
         24    2    5    5    0    0  0.20075489880E+02 -0.14544964963E+03  0.37180365291E+02  0.17007995176E+03  0.77370437211E+02 0.  0.
          5    1    5    5  501    0 -0.61070102961E+01 -0.81210999379E+02 -0.85830981007E+02  0.11841270749E+03  0.47000000000E+01 0. -1.
        -11    1    6    6    0    0 -0.27629506242E+02 -0.29979600566E+02  0.50744256601E+01  0.41084253200E+02  0.00000000000E+00 0.  1.
         12    1    6    6    0    0  0.47704996122E+02 -0.11547004907E+03  0.32105939631E+02  0.12899569856E+03  0.00000000000E+00 0. -1.
         -5    1    3    3    0  503  0.47542105250E+02  0.53889515298E+02 -0.47778580351E+02  0.86424616695E+02  0.47000000000E+01 0.  1.
         13    1    4    4    0    0  0.10878758848E+02 -0.89305331028E+01 -0.13968406577E+02  0.19829730151E+02  0.00000000000E+00 0. -1.
        -14    1    4    4    0    0 -0.72389343682E+02  0.18170166682E+03 -0.65029018675E+02  0.20611765105E+03  0.00000000000E+00 0.  1.
</event>
<event>
12    1  0.8226261E-002  0.2669855E+03  0.7818608E-02  0.1103090E+00
         21   -1    0    0  503  502  0.00000000000E+00  0.00000000000E+00  0.32917782600E+03  0.32917782600E+03  0.00000000000E+00 0. -1.
         21   -1    0    0  501  503 -0.00000000000E+00 -0.00000000000E+00 -0.97321166766E+03  0.97321166766E+03  0.00000000000E+00 0.  1.
          6    2    1    2  501    0 -0.10166669578E+02 -0.20321027131E+03 -0.89643395256E+03  0.93534756251E+03  0.17286831940E+03 0.  0.
         24    2    3    3    0    0 -0.46034225947E+02 -0.12664615286E+03 -0.74492734527E+03  0.76178233591E+03  0.85071614373E+02 0.  0.
         -6    2    1    2    0  502  0.10166669578E+02  0.20321027131E+03  0.25240011090E+03  0.36704193116E+03  0.17209354349E+03 0.  0.
        -24    2    5    5    0    0  0.20518612844E+02  0.29372261523E+02  0.11965126732E+03  0.14801873182E+03  0.79431580487E+02 0.  0.
          5    1    3    3  501    0  0.35867556370E+02 -0.76564118447E+02 -0.15150660728E+03  0.17356522660E+03  0.47000000000E+01 0. -1.
        -13    1    4    4    0    0 -0.38241067314E+02 -0.10872686135E+02 -0.12780478013E+03  0.13384564377E+03  0.00000000000E+00 0.  1.
         14    1    4    4    0    0 -0.77931586337E+01 -0.11577346673E+03 -0.61712256515E+03  0.62793669214E+03  0.00000000000E+00 0. -1.
         -5    1    5    5    0  502 -0.10351943267E+02  0.17383800979E+03  0.13274884357E+03  0.21902319933E+03  0.47000000000E+01 0.  1.
         11    1    6    6    0    0 -0.22475765892E+02  0.36661219521E+02  0.51275707009E+02  0.66920872667E+02  0.00000000000E+00 0. -1.
        -12    1    6    6    0    0  0.42994378736E+02 -0.72889579975E+01  0.68375560315E+02  0.81097859158E+02  0.00000000000E+00 0.  1.
</event>
<event>
12    1  0.8226261E-002  0.1910646E+03  0.7818608E-02  0.1157549E+00
         21   -1    0    0  503  502  0.00000000000E+00  0.00000000000E+00  0.15759886203E+03  0.15759886203E+03  0.00000000000E+00 0. -1.
         21   -1    0    0  501  503 -0.00000000000E+00 -0.00000000000E+00 -0.23489439128E+03  0.23489439128E+03  0.00000000000E+00 0.  1.
          6    2    1    2  501    0  0.42399317496E+02  0.71379600852E+02 -0.62579058514E+02  0.20086275764E+03  0.17186319938E+03 0.  0.
         24    2    3    3    0    0 -0.30127425739E+02  0.13460685746E+02 -0.60250886667E+01  0.92073186835E+02  0.85745659937E+02 0.  0.
         -6    2    1    2    0  502 -0.42399317496E+02 -0.71379600852E+02 -0.14716470737E+02  0.19163049566E+03  0.17208405741E+03 0.  0.
        -24    2    5    5    0    0 -0.75969801135E+02 -0.44009368810E+02 -0.55123937709E+02  0.13220861113E+03  0.82050186601E+02 0.  0.
          5    1    3    3  501    0  0.72526743235E+02  0.57918915106E+02 -0.56553969848E+02  0.10878957081E+03  0.47000000000E+01 0. -1.
        -11    1    4    4    0    0 -0.42186329020E+01  0.46214364089E+02 -0.16087646811E+02  0.49115951499E+02  0.00000000000E+00 0.  1.
         12    1    4    4    0    0 -0.25908792837E+02 -0.32753678343E+02  0.10062558145E+02  0.42957235336E+02  0.00000000000E+00 0. -1.
         -5    1    5    5    0  502  0.33570483639E+02 -0.27370232042E+02  0.40407466972E+02  0.59421884528E+02  0.47000000000E+01 0.  1.
         11    1    6    6    0    0  0.14635727659E+01 -0.42697848278E+02 -0.19328088080E+02  0.46891612061E+02  0.00000000000E+00 0. -1.
        -12    1    6    6    0    0 -0.77433373901E+02 -0.13115205318E+01 -0.35795849629E+02  0.85316999071E+02  0.00000000000E+00 0.  1.
</event>
<event>
12    1  0.8226261E-002  0.1869087E+03  0.7818608E-02  0.1161379E+00
         21   -1    0    0  503  502  0.00000000000E+00  0.00000000000E+00  0.71478348287E+03  0.71478348287E+03  0.00000000000E+00 0. -1.
         21   -1    0    0  501  503 -0.00000000000E+00 -0.00000000000E+00 -0.67827751261E+02  0.67827751261E+02  0.00000000000E+00 0. -1.
          6    2    1    2  501    0  0.17224175779E+02 -0.71163278391E+02  0.11628253700E+03  0.22012835251E+03  0.17197086598E+03 0.  0.
         24    2    3    3    0    0 -0.61038156873E+02 -0.18673969901E+02  0.61554313272E+02  0.11105320094E+03  0.66854365679E+02 0.  0.
         -6    2    1    2    0  502 -0.17224175779E+02  0.71163278391E+02  0.53067319460E+03  0.56248288162E+03  0.17149947002E+03 0.  0.
        -24    2    5    5    0    0  0.45222235804E+02  0.88523772513E+01  0.20026360259E+03  0.22046710535E+03  0.79854986224E+02 0.  0.
          5    1    3    3  501    0  0.78262332651E+02 -0.52489308490E+02  0.54728223730E+02  0.10907515157E+03  0.47000000000E+01 0. -1.
        -13    1    4    4    0    0 -0.29441620279E+02  0.17335777312E+02  0.14562378731E+01  0.34197350898E+02  0.00000000000E+00 0.  1.
         14    1    4    4    0    0 -0.31596536594E+02 -0.36009747213E+02  0.60098075399E+02  0.76855850042E+02  0.00000000000E+00 0. -1.
         -5    1    5    5    0  502 -0.62446411583E+02  0.62310901140E+02  0.33040959201E+03  0.34201577626E+03  0.47000000000E+01 0.  1.
         13    1    6    6    0    0  0.15253892593E+02  0.30173317518E+02  0.16853715928E+03  0.17189498069E+03  0.00000000000E+00 0. -1.
        -14    1    6    6    0    0  0.29968343211E+02 -0.21320940267E+02  0.31726443315E+02  0.48572124661E+02  0.00000000000E+00 0.  1.
</event>
<event>
12    1  0.8226261E-002  0.2135657E+03  0.7818608E-02  0.1139885E+00
         21   -1    0    0  501  502  0.00000000000E+00  0.00000000000E+00  0.48285383936E+03  0.48285383936E+03  0.00000000000E+00 0.  1.
         21   -1    0    0  502  503 -0.00000000000E+00 -0.00000000000E+00 -0.38040461622E+03  0.38040461622E+03  0.00000000000E+00 0.  1.
         -6    2    1    2    0  503 -0.40564335989E+02 -0.11073594999E+03 -0.32477888429E+03  0.38562451937E+03  0.17122216646E+03 0.  0.
        -24    2    3    3    0    0 -0.24848639648E+02 -0.13060401449E+03 -0.32501472311E+03  0.35985886939E+03  0.78670020633E+02 0.  0.
          6    2    1    2  501    0  0.40564335989E+02  0.11073594999E+03  0.42722810743E+03  0.47763393621E+03  0.17805169268E+03 0.  0.
         24    2    5    5    0    0 -0.13839263794E+01  0.74420676510E+02  0.40277924208E+03  0.41682034545E+03  0.77251085352E+02 0.  0.
          5    1    5    5  501    0  0.41948262369E+02  0.36315273477E+02  0.24448865349E+02  0.60813590753E+02  0.47000000000E+01 0. -1.
        -13    1    6    6    0    0  0.25488322891E+02  0.52203890221E+02  0.34071991337E+03  0.34563703523E+03  0.00000000000E+00 0.  1.
         14    1    6    6    0    0 -0.26872249270E+02  0.22216786289E+02  0.62059328713E+02  0.71183310222E+02  0.00000000000E+00 0. -1.
         -5    1    3    3    0  503 -0.15715696342E+02  0.19868064507E+02  0.23583882715E+00  0.25765649977E+02  0.47000000000E+01 0.  1.
         11    1    4    4    0    0  0.14374068544E+02 -0.14827876322E+02 -0.12146875499E+02  0.23958846948E+02  0.00000000000E+00 0. -1.
        -12    1    4    4    0    0 -0.39222708191E+02 -0.11577613817E+03 -0.31286784761E+03  0.33590002244E+03  0.00000000000E+00 0.  1.
</event>
<event>
12    1  0.8226261E-002  0.1939046E+03  0.7818608E-02  0.1156199E+00
         21   -1    0    0  501  502  0.00000000000E+00  0.00000000000E+00  0.33563834670E+02  0.33563834670E+02  0.00000000000E+00 0.  1.
         21   -1    0    0  502  503 -0.00000000000E+00 -0.00000000000E+00 -0.16195284670E+04  0.16195284670E+04  0.00000000000E+00 0. -1.
         -6    2    1    2    0  503  0.90081928314E+02 -0.10806674346E-01 -0.12584288146E+04  0.12724629644E+04  0.16554202044E+03 0.  0.
        -24    2    3    3    0    0  0.88307658278E+02 -0.28333959040E+02 -0.12098152002E+04  0.12159764838E+04  0.79655098202E+02 0.  0.
          6    2    1    2  501    0 -0.90081928314E+02  0.10806674346E-01 -0.32753581777E+03  0.38062933726E+03  0.17170971592E+03 0.  0.
         24    2    5    5    0    0 -0.12845332547E+03  0.13567933463E+02 -0.26101104976E+03  0.30250255207E+03  0.81833246725E+02 0.  0.
          5    1    5    5  501    0  0.38371397157E+02 -0.13557126789E+02 -0.66524768008E+02  0.78126785196E+02  0.47000000000E+01 0. -1.
        -11    1    6    6    0    0 -0.64641382893E+02 -0.33308528373E+02 -0.14237477662E+03  0.15987039583E+03  0.00000000000E+00 0.  1.
         12    1    6    6    0    0 -0.63811942578E+02  0.46876461836E+02 -0.11863627314E+03  0.14263215624E+03  0.00000000000E+00 0. -1.
         -5    1    3    3    0  503  0.17742700361E+01  0.28323152366E+02 -0.48613614340E+02  0.56486480624E+02  0.47000000000E+01 0.  1.
         11    1    4    4    0    0  0.77272416064E+02  0.12124836286E+02 -0.67421333157E+03  0.67873533458E+03  0.00000000000E+00 0. -1.
        -12    1    4    4    0    0  0.11035242213E+02 -0.40458795326E+02 -0.53560186868E+03  0.53724114923E+03  0.00000000000E+00 0.  1.
</event>
<event>
12    1  0.8226261E-002  0.2398558E+03  0.7818608E-02  0.1120003E+00
         21   -1    0    0  501  502  0.00000000000E+00  0.00000000000E+00  0.11832271069E+03  0.11832271069E+03  0.00000000000E+00 0.  1.
         21   -1    0    0  502  503 -0.00000000000E+00 -0.00000000000E+00 -0.90647031879E+03  0.90647031879E+03  0.00000000000E+00 0.  1.
         -6    2    1    2    0  503  0.12071971723E+03  0.11472384231E+03 -0.74383162721E+03  0.78154737589E+03  0.17261518186E+03 0.  0.
        -24    2    3    3    0    0  0.65530786114E+02  0.14411228156E+03 -0.54567599031E+03  0.57370790680E+03  0.79472273765E+02 0.  0.
          6    2    1    2  501    0 -0.12071971723E+03 -0.11472384231E+03 -0.44315980891E+02  0.24324565358E+03  0.17166750334E+03 0.  0.
         24    2    5    5    0    0 -0.45513210177E+02  0.11440544475E+02 -0.69989941160E+01  0.91627321258E+02  0.78385213682E+02 0.  0.
          5    1    5    5  501    0 -0.75206507051E+02 -0.12616438678E+03 -0.37316986775E+02  0.15161833233E+03  0.47000000000E+01 0. -1.
        -11    1    6    6    0    0 -0.57556016591E+02 -0.13630659084E+02 -0.17833497214E+02  0.61778018225E+02  0.00000000000E+00 0.  1.
         12    1    6    6    0    0  0.12042806415E+02  0.25071203558E+02  0.10834503098E+02  0.29849303033E+02  0.00000000000E+00 0. -1.
         -5    1    3    3    0  503  0.55188931114E+02 -0.29388439248E+02 -0.19815563690E+03  0.20783946909E+03  0.47000000000E+01 0.  1.
         13    1    4    4    0    0  0.92128626605E+01  0.51273999576E+02 -0.79466144941E+02  0.95019829839E+02  0.00000000000E+00 0. -1.
        -14    1    4    4    0    0  0.56317923454E+02  0.92838281981E+02 -0.46620984537E+03  0.47868807696E+03  0.00000000000E+00 0.  1.
</event>
<event>
12    1  0.8226261E-002  0.2072744E+03  0.7818608E-02  0.1144238E+00
         21   -1    0    0  501  502  0.00000000000E+00  0.00000000000E+00  0.13536056688E+03  0.13536056688E+03  0.00000000000E+00 0. -1.
         21   -1    0    0  502  503 -0.00000000000E+00 -0.00000000000E+00 -0.54856107870E+03  0.54856107870E+03  0.00000000000E+00 0. -1.
         -6    2    1    2    0  503 -0.28536627097E+02  0.11116160822E+03 -0.43106747140E+03  0.47831144357E+03  0.17260194065E+03 0.  0.
        -24    2    3    3    0    0  0.22978750624E+02  0.93374961801E+02 -0.16678390762E+03  0.20842611418E+03  0.79860295261E+02 0.  0.
          6    2    1    2  501    0  0.28536627097E+02 -0.11116160822E+03  0.17866959589E+02  0.20561020201E+03  0.16966167717E+03 0.  0.
         24    2    5    5    0    0 -0.20768815434E+02 -0.67348176873E+02 -0.43950793703E+02  0.11508855791E+03  0.79665445908E+02 0.  0.
          5    1    5    5  501    0  0.49305442531E+02 -0.43813431345E+02  0.61817753292E+02  0.90521644105E+02  0.47000000000E+01 0. -1.
        -11    1    6    6    0    0 -0.19127459719E+02  0.12767797992E+02  0.13508073436E+01  0.23036949914E+02  0.00000000000E+00 0.  1.
         12    1    6    6    0    0 -0.16413557152E+01 -0.80115974865E+02 -0.45301601046E+02  0.92051607995E+02  0.00000000000E+00 0. -1.
         -5    1    3    3    0  503 -0.51515377721E+02  0.17786646417E+02 -0.26428356379E+03  0.26988532939E+03  0.47000000000E+01 0.  1.
         11    1    4    4    0    0  0.34502114677E+02  0.40550170019E+01 -0.41279231957E+02  0.53951960771E+02  0.00000000000E+00 0. -1.
        -12    1    4    4    0    0 -0.11523364052E+02  0.89319944799E+02 -0.12550467566E+03  0.15447415340E+03  0.00000000000E+00 0.  1.
</event>
<event>
12    1  0.8226261E-002  0.1892514E+03  0.7818608E-02  0.1162105E+00
         21   -1    0    0  503  502  0.00000000000E+00  0.00000000000E+00  0.58839159585E+03  0.58839159585E+03  0.00000000000E+00 0.  1.
         21   -1    0    0  501  503 -0.00000000000E+00 -0.00000000000E+00 -0.90681568657E+02  0.90681568657E+02  0.00000000000E+00 0.  1.
          6    2    1    2  501    0 -0.39282000704E+02 -0.46442684281E+01  0.36257604737E+02  0.18032028743E+03  0.17215152439E+03 0.  0.
         24    2    3    3    0    0 -0.48401316120E+02  0.60746590096E+02  0.17078929262E+02  0.11140702394E+03  0.78019225505E+02 0.  0.
         -6    2    1    2    0  502  0.39282000704E+02  0.46442684281E+01  0.46145242245E+03  0.49875287707E+03  0.18507147103E+03 0.  0.
        -24    2    5    5    0    0  0.57286387764E+02 -0.62783211646E+02  0.36525760543E+03  0.37981526383E+03  0.60191813571E+02 0.  0.
          5    1    3    3  501    0  0.91193154163E+01 -0.65390858524E+02  0.19178675475E+02  0.68913263492E+02  0.47000000000E+01 0. -1.
        -11    1    4    4    0    0 -0.35992637489E+02 -0.10162901426E+02  0.11841275830E+02  0.39229712363E+02  0.00000000000E+00 0.  1.
         12    1    4    4    0    0 -0.12408678631E+02  0.70909491522E+02  0.52376534317E+01  0.72177311579E+02  0.00000000000E+00 0. -1.
         -5    1    5    5    0  502 -0.18004387060E+02  0.67427480074E+02  0.96194817020E+02  0.11893761324E+03  0.47000000000E+01 0.  1.
         13    1    6    6    0    0 -0.10025386478E+02 -0.14125812135E+02  0.32264969957E+02  0.36620693997E+02  0.00000000000E+00 0. -1.
        -14    1    6    6    0    0  0.67311774242E+02 -0.48657399511E+02  0.33299263548E+03  0.34319456983E+03  0.00000000000E+00 0.  1.
</event>
<event>
12    1  0.8226261E-002  0.2208419E+03  0.7818608E-02  0.1133313E+00
         21   -1    0    0  503  502  0.00000000000E+00  0.00000000000E+00  0.20587606151E+04  0.20587606151E+04  0.00000000000E+00 0.  1.
         21   -1    0    0  501  503 -0.00000000000E+00 -0.00000000000E+00 -0.62464620710E+02  0.62464620710E+02  0.00000000000E+00 0.  1.
          6    2    1    2  501    0 -0.11068243301E+03  0.81318031393E+02  0.16190145343E+03  0.27358499278E+03  0.17254983178E+03 0.  0.
         24    2    3    3    0    0 -0.79823956658E+02  0.78697962750E+02  0.35761083734E+02  0.14361348364E+03  0.82345274152E+02 0.  0.
         -6    2    1    2    0  502  0.11068243301E+03 -0.81318031393E+02  0.18343945410E+04  0.18476402430E+04  0.17293904286E+03 0.  0.
        -24    2    5    5    0    0  0.52186285672E+02 -0.10700737174E+03  0.15226731760E+04  0.15294044172E+04  0.79814061784E+02 0.  0.
          5    1    3    3  501    0 -0.30858476353E+02  0.26200686433E+01  0.12614036970E+03  0.12997150915E+03  0.47000000000E+01 0. -1.
        -13    1    4    4    0    0 -0.92765556893E+02  0.46373293579E+02  0.32292815922E+02  0.10862208276E+03  0.00000000000E+00 0.  1.
         14    1    4    4    0    0  0.12941600236E+02  0.32324669171E+02  0.34682678117E+01  0.34991400877E+02  0.00000000000E+00 0. -1.
         -5    1    5    5    0  502  0.58496147338E+02  0.25689340346E+02  0.31172136501E+03  0.31823582587E+03  0.47000000000E+01 0.  1.
         13    1    6    6    0    0  0.31766374256E+02 -0.77180225368E+02  0.57330704067E+03  0.57935037119E+03  0.00000000000E+00 0. -1.
        -14    1    6    6    0    0  0.20419911416E+02 -0.29827146371E+02  0.94936613530E+03  0.95005404599E+03  0.00000000000E+00 0.  1.
</event>
<event>
12    1  0.8226261E-002  0.2266571E+03  0.7818608E-02  0.1129101E+00
         21   -1    0    0  501  502  0.00000000000E+00  0.00000000000E+00  0.19634017072E+03  0.19634017072E+03  0.00000000000E+00 0. -1.
         21   -1    0    0  502  503 -0.00000000000E+00 -0.00000000000E+00 -0.30829156922E+03  0.30829156922E+03  0.00000000000E+00 0. -1.
         -6    2    1    2    0  503  0.11412655626E+03 -0.91869823400E+02 -0.15473816763E+03  0.27444009028E+03  0.17294082032E+03 0.  0.
        -24    2    3    3    0    0  0.13232497724E+03 -0.11731674037E+03 -0.13900564166E+03  0.23910836965E+03  0.81099487366E+02 0.  0.
          6    2    1    2  501    0 -0.11412655626E+03  0.91869823400E+02  0.42786769132E+02  0.23019164967E+03  0.17231527114E+03 0.  0.
         24    2    5    5    0    0  0.51690626676E+01  0.64713171232E+02  0.12215401925E+02  0.10399487100E+03  0.80319383781E+02 0.  0.
          5    1    5    5  501    0 -0.11929561893E+03  0.27156652168E+02  0.30571367206E+02  0.12619677866E+03  0.47000000000E+01 0. -1.
        -13    1    6    6    0    0  0.42353396531E+01  0.34219638163E+02 -0.34125949823E+02  0.48512907451E+02  0.00000000000E+00 0.  1.
         14    1    6    6    0    0  0.93372301442E+00  0.30493533070E+02  0.46341351749E+02  0.55481963552E+02  0.00000000000E+00 0. -1.
         -5    1    3    3    0  503 -0.18198420978E+02  0.25446916965E+02 -0.15732525966E+02  0.35331720626E+02  0.47000000000E+01 0.  1.
         11    1    4    4    0    0  0.12214233791E+02 -0.27114374353E+02  0.59879022802E+01  0.30335322273E+02  0.00000000000E+00 0. -1.
        -12    1    4    4    0    0  0.12011074345E+03 -0.90202366012E+02 -0.14499354394E+03  0.20877304738E+03  0.00000000000E+00 0.  1.
</event>
<event>
12    1  0.8226261E-002  0.1857641E+03  0.7818608E-02  0.1163192E+00
         21   -1    0    0  501  502  0.00000000000E+00  0.00000000000E+00  0.10465771883E+03  0.10465771883E+03  0.00000000000E+00 0. -1.
         21   -1    0    0  502  503 -0.00000000000E+00 -0.00000000000E+00 -0.73556772225E+03  0.73556772225E+03  0.00000000000E+00 0. -1.
         -6    2    1    2    0  503  0.13933413644E+02  0.58424262450E+02 -0.62859385298E+03  0.65444685258E+03  0.17193869951E+03 0.  0.
        -24    2    3    3    0    0 -0.34684013717E+02  0.49803943393E+02 -0.56394936228E+03  0.57296701261E+03  0.81048755302E+02 0.  0.
          6    2    1    2  501    0 -0.13933413644E+02 -0.58424262450E+02 -0.23161504430E+01  0.18577858851E+03  0.17578619097E+03 0.  0.
         24    2    5    5    0    0  0.68824197485E+01 -0.10495930614E+03  0.14613842628E+02  0.13185712825E+03  0.78159543408E+02 0.  0.
          5    1    5    5  501    0 -0.20815833392E+02  0.46535043693E+02 -0.16929993071E+02  0.53921460261E+02  0.47000000000E+01 0. -1.
        -11    1    6    6    0    0 -0.22443942774E+02 -0.42383375841E+01  0.14310104216E+02  0.26953165962E+02  0.00000000000E+00 0.  1.
         12    1    6    6    0    0  0.29326362522E+02 -0.10072096856E+03  0.30373841145E+00  0.10490396229E+03  0.00000000000E+00 0. -1.
         -5    1    3    3    0  503  0.48617427360E+02  0.86203190574E+01 -0.64644490699E+02  0.81479839970E+02  0.47000000000E+01 0.  1.
         13    1    4    4    0    0 -0.10593959707E+02 -0.15425191321E+02 -0.28010801375E+03  0.28073237767E+03  0.00000000000E+00 0. -1.
        -14    1    4    4    0    0 -0.24090054010E+02  0.65229134713E+02 -0.28384134853E+03  0.29223463493E+03  0.00000000000E+00 0.  1.
</event>
<event>
12    1  0.8226261E-002  0.2019683E+03  0.7818608E-02  0.1148251E+00
         21   -1    0    0  501  502  0.00000000000E+00  0.00000000000E+00  0.10082402402E+04  0.10082402402E+04  0.00000000000E+00 0. -1.
         21   -1    0    0  502  503 -0.00000000000E+00 -0.00000000000E+00 -0.41807965638E+02  0.41807965638E+02  0.00000000000E+00 0.  1.
         -6    2    1    2    0  503 -0.19187075642E+02  0.98408314553E+02  0.58374545517E+03  0.61769729292E+03  0.17532498112E+03 0.  0.
        -24    2    3    3    0    0  0.34973617362E+02  0.15452700967E+02  0.15764655068E+03  0.18020742915E+03  0.78487850665E+02 0.  0.
          6    2    1    2  501    0  0.19187075642E+02 -0.98408314553E+02  0.38268681934E+03  0.43235091287E+03  0.17442984239E+03 0.  0.
         24    2    5    5    0    0 -0.56442816462E+02 -0.40247301562E+02  0.21045310517E+03  0.23540136017E+03  0.79483671778E+02 0.  0.
          5    1    5    5  501    0  0.75629892104E+02 -0.58161012991E+02  0.17223371417E+03  0.19694955270E+03  0.47000000000E+01 0. -1.
        -11    1    6    6    0    0 -0.43921613599E+02 -0.46197665202E+02  0.21207110687E+03  0.22144409403E+03  0.00000000000E+00 0.  1.
         12    1    6    6    0    0 -0.12521202864E+02  0.59503636404E+01 -0.16180016974E+01  0.13957266140E+02  0.00000000000E+00 0. -1.
         -5    1    3    3    0  503 -0.54160693004E+02  0.82955613585E+02  0.42609890449E+03  0.43748986377E+03  0.47000000000E+01 0.  1.
         11    1    4    4    0    0  0.18746773207E+01 -0.68775343536E+01  0.13320003259E+03  0.13339064276E+03  0.00000000000E+00 0. -1.
        -12    1    4    4    0    0  0.33098940042E+02  0.22330235321E+02  0.24446518089E+02  0.46816786391E+02  0.00000000000E+00 0.  1.
</event>
<event>
12    1  0.8226261E-002  0.2414073E+03  0.7818608E-02  0.1119091E+00
         21   -1    0    0  503  502  0.00000000000E+00  0.00000000000E+00  0.26482326402E+03  0.26482326402E+03  0.00000000000E+00 0. -1.
         21   -1    0    0  501  503 -0.00000000000E+00 -0.00000000000E+00 -0.36070588959E+03  0.36070588959E+03  0.00000000000E+00 0.  1.
          6    2    1    2  501    0 -0.72822713181E+02  0.15045263105E+03  0.14832665443E+03  0.28214062963E+03  0.17223064979E+03 0.  0.
         24    2    3    3    0    0 -0.28098115580E+02  0.23795640074E+02  0.75723264716E+01  0.87522660694E+02  0.79038847544E+02 0.  0.
         -6    2    1    2    0  502  0.72822713181E+02 -0.15045263105E+03 -0.24420928000E+03  0.34338852398E+03  0.17417911533E+03 0.  0.
        -24    2    5    5    0    0  0.36473554549E+02 -0.68899669268E+01 -0.58880496809E+02  0.10611158084E+03  0.80093463272E+02 0.  0.
          5    1    3    3  501    0 -0.44724597601E+02  0.12665699098E+03  0.14075432796E+03  0.19461796894E+03  0.47000000000E+01 0. -1.
        -11    1    4    4    0    0 -0.18800287396E+02 -0.28463247956E+02  0.33291705957E+01  0.34273760622E+02  0.00000000000E+00 0.  1.
         12    1    4    4    0    0 -0.92978281843E+01  0.52258888030E+02  0.42431558759E+01  0.53248900072E+02  0.00000000000E+00 0. -1.
         -5    1    5    5    0  502  0.36349158632E+02 -0.14356266413E+03 -0.18532878319E+03  0.23727694313E+03  0.47000000000E+01 0.  1.
         13    1    6    6    0    0  0.49485714251E+02  0.77521358199E+01 -0.68038807710E+02  0.84487933336E+02  0.00000000000E+00 0. -1.
        -14    1    6    6    0    0 -0.13012159702E+02 -0.14642102747E+02  0.91583109013E+01  0.21623647507E+02  0.00000000000E+00 0.  1.
</event>
<event>
12    1  0.8226261E-002  0.1872791E+03  0.7818608E-02  0.1161009E+00
         21   -1    0    0  503  502  0.00000000000E+00  0.00000000000E+00  0.15047951517E+03  0.15047951517E+03  0.00000000000E+00 0.  1.
         21   -1    0    0  501  503 -0.00000000000E+00 -0.00000000000E+00 -0.24105657684E+03  0.24105657684E+03  0.00000000000E+00 0.  1.
          6    2    1    2  501    0  0.64281037662E+02  0.32198557878E+02 -0.81707332611E+02  0.20404706646E+03  0.17259872014E+03 0.  0.
         24    2    3    3    0    0  0.53226408849E+02  0.66682040594E+02 -0.10846383732E+03  0.15877769554E+03  0.78526476166E+02 0.  0.
         -6    2    1    2    0  502 -0.64281037662E+02 -0.32198557878E+02 -0.88697290538E+01  0.18748902555E+03  0.17292964950E+03 0.  0.
        -24    2    5    5    0    0 -0.84575571465E+02 -0.69468137420E+02 -0.31051258548E+02  0.13937457957E+03  0.80512380212E+02 0.  0.
          5    1    3    3  501    0  0.11054628813E+02 -0.34483482716E+02  0.26756504711E+02  0.45269370912E+02  0.47000000000E+01 0. -1.
        -13    1    4    4    0    0  0.43713553111E+02  0.16221036252E+02 -0.94792497468E+02  0.10563907572E+03  0.00000000000E+00 0.  1.
         14    1    4    4    0    0  0.95128557386E+01  0.50461004342E+02 -0.13671339854E+02  0.53138619825E+02  0.00000000000E+00 0. -1.
         -5    1    5    5    0  502  0.20294533802E+02  0.37269579542E+02  0.22181529494E+02  0.48114445982E+02  0.47000000000E+01 0.  1.
         11    1    6    6    0    0 -0.86243757193E+01 -0.37992000823E+02 -0.41002349701E+02  0.56559390592E+02  0.00000000000E+00 0. -1.
        -12    1    6    6    0    0 -0.75951195745E+02 -0.31476136598E+02  0.99510911536E+01  0.82815188978E+02  0.00000000000E+00 0.  1.
</event>
<event>
12    1  0.8226261E-002  0.2124413E+03  0.7818608E-02  0.1139916E+00
         21   -1    0    0  501  502  0.00000000000E+00  0.00000000000E+00  0.25561356145E+03  0.25561356145E+03  0.00000000000E+00 0.  1.
         21   -1    0    0  502  503 -0.00000000000E+00 -0.00000000000E+00 -0.21968610745E+03  0.21968610745E+03  0.00000000000E+00 0.  1.
         -6    2    1    2    0  503 -0.10331433823E+03 -0.67454819502E+02 -0.88666099051E+02  0.23020200894E+03  0.17293722168E+03 0.  0.
        -24    2    3    3    0    0 -0.59415470294E+02 -0.97238902550E+02 -0.10544687687E+03  0.17436396892E+03  0.79360869053E+02 0.  0.
          6    2    1    2  501    0  0.10331433823E+03  0.67454819502E+02  0.12459355305E+03  0.24509765996E+03  0.17124632637E+03 0.  0.
         24    2    5    5    0    0  0.24733977638E+02 -0.25536320836E+02  0.31870220318E+02  0.91990077890E+02  0.78629448399E+02 0.  0.
          5    1    5    5  501    0  0.78580360596E+02  0.92991140338E+02  0.92723332735E+02  0.15310758207E+03  0.47000000000E+01 0. -1.
        -11    1    6    6    0    0  0.24328513811E+02  0.15822638275E+02  0.40415265221E+02  0.49755664292E+02  0.00000000000E+00 0.  1.
         12    1    6    6    0    0  0.40546382648E+00 -0.41358959110E+02 -0.85450449032E+01  0.42234413599E+02  0.00000000000E+00 0. -1.
         -5    1    3    3    0  503 -0.43898867939E+02  0.29784083047E+02  0.16780777820E+02  0.55838040022E+02  0.47000000000E+01 0.  1.
         13    1    4    4    0    0  0.17898782721E+02 -0.56777235435E+01 -0.18017318128E+02  0.26023580078E+02  0.00000000000E+00 0. -1.
        -14    1    4    4    0    0 -0.77314253016E+02 -0.91561179006E+02 -0.87429558743E+02  0.14834038884E+03  0.00000000000E+00 0.  1.
</event>
<event>
12    1  0.8226261E-002  0.2164774E+03  0.7818608E-02  0.1137028E+00
         21   -1    0    0  501  502  0.00000000000E+00  0.00000000000E+00  0.26194518538E+03  0.26194518538E+03  0.00000000000E+00 0.  1.
         21   -1    0    0  502  503 -0.00000000000E+00 -0.00000000000E+00 -0.19308889043E+03  0.19308889043E+03  0.00000000000E+00 0.  1.
         -6    2    1    2    0  503  0.89668645468E+02 -0.89768819746E+02 -0.31488616795E+02  0.21875556231E+03  0.17539542775E+03 0.  0.
        -24    2    3    3    0    0  0.49528358150E+02 -0.79297655613E+02  0.45849814676E+02  0.13086807215E+03  0.79265820852E+02 0.  0.
          6    2    1    2  501    0 -0.89668645468E+02  0.89768819746E+02  0.10034491174E+03  0.23627851350E+03  0.17221941717E+03 0.  0.
         24    2    5    5    0    0 -0.81207088509E+02  0.68710338006E+01  0.99685241308E+02  0.15281495243E+03  0.82301032937E+02 0.  0.
          5    1    5    5  501    0 -0.84615569585E+01  0.82897785946E+02  0.65967043297E+00  0.83463561067E+02  0.47000000000E+01 0. -1.
        -13    1    6    6    0    0 -0.22387550076E+02  0.12967999511E+02 -0.10374489008E+02  0.27874745414E+02  0.00000000000E+00 0.  1.
         14    1    6    6    0    0 -0.58819538434E+02 -0.60969657103E+01  0.11005973032E+03  0.12494020702E+03  0.00000000000E+00 0. -1.
         -5    1    3    3    0  503  0.40140287318E+02 -0.10471164133E+02 -0.77338431470E+02  0.87887490160E+02  0.47000000000E+01 0.  1.
         11    1    4    4    0    0 -0.15542543317E+02 -0.25491078671E+02  0.34577503837E+02  0.45683361481E+02  0.00000000000E+00 0. -1.
        -12    1    4    4    0    0  0.65070901467E+02 -0.53806576942E+02  0.11272310839E+02  0.85184710668E+02  0.00000000000E+00 0.  1.
</event>
<event>
12    1  0.8226261E-002  0.2337058E+03  0.7818608E-02  0.1124064E+00
         21   -1    0    0  501  502  0.00000000000E+00  0.00000000000E+00  0.47628144413E+03  0.47628144413E+03  0.00000000000E+00 0. -1.
         21   -1    0    0  502  503 -0.00000000000E+00 -0.00000000000E+00 -0.12159702253E+03  0.12159702253E+03  0.00000000000E+00 0.  1.
         -6    2    1    2    0  503 -0.15057886398E+03  0.49309136554E+02  0.10595867420E+03  0.25660402618E+03  0.17179348179E+03 0.  0.
        -24    2    3    3    0    0 -0.10748161082E+03  0.26067641715E+01  0.13097178812E+03  0.18814797689E+03  0.81773834700E+02 0.  0.
          6    2    1    2  501    0  0.15057886398E+03 -0.49309136554E+02  0.24872574740E+03  0.34127444048E+03  0.17175086922E+03 0.  0.
         24    2    5    5    0    0  0.35295850091E+02  0.21225358756E+02  0.59469351033E+02  0.10866884750E+03  0.81092550929E+02 0.  0.
          5    1    5    5  501    0  0.11528301389E+03 -0.70534495311E+02  0.18925639637E+03  0.23260559298E+03  0.47000000000E+01 0. -1.
        -13    1    6    6    0    0  0.27095721779E+02 -0.20588252087E+02 -0.17560606141E+01  0.34075475222E+02  0.00000000000E+00 0.  1.
         14    1    6    6    0    0  0.82001283117E+01  0.41813610843E+02  0.61225411647E+02  0.74593372275E+02  0.00000000000E+00 0. -1.
         -5    1    3    3    0  503 -0.43097253162E+02  0.46702372383E+02 -0.25013113914E+02  0.68456049287E+02  0.47000000000E+01 0.  1.
         13    1    4    4    0    0 -0.59756325115E+02  0.19805309522E+02  0.19873100968E+02  0.66015216568E+02  0.00000000000E+00 0. -1.
        -14    1    4    4    0    0 -0.47725285705E+02 -0.17198545350E+02  0.11109868715E+03  0.12213276032E+03  0.00000000000E+00 0.  1.
</event>
<event>
12    1  0.8226261E-002  0.1944992E+03  0.7818608E-02  0.1156012E+00
         21   -1    0    0  501  502  0.00000000000E+00  0.00000000000E+00  0.10487270288E+03  0.10487270288E+03  0.00000000000E+00 0. -1.
         21   -1    0    0  502  503 -0.00000000000E+00 -0.00000000000E+00 -0.71954348718E+03  0.71954348718E+03  0.00000000000E+00 0. -1.
         -6    2    1    2    0  503 -0.82921895317E+02 -0.39376313619E+02 -0.60622690586E+03  0.63666395939E+03  0.17147419924E+03 0.  0.
        -24    2    3    3    0    0  0.10697432058E+02 -0.54175962563E+02 -0.26460254466E+03  0.28210380620E+03  0.80737728848E+02 0.  0.
          6    2    1    2  501    0  0.82921895317E+02  0.39376313619E+02 -0.84438784385E+01  0.18775223066E+03  0.16356364583E+03 0.  0.
         24    2    5    5    0    0  0.76575813650E+02  0.74002087218E+02  0.28687108295E+02  0.13637113369E+03  0.80212042570E+02 0.  0.
          5    1    5    5  501    0  0.63460816670E+01 -0.34625773599E+02 -0.37130986734E+02  0.51381096969E+02  0.47000000000E+01 0. -1.
        -11    1    6    6    0    0  0.95813533908E+01 -0.81932609868E+01 -0.16786004854E+02  0.20992899213E+02  0.00000000000E+00 0.  1.
         12    1    6    6    0    0  0.66994460260E+02  0.82195348205E+02  0.45473113150E+02  0.11537823448E+03  0.00000000000E+00 0. -1.
         -5    1    3    3    0  503 -0.93619327375E+02  0.14799648944E+02 -0.34162436120E+03  0.35456015319E+03  0.47000000000E+01 0.  1.
         11    1    4    4    0    0 -0.25984408787E+02 -0.95390483791E+01 -0.31434784211E+02  0.41884706068E+02  0.00000000000E+00 0. -1.
        -12    1    4    4    0    0  0.36681840844E+02 -0.44636914184E+02 -0.23316776045E+03  0.24021910013E+03  0.00000000000E+00 0.  1.
</event>
<event>
12    1  0.8226261E-002  0.2052916E+03  0.7818608E-02  0.1145568E+00
         21   -1    0    0  503  502  0.00000000000E+00  0.00000000000E+00  0.33808307428E+03  0.33808307428E+03  0.00000000000E+00 0. -1.
         21   -1    0    0  501  503 -0.00000000000E+00 -0.00000000000E+00 -0.16904869349E+03  0.16904869349E+03  0.00000000000E+00 0. -1.
          6    2    1    2  501    0  0.50181983004E+02 -0.10070028166E+03 -0.46523140347E+02  0.20945795005E+03  0.17043899820E+03 0.  0.
         24    2    3    3    0    0 -0.26842608085E+02 -0.46504927695E+02  0.14114032775E+02  0.97346930132E+02  0.79962397264E+02 0.  0.
         -6    2    1    2    0  502 -0.50181983004E+02  0.10070028166E+03  0.21555752114E+03  0.29767381771E+03  0.17171452672E+03 0.  0.
        -24    2    5    5    0    0 -0.39020666869E+02  0.50210750955E+02  0.22434862126E+03  0.24501319551E+03  0.75202594109E+02 0.  0.
          5    1    3    3  501    0  0.77024591089E+02 -0.54195353964E+02 -0.60637173122E+02  0.11211101992E+03  0.47000000000E+01 0. -1.
        -11    1    4    4    0    0 -0.26439394590E+01  0.22219672552E+02  0.95938915777E+01  0.24346396443E+02  0.00000000000E+00 0.  1.
         12    1    4    4    0    0 -0.24198668626E+02 -0.68724600247E+02  0.45201411970E+01  0.73000533689E+02  0.00000000000E+00 0. -1.
         -5    1    5    5    0  502 -0.11161316135E+02  0.50489530705E+02 -0.87911001210E+01  0.52660622195E+02  0.47000000000E+01 0.  1.
         11    1    6    6    0    0 -0.55338210105E+02  0.58175863537E+02  0.18544993305E+03  0.20208519556E+03  0.00000000000E+00 0. -1.
        -12    1    6    6    0    0  0.16317543236E+02 -0.79651125829E+01  0.38898688207E+02  0.42927999953E+02  0.00000000000E+00 0.  1.
</event>
<event>
12    1  0.8226261E-002  0.2264140E+03  0.7818608E-02  0.1129732E+00
         21   -1    0    0  503  502  0.00000000000E+00  0.00000000000E+00  0.12799239503E+03  0.12799239503E+03  0.00000000000E+00 0.  1.
         21   -1    0    0  501  503 -0.00000000000E+00 -0.00000000000E+00 -0.71327546089E+03  0.71327546089E+03  0.00000000000E+00 0.  1.
          6    2    1    2  501    0  0.22064095622E+01 -0.14727683895E+03 -0.57459625078E+03  0.61759547254E+03  0.17195342612E+03 0.  0.
         24    2    3    3    0    0 -0.49834918893E+02 -0.14538236698E+03 -0.47058524713E+03  0.50118126476E+03  0.78183333036E+02 0.  0.
         -6    2    1    2    0  502 -0.22064095622E+01  0.14727683895E+03 -0.10686815066E+02  0.22367238338E+03  0.16798747434E+03 0.  0.
        -24    2    5    5    0    0 -0.25608497333E+02  0.13642309300E+03  0.41642942666E+02  0.16514072479E+03  0.79185029321E+02 0.  0.
          5    1    3    3  501    0  0.52041328455E+02 -0.18944719671E+01 -0.10401100366E+03  0.11641420778E+03  0.47000000000E+01 0. -1.
        -13    1    4    4    0    0 -0.59620852046E+01 -0.10171202847E+03 -0.36331758011E+03  0.37733346951E+03  0.00000000000E+00 0.  1.
         14    1    4    4    0    0 -0.43872833688E+02 -0.43670338507E+02 -0.10726766702E+03  0.12384779525E+03  0.00000000000E+00 0. -1.
         -5    1    5    5    0  502  0.23402087771E+02  0.10853745943E+02 -0.52329757732E+02  0.58531658590E+02  0.47000000000E+01 0.  1.
         11    1    6    6    0    0 -0.51750167593E+02  0.63555924666E+02  0.15364744793E+02  0.83387713655E+02  0.00000000000E+00 0. -1.
        -12    1    6    6    0    0  0.26141670260E+02  0.72867168339E+02  0.26278197873E+02  0.81753011132E+02  0.00000000000E+00 0.  1.
</event>
<event>
12    1  0.8226261E-002  0.2198986E+03  0.7818608E-02  0.1134220E+00
         21   -1    0    0  503  502  0.00000000000E+00  0.00000000000E+00  0.54014739533E+02  0.54014739533E+02  0.00000000000E+00 0. -1.
         21   -1    0    0  501  503 -0.00000000000E+00 -0.00000000000E+00 -0.89958450089E+03  0.89958450089E+03  0.00000000000E+00 0. -1.
          6    2    1    2  501    0  0.11650567398E+03 -0.67608835272E+02 -0.47181743917E+03  0.51995630088E+03  0.17204165844E+03 0.  0.
         24    2    3    3    0    0  0.63265486278E+02  0.29008478844E+02 -0.26611932506E+03  0.28649703865E+03  0.80106456563E+02 0.  0.
         -6    2    1    2    0  502 -0.11650567398E+03  0.67608835272E+02 -0.37375232219E+03  0.43364293955E+03  0.17381275558E+03 0.  0.
        -24    2    5    5    0    0 -0.11182749034E+03  0.38340185673E+02 -0.37717162594E+03  0.40343828941E+03  0.80800126938E+02 0.  0.
          5    1    3    3  501    0  0.53240187703E+02 -0.96617314116E+02 -0.20569811411E+03  0.23345926223E+03  0.47000000000E+01 0. -1.
        -11    1    4    4    0    0 -0.24575813755E+01  0.38419688981E+02 -0.11943870691E+03  0.12548990763E+03  0.00000000000E+00 0.  1.
         12    1    4    4    0    0  0.65723067654E+02 -0.94112101376E+01 -0.14668061815E+03  0.16100713102E+03  0.00000000000E+00 0. -1.
         -5    1    5    5    0  502 -0.46781836373E+01  0.29268649599E+02  0.34193037575E+01  0.30204650133E+02  0.47000000000E+01 0.  1.
         13    1    6    6    0    0 -0.41310909483E+02  0.36953300050E+02 -0.75676817813E+02  0.93803616035E+02  0.00000000000E+00 0. -1.
        -14    1    6    6    0    0 -0.70516580861E+02  0.13868856227E+01 -0.30149480813E+03  0.30963467338E+03  0.00000000000E+00 0.  1.
</event>
<event>
12    1  0.8226261E-002  0.1915356E+03  0.7818608E-02  0.1157450E+00
         21   -1    0    0  501  502  0.00000000000E+00  0.00000000000E+00  0.24994833875E+03  0.24994833875E+03  0.00000000000E+00 0.  1.
         21   -1    0    0  502  503 -0.00000000000E+00 -0.00000000000E+00 -0.14924177568E+03  0.14924177568E+03  0.00000000000E+00 0.  1.
         -6    2    1    2    0  503  0.12326711183E+02  0.82172355829E+02  0.19061828413E+02  0.19248181448E+03  0.17257361250E+03 0.  0.
        -24    2    3    3    0    0  0.33322431653E+02 -0.11234661688E+02  0.30802973638E+02  0.95912483472E+02  0.83748308797E+02 0.  0.
          6    2    1    2  501    0 -0.12326711183E+02 -0.82172355829E+02  0.81644734655E+02  0.20670829996E+03  0.17075776616E+03 0.  0.
         24    2    5    5    0    0  0.30191187736E+02 -0.11717168534E+01 -0.23613250657E+00  0.83844791748E+02  0.78211332986E+02 0.  0.
          5    1    5    5  501    0 -0.42517898919E+02 -0.81000638976E+02  0.81880867162E+02  0.12286350821E+03  0.47000000000E+01 0. -1.
        -11    1    6    6    0    0  0.52134442869E+02  0.52368472291E+01  0.17141744777E+02  0.55129521276E+02  0.00000000000E+00 0.  1.
         12    1    6    6    0    0 -0.21943255133E+02 -0.64085640825E+01 -0.17377877284E+02  0.28715270472E+02  0.00000000000E+00 0. -1.
         -5    1    3    3    0  503 -0.20995720470E+02  0.93407017517E+02 -0.11741145225E+02  0.96569331005E+02  0.47000000000E+01 0.  1.
         13    1    4    4    0    0 -0.16059405706E+02  0.12537667026E+02  0.35473373586E+02  0.40907919033E+02  0.00000000000E+00 0. -1.
        -14    1    4    4    0    0  0.49381837359E+02 -0.23772328714E+02 -0.46703999474E+01  0.55004564439E+02  0.00000000000E+00 0.  1.
</event>
<event>
12    1  0.8226261E-002  0.1995648E+03  0.7818608E-02  0.1150779E+00
         21   -1    0    0  503  502  0.00000000000E+00  0.00000000000E+00  0.66311028044E+02  0.66311028044E+02  0.00000000000E+00 0.  1.
         21   -1    0    0  501  503 -0.00000000000E+00 -0.00000000000E+00 -0.60407664257E+03  0.60407664257E+03  0.00000000000E+00 0. -1.
          6    2    1    2  501    0  0.97129182379E+02  0.92380899666E+01 -0.31581829157E+03  0.37191369169E+03  0.17046753474E+03 0.  0.
         24    2    3    3    0    0  0.93998062819E+02 -0.38806361370E+02 -0.15112650824E+03  0.20026420375E+03  0.83216346432E+02 0.  0.
         -6    2    1    2    0  502 -0.97129182379E+02 -0.92380899666E+01 -0.22194732295E+03  0.29847397892E+03  0.17408814306E+03 0.  0.
        -24    2    5    5    0    0 -0.92417382017E+02 -0.65374336963E+02 -0.18596831321E+03  0.23146608065E+03  0.78597433413E+02 0.  0.
          5    1    3    3  501    0  0.31311195600E+01  0.48044451336E+02 -0.16469178333E+03  0.17164948794E+03  0.47000000000E+01 0. -1.
        -13    1    4    4    0    0  0.55470611407E+02  0.21589798472E+02 -0.62589253484E+02  0.86374317824E+02  0.00000000000E+00 0.  1.
         14    1    4    4    0    0  0.38527451412E+02 -0.60396159842E+02 -0.88537254758E+02  0.11388988593E+03  0.00000000000E+00 0. -1.
         -5    1    5    5    0  502 -0.47118003619E+01  0.56136246996E+02 -0.35979009744E+02  0.67007898278E+02  0.47000000000E+01 0.  1.
         13    1    6    6    0    0 -0.36393586401E+02 -0.50389467715E+02 -0.15209244384E+03  0.16430369157E+03  0.00000000000E+00 0. -1.
        -14    1    6    6    0    0 -0.56023795616E+02 -0.14984869248E+02 -0.33875869365E+02  0.67162389080E+02  0.00000000000E+00 0.  1.
</event>
<event>
12    1  0.8226261E-002  0.1861468E+03  0.7818608E-02  0.1162251E+00
         21   -1    0    0  503  502  0.00000000000E+00  0.00000000000E+00  0.69213069567E+03  0.69213069567E+03  0.00000000000E+00 0. -1.
         21   -1    0    0  501  503 -0.00000000000E+00 -0.00000000000E+00 -0.58677769728E+02  0.58677769728E+02  0.00000000000E+00 0. -1.
          6    2    1    2  501    0  0.17413325591E+02 -0.64554922083E+02  0.16949889791E+03  0.25090451588E+03  0.17248952960E+03 0.  0.
         24    2    3    3    0    0  0.41282556668E+02 -0.10346990271E+03  0.11477298885E+03  0.17948231323E+03  0.81429672362E+02 0.  0.
         -6    2    1    2    0  502 -0.17413325591E+02  0.64554922083E+02  0.46395402804E+03  0.49990394952E+03  0.17372408222E+03 0.  0.
        -24    2    5    5    0    0 -0.13559086025E+02  0.11023237737E+03  0.31134775551E+03  0.34049237686E+03  0.81624800172E+02 0.  0.
          5    1    3    3  501    0 -0.23869231077E+02  0.38914980623E+02  0.54725909060E+02  0.71422202651E+02  0.47000000000E+01 0. -1.
        -13    1    4    4    0    0  0.18324200878E+02  0.46331780842E+01  0.44941660096E+02  0.48754440712E+02  0.00000000000E+00 0.  1.
         14    1    4    4    0    0  0.22958355790E+02 -0.10810308079E+03  0.69831328751E+02  0.13072787251E+03  0.00000000000E+00 0. -1.
         -5    1    5    5    0  502 -0.38542395654E+01 -0.45677455291E+02  0.15260627253E+03  0.15941157267E+03  0.47000000000E+01 0.  1.
         13    1    6    6    0    0 -0.25787161546E+02  0.54948858027E+02  0.24891633182E+03  0.25621025535E+03  0.00000000000E+00 0. -1.
        -14    1    6    6    0    0  0.12228075520E+02  0.55283519346E+02  0.62431423685E+02  0.84282121506E+02  0.00000000000E+00 0.  1.
</event>
<event>
12    1  0.8226261E-002  0.1814129E+03  0.7818608E-02  0.1167005E+00
         21   -1    0    0  501  502  0.00000000000E+00  0.00000000000E+00  0.17541618098E+04  0.17541618098E+04  0.00000000000E+00 0.  1.
         21   -1    0    0  502  503 -0.00000000000E+00 -0.00000000000E+00 -0.18846122629E+02  0.18846122629E+02  0.00000000000E+00 0.  1.
         -6    2    1    2    0  503  0.58885161882E+02 -0.23650351342E+02  0.75676492997E+03  0.77820549367E+03  0.16995243375E+03 0.  0.
        -24    2    3    3    0    0 -0.14855222017E+02 -0.14530922114E+02  0.61626917296E+03  0.61920248758E+03  0.56499573186E+02 0.  0.
          6    2    1    2  501    0 -0.58885161882E+02  0.23650351342E+02  0.97855075718E+03  0.99480243873E+03  0.16746195488E+03 0.  0.
         24    2    5    5    0    0 -0.29424279748E+02 -0.29621980889E+02  0.30416550987E+03  0.31765885223E+03  0.81530601712E+02 0.  0.
          5    1    5    5  501    0 -0.29460882134E+02  0.53272332230E+02  0.67438524730E+03  0.67714358650E+03  0.47000000000E+01 0. -1.
        -13    1    6    6    0    0 -0.49599535101E+02  0.56148137438E+01  0.19154769486E+03  0.19794483934E+03  0.00000000000E+00 0.  1.
         14    1    6    6    0    0  0.20175255353E+02 -0.35236794632E+02  0.11261781502E+03  0.11971401290E+03  0.00000000000E+00 0. -1.
         -5    1    3    3    0  503  0.73740383899E+02 -0.91194292272E+01  0.14049575701E+03  0.15900300609E+03  0.47000000000E+01 0.  1.
         11    1    4    4    0    0  0.13596873546E+02  0.14016482591E+02  0.23448410324E+03  0.23529583810E+03  0.00000000000E+00 0. -1.
        -12    1    4    4    0    0 -0.28452095563E+02 -0.28547404705E+02  0.38178506971E+03  0.38390664948E+03  0.00000000000E+00 0.  1.
</event>
<event>
12    1  0.8226261E-002  0.1865272E+03  0.7818608E-02  0.1161656E+00
         21   -1    0    0  503  502  0.00000000000E+00  0.00000000000E+00  0.27433684996E+03  0.27433684996E+03  0.00000000000E+00 0.  1.
         21   -1    0    0  501  503 -0.00000000000E+00 -0.00000000000E+00 -0.14523958057E+03  0.14523958057E+03  0.00000000000E+00 0.  1.
          6    2    1    2  501    0 -0.34139105751E+02  0.63420201546E+02 -0.10286359832E+02  0.18681058410E+03  0.17206040982E+03 0.  0.
         24    2    3    3    0    0 -0.47406169653E+02 -0.17070805686E+02  0.26752804420E+02  0.97095440909E+02  0.78568790070E+02 0.  0.
         -6    2    1    2    0  502  0.34139105751E+02 -0.63420201546E+02  0.13938362921E+03  0.23276584643E+03  0.17194342867E+03 0.  0.
        -24    2    5    5    0    0 -0.17687986488E+02 -0.17358531857E+01  0.48408820804E+02  0.11115370851E+03  0.98467532375E+02 0.  0.
          5    1    3    3  501    0  0.13267063902E+02  0.80491007232E+02 -0.37039164253E+02  0.89715143194E+02  0.47000000000E+01 0. -1.
        -13    1    4    4    0    0 -0.34146929095E+02  0.29316048346E+02  0.15012878064E+02  0.47442912695E+02  0.00000000000E+00 0.  1.
         14    1    4    4    0    0 -0.13259240558E+02 -0.46386854032E+02  0.11739926357E+02  0.49652528214E+02  0.00000000000E+00 0. -1.
         -5    1    5    5    0  502  0.51827092239E+02 -0.61684348360E+02  0.90974808411E+02  0.12161213791E+03  0.47000000000E+01 0.  1.
         11    1    6    6    0    0 -0.51968934431E+02 -0.25901580469E+02  0.26365121010E+02  0.63771322886E+02  0.00000000000E+00 0. -1.
        -12    1    6    6    0    0  0.34280947943E+02  0.24165727284E+02  0.22043699793E+02  0.47382385626E+02  0.00000000000E+00 0.  1.
</event>
<event>
12    1  0.8226261E-002  0.3097923E+03  0.7818608E-02  0.1080465E+00
         21   -1    0    0  501  502  0.00000000000E+00  0.00000000000E+00  0.20033278134E+04  0.20033278134E+04  0.00000000000E+00 0. -1.
         21   -1    0    0  502  503 -0.00000000000E+00 -0.00000000000E+00 -0.49694224951E+02  0.49694224951E+02  0.00000000000E+00 0.  1.
         -6    2    1    2    0  503  0.10149784099E+03  0.23715389006E+03  0.11726616055E+04  0.12128503211E+04  0.17125092993E+03 0.  0.
        -24    2    3    3    0    0  0.13206662496E+03  0.22977352559E+03  0.10681974022E+04  0.11036542584E+04  0.82277369335E+02 0.  0.
          6    2    1    2  501    0 -0.10149784099E+03 -0.23715389006E+03  0.78097198291E+03  0.84017171724E+03  0.17154444634E+03 0.  0.
         24    2    5    5    0    0 -0.54413723673E+02 -0.11220287163E+03  0.22507158953E+03  0.26844012946E+03  0.76501927846E+02 0.  0.
          5    1    5    5  501    0 -0.47084117319E+02 -0.12495101843E+03  0.55590039338E+03  0.57173158779E+03  0.47000000000E+01 0. -1.
        -11    1    6    6    0    0 -0.54268278870E+02 -0.11006329417E+03  0.23130862224E+03  0.26184471264E+03  0.00000000000E+00 0.  1.
         12    1    6    6    0    0 -0.14544480316E+00 -0.21395774592E+01 -0.62370327135E+01  0.65954168150E+01  0.00000000000E+00 0. -1.
         -5    1    3    3    0  503 -0.30568783972E+02  0.73803644779E+01  0.10446420326E+03  0.10919606264E+03  0.47000000000E+01 0.  1.
         11    1    4    4    0    0  0.80570856761E+02  0.11645573008E+03  0.40934854231E+03  0.43315104654E+03  0.00000000000E+00 0. -1.
        -12    1    4    4    0    0  0.51495768203E+02  0.11331779551E+03  0.65884885993E+03  0.67050321189E+03  0.00000000000E+00 0.  1.
</event>
<event>
12    1  0.8226261E-002  0.2235360E+03  0.7818608E-02  0.1131274E+00
         21   -1    0    0  501  502  0.00000000000E+00  0.00000000000E+00  0.36432780331E+03  0.36432780331E+03  0.00000000000E+00 0. -1.
         21   -1    0    0  502  503 -0.00000000000E+00 -0.00000000000E+00 -0.17361827425E+03  0.17361827425E+03  0.00000000000E+00 0.  1.
         -6    2    1    2    0  503 -0.45398678179E+02 -0.13552452800E+03 -0.27915081500E+02  0.22527224942E+03  0.17187320010E+03 0.  0.
        -24    2    3    3    0    0 -0.44819810179E+02 -0.56899246851E+02  0.46012674597E+02  0.11724598851E+03  0.79894404825E+02 0.  0.
          6    2    1    2  501    0  0.45398678179E+02  0.13552452800E+03  0.21862461056E+03  0.31267382814E+03  0.17187281574E+03 0.  0.
         24    2    5    5    0    0  0.73746570301E+02  0.78018449960E+02  0.71839037707E+02  0.15242824662E+03  0.80920256199E+02 0.  0.
          5    1    5    5  501    0 -0.28347892123E+02  0.57506078042E+02  0.14678557286E+03  0.16024558152E+03  0.47000000000E+01 0. -1.
        -11    1    6    6    0    0  0.66708023021E+00  0.39963226242E+02 -0.43529307131E+01  0.40205129691E+02  0.00000000000E+00 0.  1.
         12    1    6    6    0    0  0.73079490071E+02  0.38055223718E+02  0.76191968420E+02  0.11222311693E+03  0.00000000000E+00 0. -1.
         -5    1    3    3    0  503 -0.57886800013E+00 -0.78625281151E+02 -0.73927756098E+02  0.10802626091E+03  0.47000000000E+01 0.  1.
         11    1    4    4    0    0 -0.46879838827E+02 -0.43404429213E+02 -0.53391926924E+01  0.64110613336E+02  0.00000000000E+00 0. -1.
        -12    1    4    4    0    0  0.20600286482E+01 -0.13494817638E+02  0.51351867290E+02  0.53135375177E+02  0.00000000000E+00 0.  1.
</event>
<event>
12    1  0.8226261E-002  0.1898946E+03  0.7818608E-02  0.1159417E+00
         21   -1    0    0  503  502  0.00000000000E+00  0.00000000000E+00  0.31241781704E+02  0.31241781704E+02  0.00000000000E+00 0.  1.
         21   -1    0    0  501  503 -0.00000000000E+00 -0.00000000000E+00 -0.12342199863E+04  0.12342199863E+04  0.00000000000E+00 0.  1.
          6    2    1    2  501    0 -0.71460215016E+02  0.35375565938E+02 -0.42440495177E+03  0.46495110126E+03  0.17234259625E+03 0.  0.
         24    2    3    3    0    0 -0.68426814815E+02  0.78098452187E+02 -0.38429855832E+03  0.40608634677E+03  0.80244263855E+02 0.  0.
         -6    2    1    2    0  502  0.71460215016E+02 -0.35375565938E+02 -0.77857325279E+03  0.80051066671E+03  0.16817557658E+03 0.  0.
        -24    2    5    5    0    0 -0.28562911931E+02 -0.71742893186E+01 -0.39702942712E+03  0.40503915214E+03  0.74545545828E+02 0.  0.
          5    1    3    3  501    0 -0.30334002008E+01 -0.42722886249E+02 -0.40106393449E+02  0.58864754495E+02  0.47000000000E+01 0. -1.
        -13    1    4    4    0    0 -0.10479094631E+02  0.40446120921E+02 -0.26454182985E+03  0.26782098473E+03  0.00000000000E+00 0.  1.
         14    1    4    4    0    0 -0.57947720185E+02  0.37652331266E+02 -0.11975672847E+03  0.13826536203E+03  0.00000000000E+00 0. -1.
         -5    1    5    5    0  502  0.10002312695E+03 -0.28201276619E+02 -0.38154382567E+03  0.39547151456E+03  0.47000000000E+01 0.  1.
         13    1    6    6    0    0 -0.23493518684E+02 -0.57909381554E+01 -0.32735923875E+02  0.40707752294E+02  0.00000000000E+00 0. -1.
        -14    1    6    6    0    0 -0.50693932470E+01 -0.13833511632E+01 -0.36429350324E+03  0.36433139985E+03  0.00000000000E+00 0.  1.
</event>
<event>
12    1  0.8226261E-002  0.1876914E+03  0.7818608E-02  0.1161296E+00
         21   -1    0    0  503  502  0.00000000000E+00  0.00000000000E+00  0.50515690440E+02  0.50515690440E+02  0.00000000000E+00 0. -1.
         21   -1    0    0  501  503 -0.00000000000E+00 -0.00000000000E+00 -0.75900193058E+03  0.75900193058E+03  0.00000000000E+00 0. -1.
          6    2    1    2  501    0 -0.56603648422E+02  0.47303976791E+02 -0.47737779315E+03  0.51179430660E+03  0.16912189578E+03 0.  0.
         24    2    3    3    0    0  0.39918165546E+01 -0.26447474153E+02 -0.28013822429E+03  0.29262171612E+03  0.80216211240E+02 0.  0.
         -6    2    1    2    0  502  0.56603648422E+02 -0.47303976791E+02 -0.23110844698E+03  0.29772331442E+03  0.17258742262E+03 0.  0.
        -24    2    5    5    0    0  0.53962147564E+02  0.14651738239E+02 -0.20687859756E+03  0.23098004693E+03  0.86176801691E+02 0.  0.
          5    1    3    3  501    0 -0.60595464977E+02  0.73751450945E+02 -0.19723956886E+03  0.21917259048E+03  0.47000000000E+01 0. -1.
        -11    1    4    4    0    0 -0.25910753317E+02 -0.78753739680E+01 -0.22866615701E+03  0.23026419612E+03  0.00000000000E+00 0.  1.
         12    1    4    4    0    0  0.29902569872E+02 -0.18572100185E+02 -0.51472067288E+02  0.62357520004E+02  0.00000000000E+00 0. -1.
         -5    1    5    5    0  502  0.26415008584E+01 -0.61955715030E+02 -0.24229849421E+02  0.66743267485E+02  0.47000000000E+01 0.  1.
         13    1    6    6    0    0  0.59325518534E+02 -0.39289977885E+01 -0.20263929974E+03  0.21118153321E+03  0.00000000000E+00 0. -1.
        -14    1    6    6    0    0 -0.53633709703E+01  0.18580736027E+02 -0.42392978246E+01  0.19798513720E+02  0.00000000000E+00 0.  1.
</event>
<event>
12    1  0.8226261E-002  0.2324407E+03  0.7818608E-02  0.1125109E+00
         21   -1    0    0  501  502  0.00000000000E+00  0.00000000000E+00  0.12387258317E+03  0.12387258317E+03  0.00000000000E+00 0. -1.
         21   -1    0    0  502  503 -0.00000000000E+00 -0.00000000000E+00 -0.68232450814E+03  0.68232450814E+03  0.00000000000E+00 0. -1.
         -6    2    1    2    0  503 -0.14079191553E+03 -0.65501765240E+02 -0.52265407113E+03  0.57201045615E+03  0.17296195869E+03 0.  0.
        -24    2    3    3    0    0 -0.11697856096E+03 -0.93389192428E+01 -0.21383459541E+03  0.25718844341E+03  0.81544233958E+02 0.  0.
          6    2    1    2  501    0  0.14079191553E+03  0.65501765240E+02 -0.35797853844E+02  0.23418663516E+03  0.17160725223E+03 0.  0.
         24    2    5    5    0    0  0.68679656300E+02  0.29210302666E+02 -0.86689293026E+02  0.13863938627E+03  0.78330766176E+02 0.  0.
          5    1    5    5  501    0  0.72112259234E+02  0.36291462573E+02  0.50891439181E+02  0.95547248885E+02  0.47000000000E+01 0. -1.
        -11    1    6    6    0    0 -0.96396840601E+01 -0.15180600246E+02 -0.17564817896E+02  0.25137560747E+02  0.00000000000E+00 0.  1.
         12    1    6    6    0    0  0.78319340360E+02  0.44390902913E+02 -0.69124475130E+02  0.11350182553E+03  0.00000000000E+00 0. -1.
         -5    1    3    3    0  503 -0.23813354569E+02 -0.56162845997E+02 -0.30881947572E+03  0.31482201274E+03  0.47000000000E+01 0.  1.
         11    1    4    4    0    0 -0.49569611277E+02  0.72807663233E+01 -0.16465095902E+03  0.17210489309E+03  0.00000000000E+00 0. -1.
        -12    1    4    4    0    0 -0.67408949688E+02 -0.16619685566E+02 -0.49183636395E+02  0.85083550322E+02  0.00000000000E+00 0.  1.
</event>
<event>
12    1  0.8226261E-002  0.2297024E+03  0.7818608E-02  0.1128114E+00
         21   -1    0    0  501  502  0.00000000000E+00  0.00000000000E+00  0.47561175271E+03  0.47561175271E+03  0.00000000000E+00 0. -1.
         21   -1    0    0  502  503 -0.00000000000E+00 -0.00000000000E+00 -0.13410018915E+03  0.13410018915E+03  0.00000000000E+00 0.  1.
         -6    2    1    2    0  503 -0.58852949475E+02 -0.14032509271E+03  0.33003070954E+02  0.22508136489E+03  0.16253497107E+03 0.  0.
        -24    2    3    3    0    0 -0.99998175721E+02 -0.12664688093E+03  0.23979823559E+02  0.18054450247E+03  0.77344798396E+02 0.  0.
          6    2    1    2  501    0  0.58852949475E+02  0.14032509271E+03  0.30850849261E+03  0.38463057697E+03  0.17207088487E+03 0.  0.
         24    2    5    5    0    0 -0.33089433708E+02  0.56621230550E+02  0.12460469448E+03  0.16258905983E+03  0.81289594157E+02 0.  0.
          5    1    5    5  501    0  0.91942383183E+02  0.83703862165E+02  0.18390379813E+03  0.22204151714E+03  0.47000000000E+01 0. -1.
        -13    1    6    6    0    0 -0.19442797375E+02  0.43080112312E+02  0.12556849544E+02  0.48903915150E+02  0.00000000000E+00 0.  1.
         14    1    6    6    0    0 -0.13646636334E+02  0.13541118238E+02  0.11204784494E+03  0.11368514468E+03  0.00000000000E+00 0. -1.
         -5    1    3    3    0  503  0.41145226246E+02 -0.13678211788E+02  0.90232473948E+01  0.44536862418E+02  0.47000000000E+01 0.  1.
         11    1    4    4    0    0 -0.36036382969E+02 -0.86810293006E+02 -0.15838562334E+02  0.95317930769E+02  0.00000000000E+00 0. -1.
        -12    1    4    4    0    0 -0.63961792752E+02 -0.39836587921E+02  0.39818385893E+02  0.85226571703E+02  0.00000000000E+00 0.  1.
</event>
<event>
12    1  0.8226261E-002  0.2421999E+03  0.7818608E-02  0.1118616E+00
         21   -1    0    0  501  502  0.00000000000E+00  0.00000000000E+00  0.16542998101E+03  0.16542998101E+03  0.00000000000E+00 0.  1.
         21   -1    0    0  502  503 -0.00000000000E+00 -0.00000000000E+00 -0.56291263423E+03  0.56291263423E+03  0.00000000000E+00 0.  1.
         -6    2    1    2    0  503  0.75666494166E+02  0.15239741262E+03 -0.42115498560E+03  0.48498857944E+03  0.16997650009E+03 0.  0.
        -24    2    3    3    0    0  0.28915496246E+02  0.17028134328E+03 -0.33909451219E+03  0.38875188125E+03  0.79442401698E+02 0.  0.
          6    2    1    2  501    0 -0.75666494166E+02 -0.15239741262E+03  0.23672332376E+02  0.24335403579E+03  0.17236710157E+03 0.  0.
         24    2    5    5    0    0 -0.47947496331E+02 -0.17252280345E+03 -0.87352465019E+01  0.19596505642E+03  0.79138604309E+02 0.  0.
          5    1    5    5  501    0 -0.27718997834E+02  0.20125390832E+02  0.32407578878E+02  0.47388979371E+02  0.47000000000E+01 0. -1.
        -13    1    6    6    0    0 -0.46203458779E+02 -0.50727069372E+02  0.18675104574E+02  0.71110862048E+02  0.00000000000E+00 0.  1.
         14    1    6    6    0    0 -0.17440375518E+01 -0.12179573408E+03 -0.27410351076E+02  0.12485419437E+03  0.00000000000E+00 0. -1.
         -5    1    3    3    0  503  0.46750997919E+02 -0.17883930664E+02 -0.82060473409E+02  0.96236698190E+02  0.47000000000E+01 0.  1.
         13    1    4    4    0    0  0.42719449510E+02  0.16895464468E+03 -0.32610939968E+03  0.36975392342E+03  0.00000000000E+00 0. -1.
        -14    1    4    4    0    0 -0.13803953264E+02  0.13266986046E+01 -0.12985112504E+02  0.18997957829E+02  0.00000000000E+00 0.  1.
</event>
<event>
12    1  0.8226261E-002  0.1757490E+03  0.7818608E-02  0.1173020E+00
         21   -1    0    0  503  502  0.00000000000E+00  0.00000000000E+00  0.18704078646E+03  0.18704078646E+03  0.00000000000E+00 0. -1.
         21   -1    0    0  501  503 -0.00000000000E+00 -0.00000000000E+00 -0.31867021904E+03  0.31867021904E+03  0.00000000000E+00 0. -1.
          6    2    1    2  501    0  0.11636149988E+02  0.10857657232E+02 -0.24389148206E+03  0.30061729866E+03  0.17502690229E+03 0.  0.
         24    2    3    3    0    0  0.33654765293E+02 -0.49804389288E+02 -0.88485151892E+02  0.13227859021E+03  0.77813128085E+02 0.  0.
         -6    2    1    2    0  502 -0.11636149988E+02 -0.10857657232E+02  0.11226204947E+03  0.20509370683E+03  0.17090164459E+03 0.  0.
        -24    2    5    5    0    0 -0.59393294323E+02 -0.49213143119E+02  0.69662619957E+02  0.13033616857E+03  0.78645656913E+02 0.  0.
          5    1    3    3  501    0 -0.22018615305E+02  0.60662046521E+02 -0.15540633017E+03  0.16833870846E+03  0.47000000000E+01 0. -1.
        -13    1    4    4    0    0  0.49354754543E+02 -0.83898861920E+01 -0.28156785339E+02  0.57437675327E+02  0.00000000000E+00 0.  1.
         14    1    4    4    0    0 -0.15699989250E+02 -0.41414503096E+02 -0.60328366553E+02  0.74840914880E+02  0.00000000000E+00 0. -1.
         -5    1    5    5    0  502  0.47757144334E+02  0.38355485886E+02  0.42599429518E+02  0.74757538268E+02  0.47000000000E+01 0.  1.
         11    1    6    6    0    0  0.53092227677E+00 -0.22890657787E+02  0.59943755406E+02  0.64167888423E+02  0.00000000000E+00 0. -1.
        -12    1    6    6    0    0 -0.59924216600E+02 -0.26322485331E+02  0.97188645504E+01  0.66168280144E+02  0.00000000000E+00 0.  1.
</event>
<event>
12    1  0.8226261E-002  0.2218090E+03  0.7818608E-02  0.1132650E+00
         21   -1    0    0  503  502  0.00000000000E+00  0.00000000000E+00  0.14562161345E+03  0.14562161345E+03  0.00000000000E+00 0. -1.
         21   -1    0    0  501  503 -0.00000000000E+00 -0.00000000000E+00 -0.38263175715E+03  0.38263175715E+03  0.00000000000E+00 0.  1.
          6    2    1    2  501    0 -0.12970664726E+03  0.54314741940E+02 -0.27114872055E+02  0.22287614937E+03  0.17077662643E+03 0.  0.
         24    2    3    3    0    0 -0.10194461947E+03  0.75688878887E+02 -0.69042785322E+02  0.16803434206E+03  0.85715354999E+02 0.  0.
         -6    2    1    2    0  502  0.12970664726E+03 -0.54314741940E+02 -0.20989527165E+03  0.30537722123E+03  0.17153809096E+03 0.  0.
        -24    2    5    5    0    0  0.25246047662E+02 -0.77328138653E+02 -0.11651240079E+03  0.16330652099E+03  0.80479042679E+02 0.  0.
          5    1    3    3  501    0 -0.27762027794E+02 -0.21374136947E+02  0.41927913267E+02  0.54841807304E+02  0.47000000000E+01 0. -1.
        -11    1    4    4    0    0 -0.63612369879E+02  0.49483674507E+02  0.48775543781E+01  0.80740065525E+02  0.00000000000E+00 0.  1.
         12    1    4    4    0    0 -0.38332249587E+02  0.26205204380E+02 -0.73920339700E+02  0.87294276538E+02  0.00000000000E+00 0. -1.
         -5    1    5    5    0  502  0.10446059960E+03  0.23013396713E+02 -0.93382870868E+02  0.14207070024E+03  0.47000000000E+01 0.  1.
         13    1    6    6    0    0  0.49338358751E+02 -0.34519208168E+02 -0.39681655747E+02  0.72114375679E+02  0.00000000000E+00 0. -1.
        -14    1    6    6    0    0 -0.24092311089E+02 -0.42808930485E+02 -0.76830745039E+02  0.91192145309E+02  0.00000000000E+00 0.  1.
</event>
<event>
12    1  0.8226261E-002  0.1789839E+03  0.7818608E-02  0.1168911E+00
         21   -1    0    0  503  502  0.00000000000E+00  0.00000000000E+00  0.48080296315E+03  0.48080296315E+03  0.00000000000E+00 0.  1.
         21   -1    0    0  501  503 -0.00000000000E+00 -0.00000000000E+00 -0.13764548170E+03  0.13764548170E+03  0.00000000000E+00 0.  1.
          6    2    1    2  501    0 -0.90358457401E+01 -0.47616457421E+02 -0.50935568937E+02  0.18561527572E+03  0.17178365718E+03 0.  0.
         24    2    3    3    0    0 -0.39988658195E+02  0.16759906211E+02  0.14173111125E+02  0.88849460410E+02  0.76245408359E+02 0.  0.
         -6    2    1    2    0  502  0.90358457401E+01  0.47616457421E+02  0.39409305039E+03  0.43283316913E+03  0.17229697157E+03 0.  0.
        -24    2    5    5    0    0  0.21613220952E+02  0.15900396183E+02  0.38850448870E+03  0.39794160956E+03  0.81864723560E+02 0.  0.
          5    1    3    3  501    0  0.30952812455E+02 -0.64376363632E+02 -0.65108680062E+02  0.96765815311E+02  0.47000000000E+01 0. -1.
        -13    1    4    4    0    0  0.65757265544E+01  0.83531497876E+01 -0.25163304882E+02  0.27316793436E+02  0.00000000000E+00 0.  1.
         14    1    4    4    0    0 -0.46564384750E+02  0.84067564236E+01  0.39336416006E+02  0.61532666974E+02  0.00000000000E+00 0. -1.
         -5    1    5    5    0  502 -0.12577375212E+02  0.31716061237E+02  0.55885616934E+01  0.34891559573E+02  0.47000000000E+01 0.  1.
         13    1    6    6    0    0  0.15061393161E+02 -0.18681106852E+02  0.33561274232E+02  0.41257586517E+02  0.00000000000E+00 0. -1.
        -14    1    6    6    0    0  0.65518277909E+01  0.34581503036E+02  0.35494321447E+03  0.35668402304E+03  0.00000000000E+00 0.  1.
</event>
<event>
12    1  0.8226261E-002  0.2067519E+03  0.7818608E-02  0.1144461E+00
         21   -1    0    0  503  502  0.00000000000E+00  0.00000000000E+00  0.43110100379E+03  0.43110100379E+03  0.00000000000E+00 0.  1.
         21   -1    0    0  501  503 -0.00000000000E+00 -0.00000000000E+00 -0.15769744353E+03  0.15769744353E+03  0.00000000000E+00 0.  1.
          6    2    1    2  501    0 -0.91587570895E+02  0.69439573223E+02 -0.43437064386E+02  0.21126557691E+03  0.17186107167E+03 0.  0.
         24    2    3    3    0    0 -0.11681092028E+03  0.70396620023E+01 -0.10068032230E+01  0.13156373668E+03  0.60113685769E+02 0.  0.
         -6    2    1    2    0  502  0.91587570895E+02 -0.69439573223E+02  0.31684062464E+03  0.37753287040E+03  0.17009688221E+03 0.  0.
        -24    2    5    5    0    0  0.95111724619E+02  0.89081970493E+00  0.25499022483E+03  0.28369073815E+03  0.80083621501E+02 0.  0.
          5    1    3    3  501    0  0.25223349390E+02  0.62399911221E+02 -0.42430261163E+02  0.79701840237E+02  0.47000000000E+01 0. -1.
        -11    1    4    4    0    0 -0.49024842947E+02  0.31103913384E+02  0.96240299062E+01  0.58851598155E+02  0.00000000000E+00 0.  1.
         12    1    4    4    0    0 -0.67786077338E+02 -0.24064251381E+02 -0.10630833129E+02  0.72712138522E+02  0.00000000000E+00 0. -1.
         -5    1    5    5    0  502 -0.35241537242E+01 -0.70330392928E+02  0.61850399809E+02  0.93842132251E+02  0.47000000000E+01 0.  1.
         11    1    6    6    0    0  0.39670110688E+02 -0.26831283320E+02  0.48758369979E+02  0.68344817577E+02  0.00000000000E+00 0. -1.
        -12    1    6    6    0    0  0.55441613931E+02  0.27722103025E+02  0.20623185486E+03  0.21534592058E+03  0.00000000000E+00 0.  1.
</event>
<event>
12    1  0.8226261E-002  0.1772761E+03  0.7818608E-02  0.1171161E+00
         21   -1    0    0  503  502  0.00000000000E+00  0.00000000000E+00  0.73835992488E+03  0.73835992488E+03  0.00000000000E+00 0.  1.
         21   -1    0    0  501  503 -0.00000000000E+00 -0.00000000000E+00 -0.62396500032E+02  0.62396500032E+02  0.00000000000E+00 0.  1.
          6    2    1    2  501    0  0.10880132023E+02  0.19622394006E+02  0.10668520938E+03  0.20451445511E+03  0.17303471568E+03 0.  0.
         24    2    3    3    0    0 -0.58151235861E+02  0.13150509685E+02  0.22518070041E+02  0.95365875719E+02  0.70944236103E+02 0.  0.
         -6    2    1    2    0  502 -0.10880132023E+02 -0.19622394006E+02  0.56927821547E+03  0.59624196980E+03  0.17585046013E+03 0.  0.
        -24    2    5    5    0    0 -0.11269469428E+00 -0.74445904296E+02  0.24681164919E+03  0.26893732371E+03  0.76609976777E+02 0.  0.
          5    1    3    3  501    0  0.69031367883E+02  0.64718843208E+01  0.84167139341E+02  0.10914857939E+03  0.47000000000E+01 0. -1.
        -11    1    4    4    0    0 -0.36807908481E+01 -0.22380093991E+02 -0.72932102079E+01  0.23824519795E+02  0.00000000000E+00 0.  1.
         12    1    4    4    0    0 -0.54470445012E+02  0.35530603676E+02  0.29811280249E+02  0.71541355924E+02  0.00000000000E+00 0. -1.
         -5    1    5    5    0  502 -0.10767437329E+02  0.54823510290E+02  0.32246656628E+03  0.32730464609E+03  0.47000000000E+01 0.  1.
         11    1    6    6    0    0  0.20595896651E+02 -0.13714693800E+02  0.16224570113E+02  0.29589194992E+02  0.00000000000E+00 0. -1.
        -12    1    6    6    0    0 -0.20708591345E+02 -0.60731210495E+02  0.23058707907E+03  0.23934812872E+03  0.00000000000E+00 0.  1.
</event>
<event>
12    1  0.8226261E-002  0.2136936E+03  0.7818608E-02  0.1138998E+00
         21   -1    0    0  503  502  0.00000000000E+00  0.00000000000E+00  0.43689746851E+02  0.43689746851E+02  0.00000000000E+00 0. -1.
         21   -1    0    0  501  503 -0.00000000000E+00 -0.00000000000E+00 -0.10414033030E+04  0.10414033030E+04  0.00000000000E+00 0. -1.
          6    2    1    2  501    0  0.76314393890E+02  0.97343156265E+02 -0.46192449413E+03  0.50826130482E+03  0.17220841708E+03 0.  0.
         24    2    3    3    0    0  0.34982033336E+02  0.12607187075E+02 -0.35290807497E+03  0.36405583283E+03  0.81301022269E+02 0.  0.
         -6    2    1    2    0  502 -0.76314393890E+02 -0.97343156265E+02 -0.53578906203E+03  0.57683174505E+03  0.17425661053E+03 0.  0.
        -24    2    5    5    0    0  0.30641673673E+01 -0.10761140505E+03 -0.32888150262E+03  0.35493262142E+03  0.78895623256E+02 0.  0.
          5    1    3    3  501    0  0.41332360554E+02  0.84735969190E+02 -0.10901641917E+03  0.14420547199E+03  0.47000000000E+01 0. -1.
        -13    1    4    4    0    0 -0.17598392721E+02 -0.17016556082E+02 -0.56647329205E+02  0.61710505697E+02  0.00000000000E+00 0.  1.
         14    1    4    4    0    0  0.52580426058E+02  0.29623743157E+02 -0.29626074576E+03  0.30234532714E+03  0.00000000000E+00 0. -1.
         -5    1    5    5    0  502 -0.79378561257E+02  0.10268248787E+02 -0.20690755942E+03  0.22189912362E+03  0.47000000000E+01 0.  1.
         11    1    6    6    0    0 -0.13340379958E+02 -0.41805130738E+02 -0.44198792451E+02  0.62282966753E+02  0.00000000000E+00 0. -1.
        -12    1    6    6    0    0  0.16404547325E+02 -0.65806274313E+02 -0.28468271016E+03  0.29264965467E+03  0.00000000000E+00 0.  1.
</event>
<event>
12    1  0.8226261E-002  0.2037905E+03  0.7818608E-02  0.1146700E+00
         21   -1    0    0  503  502  0.00000000000E+00  0.00000000000E+00  0.24528024910E+03  0.24528024910E+03  0.00000000000E+00 0. -1.
         21   -1    0    0  501  503 -0.00000000000E+00 -0.00000000000E+00 -0.18629545421E+03  0.18629545421E+03  0.00000000000E+00 0. -1.
          6    2    1    2  501    0  0.45096212975E+01 -0.10988983696E+03 -0.36530708047E+02  0.20703878604E+03  0.17156472056E+03 0.  0.
         24    2    3    3    0    0  0.20104039315E+00 -0.83515733479E+01  0.30070959779E+02  0.85439217762E+02  0.79534949017E+02 0.  0.
         -6    2    1    2    0  502 -0.45096212975E+01  0.10988983696E+03  0.95515502941E+02  0.22453691728E+03  0.17087276836E+03 0.  0.
        -24    2    5    5    0    0 -0.89743451800E+01  0.15581340714E+02 -0.93992910564E+01  0.83316415144E+02  0.80808176011E+02 0.  0.
          5    1    3    3  501    0  0.43085809043E+01 -0.10153826361E+03 -0.66601667827E+02  0.12159956827E+03  0.47000000000E+01 0. -1.
        -11    1    4    4    0    0 -0.14370453674E+02  0.18334900661E+02 -0.17392462325E+02  0.29071915430E+02  0.00000000000E+00 0.  1.
         12    1    4    4    0    0  0.14571494067E+02 -0.26686474008E+02  0.47463422104E+02  0.56367302332E+02  0.00000000000E+00 0. -1.
         -5    1    5    5    0  502  0.44647238825E+01  0.94308496248E+02  0.10491479400E+03  0.14122050214E+03  0.47000000000E+01 0.  1.
         11    1    6    6    0    0 -0.11393787226E+01  0.29357645648E+02  0.29302925451E+02  0.41494951282E+02  0.00000000000E+00 0. -1.
        -12    1    6    6    0    0 -0.78349664574E+01 -0.13776304934E+02 -0.38702216507E+02  0.41821463862E+02  0.00000000000E+00 0.  1.
</event>
<event>
12    1  0.8226261E-002  0.1732825E+03  0.7818608E-02  0.1174514E+00
         21   -1    0    0  501  502  0.00000000000E+00  0.00000000000E+00  0.15215076788E+03  0.15215076788E+03  0.00000000000E+00 0.  1.
         21   -1    0    0  502  503 -0.00000000000E+00 -0.00000000000E+00 -0.21125741249E+03  0.21125741249E+03  0.00000000000E+00 0.  1.
         -6    2    1    2    0  503  0.25985803513E+02 -0.46626608910E+01  0.17400973013E+02  0.17415405550E+03  0.17125956556E+03 0.  0.
        -24    2    3    3    0    0 -0.34185148328E+02 -0.46966338229E+02  0.17908181361E+01  0.98815410062E+02  0.79917563421E+02 0.  0.
          6    2    1    2  501    0 -0.25985803513E+02  0.46626608910E+01 -0.76507617624E+02  0.18925412486E+03  0.17107514673E+03 0.  0.
         24    2    5    5    0    0 -0.78544655707E+02 -0.14864032737E+02 -0.68114994680E+02  0.13236606963E+03  0.80566255214E+02 0.  0.
          5    1    5    5  501    0  0.52558852193E+02  0.19526693628E+02 -0.83926229435E+01  0.56888055230E+02  0.47000000000E+01 0. -1.
        -13    1    6    6    0    0 -0.58162872436E+02 -0.19742392601E+02 -0.33822405533E+00  0.61423091677E+02  0.00000000000E+00 0.  1.
         14    1    6    6    0    0 -0.20381783271E+02  0.48783598638E+01 -0.67776770625E+02  0.70942977951E+02  0.00000000000E+00 0. -1.
         -5    1    3    3    0  503  0.60170951841E+02  0.42303677338E+02  0.15610154877E+02  0.75338645442E+02  0.47000000000E+01 0.  1.
         13    1    4    4    0    0 -0.25616855005E+02 -0.64132463365E+02  0.20479382761E+02  0.72031945940E+02  0.00000000000E+00 0. -1.
        -14    1    4    4    0    0 -0.85682933226E+01  0.17166125136E+02 -0.18688564625E+02  0.26783464122E+02  0.00000000000E+00 0.  1.
</event>
<event>
12    1  0.8226261E-002  0.2184829E+03  0.7818608E-02  0.1135569E+00
         21   -1    0    0  501  502  0.00000000000E+00  0.00000000000E+00  0.30544050069E+03  0.30544050069E+03  0.00000000000E+00 0. -1.
         21   -1    0    0  502  503 -0.00000000000E+00 -0.00000000000E+00 -0.21683998481E+03  0.21683998481E+03  0.00000000000E+00 0. -1.
         -6    2    1    2    0  503  0.10966427323E+03  0.69844365441E+02  0.18442889127E+03  0.28370586017E+03  0.17196078317E+03 0.  0.
        -24    2    3    3    0    0  0.81708823025E+02 -0.85792747181E+01  0.48044887339E+02  0.12384823269E+03  0.79247320629E+02 0.  0.
          6    2    1    2  501    0 -0.10966427323E+03 -0.69844365441E+02 -0.95828375397E+02  0.23857462533E+03  0.17558555212E+03 0.  0.
         24    2    5    5    0    0 -0.28626787720E+02  0.21960727324E+02 -0.73832696708E+02  0.11407101496E+03  0.79114871108E+02 0.  0.
          5    1    5    5  501    0 -0.81037485508E+02 -0.91805092765E+02 -0.21995678689E+02  0.12450361037E+03  0.47000000000E+01 0. -1.
        -13    1    6    6    0    0  0.24705501604E+02  0.15772754357E+02 -0.10718237838E+02  0.31209328924E+02  0.00000000000E+00 0.  1.
         14    1    6    6    0    0 -0.53332289324E+02  0.61879729668E+01 -0.63114458870E+02  0.82861686034E+02  0.00000000000E+00 0. -1.
         -5    1    3    3    0  503  0.27955450203E+02  0.78423640159E+02  0.13638400393E+03  0.15985762747E+03  0.47000000000E+01 0.  1.
         13    1    4    4    0    0  0.99388825424E+01 -0.35605547453E+02  0.21087096773E+02  0.42558219487E+02  0.00000000000E+00 0. -1.
        -14    1    4    4    0    0  0.71769940483E+02  0.27026272735E+02  0.26957790566E+02  0.81290013206E+02  0.00000000000E+00 0.  1.
</event>
<event>
12    1  0.8226261E-002  0.2405925E+03  0.7818608E-02  0.1119683E+00
         21   -1    0    0  503  502  0.00000000000E+00  0.00000000000E+00  0.14334225464E+04  0.14334225464E+04  0.00000000000E+00 0.  1.
         21   -1    0    0  501  503 -0.00000000000E+00 -0.00000000000E+00 -0.72768009632E+02  0.72768009632E+02  0.00000000000E+00 0.  1.
          6    2    1    2  501    0 -0.69124328598E+02  0.15003583207E+03  0.17438052369E+03  0.29576469403E+03  0.17256669284E+03 0.  0.
         24    2    3    3    0    0 -0.11217253995E+03  0.85799553553E+02  0.99692973502E+02  0.18815536296E+03  0.74293401689E+02 0.  0.
         -6    2    1    2    0  502  0.69124328598E+02 -0.15003583207E+03  0.11862740131E+04  0.12104258620E+04  0.17491657901E+03 0.  0.
        -24    2    5    5    0    0  0.33937328972E+01 -0.35389421677E+02  0.25806655860E+03  0.27284627650E+03  0.81134538516E+02 0.  0.
          5    1    3    3  501    0  0.43048211357E+02  0.64236278520E+02  0.74687550192E+02  0.10760933107E+03  0.47000000000E+01 0. -1.
        -11    1    4    4    0    0 -0.52278987714E+02  0.83428966510E+02  0.50717314853E+02  0.11075076088E+03  0.00000000000E+00 0.  1.
         12    1    4    4    0    0 -0.59893552241E+02  0.23705870426E+01  0.48975658649E+02  0.77404602079E+02  0.00000000000E+00 0. -1.
         -5    1    5    5    0  502  0.65730595701E+02 -0.11464641040E+03  0.92820745452E+03  0.93757958555E+03  0.47000000000E+01 0.  1.
         11    1    6    6    0    0  0.35394864702E+02  0.22540143786E+01  0.71006211068E+02  0.79371021401E+02  0.00000000000E+00 0. -1.
        -12    1    6    6    0    0 -0.32001131805E+02 -0.37643436055E+02  0.18706034753E+03  0.19347525510E+03  0.00000000000E+00 0.  1.
</event>
<event>
12    1  0.8226261E-002  0.1980717E+03  0.7818608E-02  0.1151878E+00
         21   -1    0    0  501  502  0.00000000000E+00  0.00000000000E+00  0.49057261243E+03  0.49057261243E+03  0.00000000000E+00 0. -1.
         21   -1    0    0  502  503 -0.00000000000E+00 -0.00000000000E+00 -0.10353647437E+03  0.10353647437E+03  0.00000000000E+00 0.  1.
         -6    2    1    2    0  503  0.49447899218E+02  0.84136306551E+02  0.49885034330E+02  0.20425699286E+03  0.17236121857E+03 0.  0.
        -24    2    3    3    0    0 -0.59167299478E+01  0.30876941801E+01 -0.19259589754E+02  0.84102139569E+02  0.81594708983E+02 0.  0.
          6    2    1    2  501    0 -0.49447899218E+02 -0.84136306551E+02  0.33715110373E+03  0.38985209393E+03  0.16967550084E+03 0.  0.
         24    2    5    5    0    0 -0.49204272043E+02 -0.93100100125E+02  0.34867239800E+03  0.37451458530E+03  0.87178233776E+02 0.  0.
          5    1    5    5  501    0 -0.24362717504E+00  0.89637935744E+01 -0.11521294272E+02  0.15337508636E+02  0.47000000000E+01 0. -1.
        -11    1    6    6    0    0  0.19213063905E+02 -0.37014097512E+01  0.94859755964E+02  0.96856675352E+02  0.00000000000E+00 0.  1.
         12    1    6    6    0    0 -0.68417335948E+02 -0.89398690374E+02  0.25381264204E+03  0.27765790995E+03  0.00000000000E+00 0. -1.
         -5    1    3    3    0  503  0.55364629166E+02  0.81048612370E+02  0.69144624083E+02  0.12015485329E+03  0.47000000000E+01 0.  1.
         13    1    4    4    0    0 -0.41456474193E+02  0.13108910942E+02 -0.25009478368E+01  0.43551550359E+02  0.00000000000E+00 0. -1.
        -14    1    4    4    0    0  0.35539744245E+02 -0.10021216762E+02 -0.16758641917E+02  0.40550589210E+02  0.00000000000E+00 0.  1.
</event>
<event>
12    1  0.8226261E-002  0.2199098E+03  0.7818608E-02  0.1134454E+00
         21   -1    0    0  501  502  0.00000000000E+00  0.00000000000E+00  0.21746582008E+03  0.21746582008E+03  0.00000000000E+00 0.  1.
         21   -1    0    0  502  503 -0.00000000000E+00 -0.00000000000E+00 -0.43278265832E+03  0.43278265832E+03  0.00000000000E+00 0. -1.
         -6    2    1    2    0  503 -0.75038940959E+02 -0.11573717411E+03 -0.33613823306E+03  0.40168297308E+03  0.17127277369E+03 0.  0.
        -24    2    3    3    0    0  0.14728863613E+02 -0.19437155815E+02 -0.17552545133E+03  0.19395596974E+03  0.78835218550E+02 0.  0.
          6    2    1    2  501    0  0.75038940959E+02  0.11573717411E+03  0.12082139482E+03  0.24856550531E+03  0.16781258848E+03 0.  0.
         24    2    5    5    0    0  0.75757580291E+02  0.14353472171E+03  0.75941195624E+02  0.19556038881E+03  0.78328622949E+02 0.  0.
          5    1    5    5  501    0 -0.71863933258E+00 -0.27797547595E+02  0.44880199199E+02  0.53005116498E+02  0.47000000000E+01 0. -1.
        -13    1    6    6    0    0  0.13149371505E+02  0.43921937340E+02  0.61960039721E+02  0.77078460499E+02  0.00000000000E+00 0.  1.
         14    1    6    6    0    0  0.62608208786E+02  0.99612784368E+02  0.13981155903E+02  0.11848192832E+03  0.00000000000E+00 0. -1.
         -5    1    3    3    0  503 -0.89767804572E+02 -0.96300018298E+02 -0.16061278173E+03  0.20772700334E+03  0.47000000000E+01 0.  1.
         13    1    4    4    0    0  0.17557787898E+02 -0.46926535349E+02 -0.14158080216E+03  0.15018488331E+03  0.00000000000E+00 0. -1.
        -14    1    4    4    0    0 -0.28289242842E+01  0.27489379534E+02 -0.33944649174E+02  0.43771086431E+02  0.00000000000E+00 0.  1.
</event>
<event>
12    1  0.8226261E-002  0.2831406E+03  0.7818608E-02  0.1094087E+00
         21   -1    0    0  501  502  0.00000000000E+00  0.00000000000E+00  0.26436141055E+03  0.26436141055E+03  0.00000000000E+00 0. -1.
         21   -1    0    0  502  503 -0.00000000000E+00 -0.00000000000E+00 -0.33259177184E+03  0.33259177184E+03  0.00000000000E+00 0.  1.
         -6    2    1    2    0  503 -0.22079277697E+03 -0.38663842700E+02 -0.12401019069E+03  0.30910696596E+03  0.17298625933E+03 0.  0.
        -24    2    3    3    0    0 -0.59962259988E+02  0.27580322160E+02 -0.17707502065E+02  0.10520234076E+03  0.79986436842E+02 0.  0.
          6    2    1    2  501    0  0.22079277697E+03  0.38663842700E+02  0.55779829401E+02  0.28784621643E+03  0.17175480154E+03 0.  0.
         24    2    5    5    0    0  0.32285122033E+02  0.16326313599E+02 -0.31148568918E+02  0.79009587436E+02  0.62955571165E+02 0.  0.
          5    1    5    5  501    0  0.18850765493E+03  0.22337529101E+02  0.86928398319E+02  0.20883662899E+03  0.47000000000E+01 0. -1.
        -11    1    6    6    0    0 -0.89644422272E+01 -0.13871461062E+02  0.39712423379E+01  0.16986742541E+02  0.00000000000E+00 0.  1.
         12    1    6    6    0    0  0.41249564261E+02  0.30197774661E+02 -0.35119811256E+02  0.62022844895E+02  0.00000000000E+00 0. -1.
         -5    1    3    3    0  503 -0.16083051698E+03 -0.66244164861E+02 -0.10630268862E+03  0.20390462520E+03  0.47000000000E+01 0.  1.
         11    1    4    4    0    0 -0.11812474709E+01  0.29702766858E+02  0.19547360843E+02  0.35577366689E+02  0.00000000000E+00 0. -1.
        -12    1    4    4    0    0 -0.58781012517E+02 -0.21224446977E+01 -0.37254862908E+02  0.69624974071E+02  0.00000000000E+00 0.  1.
</event>
<event>
12    1  0.8226261E-002  0.2101648E+03  0.7818608E-02  0.1141493E+00
         21   -1    0    0  503  502  0.00000000000E+00  0.00000000000E+00  0.52861241106E+03  0.52861241106E+03  0.00000000000E+00 0. -1.
         21   -1    0    0  501  503 -0.00000000000E+00 -0.00000000000E+00 -0.11644399788E+03  0.11644399788E+03  0.00000000000E+00 0. -1.
          6    2    1    2  501    0  0.61719778594E+02  0.10300292276E+03  0.34277750980E+02  0.21265544910E+03  0.17212914527E+03 0.  0.
         24    2    3    3    0    0  0.79176801999E+02  0.13247206647E+03  0.38209372856E+02  0.17785996451E+03  0.79727011922E+02 0.  0.
         -6    2    1    2    0  502 -0.61719778594E+02 -0.10300292276E+03  0.37789066219E+03  0.43240095984E+03  0.17248276533E+03 0.  0.
        -24    2    5    5    0    0 -0.52538335797E+02 -0.12225982185E+03  0.37903043805E+03  0.41052594799E+03  0.84615248256E+02 0.  0.
          5    1    3    3  501    0 -0.17457023405E+02 -0.29469143712E+02 -0.39316218766E+01  0.34795484590E+02  0.47000000000E+01 0. -1.
        -13    1    4    4    0    0 -0.16521257331E+01  0.33056410168E+02  0.37112587202E+02  0.49727255117E+02  0.00000000000E+00 0.  1.
         14    1    4    4    0    0  0.80828927733E+02  0.99415656304E+02  0.10967856542E+01  0.12813270939E+03  0.00000000000E+00 0. -1.
         -5    1    5    5    0  502 -0.91814427968E+01  0.19256899094E+02 -0.11397758571E+01  0.21875011853E+02  0.47000000000E+01 0.  1.
         13    1    6    6    0    0 -0.67190411393E+02 -0.50016018713E+02  0.21231981427E+03  0.22824516871E+03  0.00000000000E+00 0. -1.
        -14    1    6    6    0    0  0.14652075596E+02 -0.72243803142E+02  0.16671062378E+03  0.18228077928E+03  0.00000000000E+00 0.  1.
</event>
<event>
12    1  0.8226261E-002  0.2976844E+03  0.7818608E-02  0.1086449E+00
         21   -1    0    0  501  502  0.00000000000E+00  0.00000000000E+00  0.28654378563E+03  0.28654378563E+03  0.00000000000E+00 0.  1.
         21   -1    0    0  502  503 -0.00000000000E+00 -0.00000000000E+00 -0.42810045239E+03  0.42810045239E+03  0.00000000000E+00 0. -1.
         -6    2    1    2    0  503 -0.57916160052E+02 -0.23571454289E+03 -0.25936961949E+03  0.39482732878E+03  0.17233801876E+03 0.  0.
        -24    2    3    3    0    0  0.16045883902E+02 -0.14362193886E+03 -0.20901466060E+03  0.26633941671E+03  0.79779852319E+02 0.  0.
          6    2    1    2  501    0  0.57916160052E+02  0.23571454289E+03  0.11781295273E+03  0.31981690923E+03  0.17171877088E+03 0.  0.
         24    2    5    5    0    0  0.82056929648E+02  0.80396287950E+02  0.55839528006E+02  0.15079225882E+03  0.80145802210E+02 0.  0.
          5    1    5    5  501    0 -0.24140769596E+02  0.15531825495E+03  0.61973424728E+02  0.16902465042E+03  0.47000000000E+01 0. -1.
        -13    1    6    6    0    0  0.26827817931E+01  0.45045106018E+02  0.44129314076E+02  0.63116204378E+02  0.00000000000E+00 0.  1.
         14    1    6    6    0    0  0.79374147855E+02  0.35351181932E+02  0.11710213930E+02  0.87676054439E+02  0.00000000000E+00 0. -1.
         -5    1    3    3    0  503 -0.73962043955E+02 -0.92092604039E+02 -0.50354958894E+02  0.12848791208E+03  0.47000000000E+01 0.  1.
         13    1    4    4    0    0 -0.17334203534E+02 -0.58458220823E+02 -0.13688148826E+03  0.14984785625E+03  0.00000000000E+00 0. -1.
        -14    1    4    4    0    0  0.33380087436E+02 -0.85163718033E+02 -0.72133172335E+02  0.11649156046E+03  0.00000000000E+00 0.  1.
</event>
<event>
12    1  0.8226261E-002  0.2016940E+03  0.7818608E-02  0.1148575E+00
         21   -1    0    0  503  502  0.00000000000E+00  0.00000000000E+00  0.40217690021E+03  0.40217690021E+03  0.00000000000E+00 0.  1.
         21   -1    0    0  501  503 -0.00000000000E+00 -0.00000000000E+00 -0.10349055553E+03  0.10349055553E+03  0.00000000000E+00 0. -1.
          6    2    1    2  501    0 -0.82492416308E+02  0.60502783888E+02  0.19251681804E+03  0.27882464032E+03  0.17382424807E+03 0.  0.
         24    2    3    3    0    0 -0.81806319220E+02 -0.16884046541E+02  0.77340433259E+02  0.13998342935E+03  0.81464550474E+02 0.  0.
         -6    2    1    2    0  502  0.82492416308E+02 -0.60502783888E+02  0.10616952664E+03  0.22684281542E+03  0.17239521141E+03 0.  0.
        -24    2    5    5    0    0  0.42685346806E+02 -0.60866851597E+02  0.13736363164E+03  0.17605012388E+03  0.81228482475E+02 0.  0.
          5    1    3    3  501    0 -0.68609708863E+00  0.77386830429E+02  0.11517638478E+03  0.13884121097E+03  0.47000000000E+01 0. -1.
        -13    1    4    4    0    0 -0.82636332948E+02 -0.33588418135E+01  0.25716277323E+02  0.86610462767E+02  0.00000000000E+00 0.  1.
         14    1    4    4    0    0  0.83001372802E+00 -0.13525204727E+02  0.51624155937E+02  0.53372966583E+02  0.00000000000E+00 0. -1.
         -5    1    5    5    0  502  0.39807069502E+02  0.36406770896E+00 -0.31194105002E+02  0.50792691546E+02  0.47000000000E+01 0.  1.
         11    1    6    6    0    0  0.50458809686E+02 -0.76838045567E+02  0.12047684016E+03  0.15154156439E+03  0.00000000000E+00 0. -1.
        -12    1    6    6    0    0 -0.77734628798E+01  0.15971193970E+02  0.16886791477E+02  0.24508559491E+02  0.00000000000E+00 0.  1.
</event>
<event>
12    1  0.8226261E-002  0.2046785E+03  0.7818608E-02  0.1146251E+00
         21   -1    0    0  501  502  0.00000000000E+00  0.00000000000E+00  0.12541880608E+03  0.12541880608E+03  0.00000000000E+00 0.  1.
         21   -1    0    0  502  503 -0.00000000000E+00 -0.00000000000E+00 -0.42096423194E+03  0.42096423194E+03  0.00000000000E+00 0.  1.
         -6    2    1    2    0  503  0.87064988913E+02  0.69734887182E+02 -0.27471530686E+03  0.34258107752E+03  0.17161010479E+03 0.  0.
        -24    2    3    3    0    0  0.12222128446E+03  0.25923843346E+02 -0.20845957382E+03  0.25559093532E+03  0.79128024569E+02 0.  0.
          6    2    1    2  501    0 -0.87064988913E+02 -0.69734887182E+02 -0.20830119006E+02  0.20380196050E+03  0.16928697074E+03 0.  0.
         24    2    5    5    0    0 -0.90240873762E+01  0.15349997176E+02 -0.37905101410E+02  0.86996717112E+02  0.76253363920E+02 0.  0.
          5    1    5    5  501    0 -0.78040901537E+02 -0.85084884358E+02  0.17074982405E+02  0.11680524339E+03  0.47000000000E+01 0. -1.
        -11    1    6    6    0    0 -0.10976101270E+02 -0.25531815314E+02  0.43958728357E+01  0.28136668074E+02  0.00000000000E+00 0.  1.
         12    1    6    6    0    0  0.19520138934E+01  0.40881812489E+02 -0.42300974246E+02  0.58860049039E+02  0.00000000000E+00 0. -1.
         -5    1    3    3    0  503 -0.35156295551E+02  0.43811043836E+02 -0.66255733039E+02  0.86990142197E+02  0.47000000000E+01 0.  1.
         11    1    4    4    0    0  0.12890941346E+01 -0.11325375188E+02  0.38180766798E+00  0.11404896490E+02  0.00000000000E+00 0. -1.
        -12    1    4    4    0    0  0.12093219033E+03  0.37249218534E+02 -0.20884138149E+03  0.24418603883E+03  0.00000000000E+00 0.  1.
</event>
<event>
12    1  0.8226261E-002  0.1885697E+03  0.7818608E-02  0.1159906E+00
         21   -1    0    0  501  502  0.00000000000E+00  0.00000000000E+00  0.87234991118E+02  0.87234991118E+02  0.00000000000E+00 0. -1.
         21   -1    0    0  502  503 -0.00000000000E+00 -0.00000000000E+00 -0.42803296457E+03  0.42803296457E+03  0.00000000000E+00 0. -1.
         -6    2    1    2    0  503  0.59058954991E+02  0.48601685405E+02 -0.22884585930E+03  0.29652816046E+03  0.17236136063E+03 0.  0.
        -24    2    3    3    0    0  0.19890091422E+02 -0.26765540397E+02 -0.17751834842E+03  0.19717514354E+03  0.79077577820E+02 0.  0.
          6    2    1    2  501    0 -0.59058954991E+02 -0.48601685405E+02 -0.11195211415E+03  0.21873979523E+03  0.17165004563E+03 0.  0.
         24    2    5    5    0    0 -0.97676966832E+02 -0.30931628849E+02 -0.11912313891E+03  0.17541433697E+03  0.77989177948E+02 0.  0.
          5    1    5    5  501    0  0.38618011841E+02 -0.17670056557E+02  0.71710247651E+01  0.43325458260E+02  0.47000000000E+01 0. -1.
        -13    1    6    6    0    0  0.12979566988E+02 -0.94103978468E+01 -0.15053339613E+02  0.21991538835E+02  0.00000000000E+00 0.  1.
         14    1    6    6    0    0 -0.11065653382E+03 -0.21521231002E+02 -0.10406979930E+03  0.15342279813E+03  0.00000000000E+00 0. -1.
         -5    1    3    3    0  503  0.39168863569E+02  0.75367225803E+02 -0.51327510888E+02  0.99353016926E+02  0.47000000000E+01 0.  1.
         11    1    4    4    0    0  0.31907982116E+02 -0.13205199915E+02 -0.22757029509E+02  0.41356728831E+02  0.00000000000E+00 0. -1.
        -12    1    4    4    0    0 -0.12017890694E+02 -0.13560340482E+02 -0.15476131891E+03  0.15581841470E+03  0.00000000000E+00 0.  1.
</event>
<event>
12    1  0.8226261E-002  0.1878600E+03  0.7818608E-02  0.1160558E+00
         21   -1    0    0  501  502  0.00000000000E+00  0.00000000000E+00  0.27607290115E+03  0.27607290115E+03  0.00000000000E+00 0.  1.
         21   -1    0    0  502  503 -0.00000000000E+00 -0.00000000000E+00 -0.12798835159E+03  0.12798835159E+03  0.00000000000E+00 0.  1.
         -6    2    1    2    0  503  0.27713279984E+02  0.68897669073E+02  0.60267972001E+02  0.19729070200E+03  0.17255862180E+03 0.  0.
        -24    2    3    3    0    0 -0.68160072803E+01 -0.27801237935E+02  0.23136409854E+02  0.88003039375E+02  0.79936691778E+02 0.  0.
          6    2    1    2  501    0 -0.27713279984E+02 -0.68897669073E+02  0.87816577564E+02  0.20677055073E+03  0.17183537082E+03 0.  0.
         24    2    5    5    0    0 -0.56333146555E+02 -0.33807885775E+02  0.11454105709E+03  0.15398156078E+03  0.79210294534E+02 0.  0.
          5    1    5    5  501    0  0.28619866571E+02 -0.35089783298E+02 -0.26724479522E+02  0.52788989952E+02  0.47000000000E+01 0. -1.
        -11    1    6    6    0    0 -0.44280504405E+02  0.18061079219E+02  0.68768683362E+02  0.83762148160E+02  0.00000000000E+00 0.  1.
         12    1    6    6    0    0 -0.12052642150E+02 -0.51868964994E+02  0.45772373724E+02  0.70219412620E+02  0.00000000000E+00 0. -1.
         -5    1    3    3    0  503  0.34529287265E+02  0.96698907008E+02  0.37131562147E+02  0.10928766263E+03  0.47000000000E+01 0.  1.
         13    1    4    4    0    0 -0.60007528252E+01 -0.13818133854E+02  0.52956268346E+02  0.55057390193E+02  0.00000000000E+00 0. -1.
        -14    1    4    4    0    0 -0.81525445504E+00 -0.13983104080E+02 -0.29819858492E+02  0.32945649182E+02  0.00000000000E+00 0.  1.
</event>
<event>
12    1  0.8226261E-002  0.2260806E+03  0.7818608E-02  0.1130895E+00
         21   -1    0    0  501  502  0.00000000000E+00  0.00000000000E+00  0.29975739168E+04  0.29975739168E+04  0.00000000000E+00 0. -1.
         21   -1    0    0  502  503 -0.00000000000E+00 -0.00000000000E+00 -0.21564645240E+02  0.21564645240E+02  0.00000000000E+00 0. -1.
         -6    2    1    2    0  503  0.11386439926E+03 -0.90460260646E+02  0.73276516604E+03  0.76453070852E+03  0.16252463057E+03 0.  0.
        -24    2    3    3    0    0  0.98339711031E+02 -0.96866085975E+02  0.38200797735E+03  0.41334023889E+03  0.76591911792E+02 0.  0.
          6    2    1    2  501    0 -0.11386439926E+03  0.90460260646E+02  0.22432441055E+04  0.22546078535E+04  0.17310198151E+03 0.  0.
         24    2    5    5    0    0 -0.58669645493E+02 -0.20336336953E+02  0.12885503232E+04  0.12919112997E+04  0.69405884178E+02 0.  0.
          5    1    5    5  501    0 -0.55194753771E+02  0.11079659760E+03  0.95469378231E+03  0.96269655388E+03  0.47000000000E+01 0. -1.
        -13    1    6    6    0    0  0.98174272407E+01 -0.19652218475E+01  0.52011125876E+03  0.52020761766E+03  0.00000000000E+00 0.  1.
         14    1    6    6    0    0 -0.68487072734E+02 -0.18371115105E+02  0.76843906447E+03  0.77170368200E+03  0.00000000000E+00 0. -1.
         -5    1    3    3    0  503  0.15524688233E+02  0.64058253292E+01  0.35075718869E+03  0.35119046963E+03  0.47000000000E+01 0.  1.
         11    1    4    4    0    0  0.55535913557E+02 -0.47311375969E+01  0.11949495640E+03  0.13185471536E+03  0.00000000000E+00 0. -1.
        -12    1    4    4    0    0  0.42803797474E+02 -0.92134948378E+02  0.26251302095E+03  0.28148552353E+03  0.00000000000E+00 0.  1.
</event>
<event>
12    1  0.8226261E-002  0.2334341E+03  0.7818608E-02  0.1124911E+00
         21   -1    0    0  503  502  0.00000000000E+00  0.00000000000E+00  0.33850501520E+02  0.33850501520E+02  0.00000000000E+00 0. -1.
         21   -1    0    0  501  503 -0.00000000000E+00 -0.00000000000E+00 -0.17347647724E+04  0.17347647724E+04  0.00000000000E+00 0. -1.
          6    2    1    2  501    0  0.15228221852E+03 -0.10590521121E+02 -0.11179560691E+04  0.11420670950E+04  0.17660533326E+03 0.  0.
         24    2    3    3    0    0  0.80518723398E+02  0.40383969597E+02 -0.37144111662E+03  0.39036565009E+03  0.79389595280E+02 0.  0.
         -6    2    1    2    0  502 -0.15228221852E+03  0.10590521121E+02 -0.58295820182E+03  0.62654817900E+03  0.17152353286E+03 0.  0.
        -24    2    5    5    0    0 -0.71824855849E+02 -0.38036947293E+02 -0.18472187884E+03  0.21733884769E+03  0.80674549367E+02 0.  0.
          5    1    3    3  501    0  0.71763495121E+02 -0.50974490717E+02 -0.74651495249E+03  0.75170144487E+03  0.47000000000E+01 0. -1.
        -13    1    4    4    0    0  0.19402504060E+01  0.39870821747E+02 -0.15650571506E+03  0.16151620923E+03  0.00000000000E+00 0.  1.
         14    1    4    4    0    0  0.78578472992E+02  0.51314784935E+00 -0.21493540156E+03  0.22884944086E+03  0.00000000000E+00 0. -1.
         -5    1    5    5    0  502 -0.80457362670E+02  0.48627468414E+02 -0.39823632298E+03  0.40920933131E+03  0.47000000000E+01 0.  1.
         13    1    6    6    0    0 -0.29632498596E+02  0.14330671393E+02 -0.17891582917E+02  0.37464140920E+02  0.00000000000E+00 0. -1.
        -14    1    6    6    0    0 -0.42192357253E+02 -0.52367618686E+02 -0.16683029592E+03  0.17987470677E+03  0.00000000000E+00 0.  1.
</event>
<event>
12    1  0.8226261E-002  0.1934144E+03  0.7818608E-02  0.1155429E+00
         21   -1    0    0  503  502  0.00000000000E+00  0.00000000000E+00  0.24931786633E+03  0.24931786633E+03  0.00000000000E+00 0.  1.
         21   -1    0    0  501  503 -0.00000000000E+00 -0.00000000000E+00 -0.25779221438E+03  0.25779221438E+03  0.00000000000E+00 0.  1.
          6    2    1    2  501    0  0.52377977804E+02 -0.70755249145E+02 -0.16818995102E+03  0.25631422807E+03  0.17221894799E+03 0.  0.
         24    2    3    3    0    0 -0.33393627505E+02 -0.32646040626E+02 -0.12686499883E+03  0.15365497752E+03  0.73035784797E+02 0.  0.
         -6    2    1    2    0  502 -0.52377977804E+02  0.70755249145E+02  0.15971560297E+03  0.25079585264E+03  0.17216192386E+03 0.  0.
        -24    2    5    5    0    0  0.33495143149E+02  0.57666748202E+02  0.75821094152E+02  0.12994106221E+03  0.81783023099E+02 0.  0.
          5    1    3    3  501    0  0.85771605309E+02 -0.38109208520E+02 -0.41324952187E+02  0.10265925056E+03  0.47000000000E+01 0. -1.
        -11    1    4    4    0    0  0.12758409810E+02 -0.25598342053E+02 -0.89186265458E+02  0.93660248147E+02  0.00000000000E+00 0.  1.
         12    1    4    4    0    0 -0.46152037315E+02 -0.70476985728E+01 -0.37678733371E+02  0.59994729368E+02  0.00000000000E+00 0. -1.
         -5    1    5    5    0  502 -0.85873120953E+02  0.13088500944E+02  0.83894508820E+02  0.12085479043E+03  0.47000000000E+01 0.  1.
         13    1    6    6    0    0  0.11006439851E+02  0.61977536780E+02  0.14656841707E+02  0.64631105455E+02  0.00000000000E+00 0. -1.
        -14    1    6    6    0    0  0.22488703298E+02 -0.43107885785E+01  0.61164252445E+02  0.65309956756E+02  0.00000000000E+00 0.  1.
</event>
<event>
12    1  0.8226261E-002  0.1891909E+03  0.7818608E-02  0.1159585E+00
         21   -1    0    0  503  502  0.00000000000E+00  0.00000000000E+00  0.61500911982E+03  0.61500911982E+03  0.00000000000E+00 0. -1.
         21   -1    0    0  501  503 -0.00000000000E+00 -0.00000000000E+00 -0.57714565625E+02  0.57714565625E+02  0.00000000000E+00 0. -1.
          6    2    1    2  501    0 -0.77010847928E+02 -0.35455809312E+01  0.26817817869E+03  0.32720743045E+03  0.17088570793E+03 0.  0.
         24    2    3    3    0    0 -0.63373339517E+02  0.13917013838E+02  0.64695227324E+02  0.12246777785E+03  0.81258973271E+02 0.  0.
         -6    2    1    2    0  502  0.77010847928E+02  0.35455809312E+01  0.28911637551E+03  0.34551625500E+03  0.17277141557E+03 0.  0.
        -24    2    5    5    0    0  0.11501068044E+01  0.54404361277E+02  0.13614028447E+03  0.16728819320E+03  0.80560568872E+02 0.  0.
          5    1    3    3  501    0 -0.13637508411E+02 -0.17462594769E+02  0.20348295136E+03  0.20473965260E+03  0.47000000000E+01 0. -1.
        -11    1    4    4    0    0  0.16850709828E+02 -0.75479614818E+01  0.23270653076E+01  0.18610034314E+02  0.00000000000E+00 0.  1.
         12    1    4    4    0    0 -0.80224049345E+02  0.21464975319E+02  0.62368162016E+02  0.10385774353E+03  0.00000000000E+00 0. -1.
         -5    1    5    5    0  502  0.75860741124E+02 -0.50858780346E+02  0.15297609104E+03  0.17822806180E+03  0.47000000000E+01 0.  1.
         11    1    6    6    0    0  0.32657027810E+02  0.33909483430E+02  0.32943356318E+02  0.57459544528E+02  0.00000000000E+00 0. -1.
        -12    1    6    6    0    0 -0.31506921006E+02  0.20494877847E+02  0.10319692815E+03  0.10982864867E+03  0.00000000000E+00 0.  1.
</event>
<event>
12    1  0.8226261E-002  0.2034968E+03  0.7818608E-02  0.1147274E+00
         21   -1    0    0  503  502  0.00000000000E+00  0.00000000000E+00  0.15169402186E+03  0.15169402186E+03  0.00000000000E+00 0.  1.
         21   -1    0    0  501  503 -0.00000000000E+00 -0.00000000000E+00 -0.30186098052E+03  0.30186098052E+03  0.00000000000E+00 0.  1.
          6    2    1    2  501    0  0.38263899342E+02  0.10142017234E+03 -0.14831416741E+03  0.25004980388E+03  0.16963972064E+03 0.  0.
         24    2    3    3    0    0  0.76713388657E+02  0.98925815862E+02 -0.85655961311E+02  0.17634277685E+03  0.89936478671E+02 0.  0.
         -6    2    1    2    0  502 -0.38263899342E+02 -0.10142017234E+03 -0.18527912596E+01  0.20350519850E+03  0.17222298229E+03 0.  0.
        -24    2    5    5    0    0 -0.68176328026E+01  0.15817075201E+02 -0.23646102350E+00  0.82022103323E+02  0.80192951902E+02 0.  0.
          5    1    3    3  501    0 -0.38449489315E+02  0.24943564783E+01 -0.62658206096E+02  0.73707027033E+02  0.47000000000E+01 0. -1.
        -13    1    4    4    0    0  0.62681452918E+02  0.84562251576E+02 -0.10484572513E+03  0.14856771187E+03  0.00000000000E+00 0.  1.
         14    1    4    4    0    0  0.14031935739E+02  0.14363564286E+02  0.19189763816E+02  0.27775064984E+02  0.00000000000E+00 0. -1.
         -5    1    5    5    0  502 -0.31446266539E+02 -0.11723724754E+03 -0.16163302361E+01  0.12148309518E+03  0.47000000000E+01 0.  1.
         13    1    6    6    0    0  0.82317537354E+01  0.78349769354E+01 -0.38497624903E+02  0.40139952121E+02  0.00000000000E+00 0. -1.
        -14    1    6    6    0    0 -0.15049386538E+02  0.79820982655E+01  0.38261163879E+02  0.41882151202E+02  0.00000000000E+00 0.  1.
</event>
<event>
12    1  0.8226261E-002  0.2020078E+03  0.7818608E-02  0.1149152E+00
         21   -1    0    0  501  502  0.00000000000E+00  0.00000000000E+00  0.40337093071E+03  0.40337093071E+03  0.00000000000E+00 0.  1.
         21   -1    0    0  502  503 -0.00000000000E+00 -0.00000000000E+00 -0.15006091213E+03  0.15006091213E+03  0.00000000000E+00 0.  1.
         -6    2    1    2    0  503 -0.93811884433E+02 -0.17878147154E+02 -0.36494598165E+02  0.20017008842E+03  0.17209273894E+03 0.  0.
        -24    2    3    3    0    0  0.12646453281E+02  0.18629516268E+02 -0.15421667948E+02  0.85573641940E+02  0.81105047288E+02 0.  0.
          6    2    1    2  501    0  0.93811884433E+02  0.17878147154E+02  0.28980461675E+03  0.35326175442E+03  0.17800801510E+03 0.  0.
         24    2    5    5    0    0  0.90626006307E+02  0.68492302944E+02  0.15158304013E+03  0.20595514619E+03  0.80844514991E+02 0.  0.
          5    1    5    5  501    0  0.31858781258E+01 -0.50614155790E+02  0.13822157662E+03  0.14730660824E+03  0.47000000000E+01 0. -1.
        -13    1    6    6    0    0  0.60435579755E+02  0.54569513363E+01  0.10713557302E+03  0.12312704262E+03  0.00000000000E+00 0.  1.
         14    1    6    6    0    0  0.30190426551E+02  0.63035351607E+02  0.44447467107E+02  0.82828103563E+02  0.00000000000E+00 0. -1.
         -5    1    3    3    0  503 -0.10645833771E+03 -0.36507663422E+02 -0.21072930218E+02  0.11459644648E+03  0.47000000000E+01 0.  1.
         13    1    4    4    0    0 -0.30143824959E+02  0.26836612577E+02 -0.10665846305E+02  0.41744631214E+02  0.00000000000E+00 0. -1.
        -14    1    4    4    0    0  0.42790278240E+02 -0.82070963091E+01 -0.47558216429E+01  0.43829010726E+02  0.00000000000E+00 0.  1.
</event>
<event>
12    1  0.8226261E-002  0.1852878E+03  0.7818608E-02  0.1164175E+00
         21   -1    0    0  503  502  0.00000000000E+00  0.00000000000E+00  0.17283815258E+03  0.17283815258E+03  0.00000000000E+00 0. -1.
         21   -1    0    0  501  503 -0.00000000000E+00 -0.00000000000E+00 -0.21775666171E+03  0.21775666171E+03  0.00000000000E+00 0. -1.
          6    2    1    2  501    0 -0.64639003523E+02 -0.23653637809E+02 -0.89436461601E+02  0.20574363982E+03  0.17202868744E+03 0.  0.
         24    2    3    3    0    0  0.91379221117E+01 -0.54806944406E+02 -0.16182842647E+02  0.97107798778E+02  0.77979083168E+02 0.  0.
         -6    2    1    2    0  502  0.64639003523E+02  0.23653637809E+02  0.44517952472E+02  0.18485117447E+03  0.16568166239E+03 0.  0.
        -24    2    5    5    0    0  0.82430336797E+02 -0.53528455023E+01 -0.14000804262E+02  0.11699513198E+03  0.81660424972E+02 0.  0.
          5    1    3    3  501    0 -0.73776925635E+02  0.31153306597E+02 -0.73253618954E+02  0.10863584104E+03  0.47000000000E+01 0. -1.
        -13    1    4    4    0    0 -0.20244372558E+02 -0.38588165966E+02  0.19834241432E+02  0.47877743327E+02  0.00000000000E+00 0.  1.
         14    1    4    4    0    0  0.29382294670E+02 -0.16218778440E+02 -0.36017084079E+02  0.49230055451E+02  0.00000000000E+00 0. -1.
         -5    1    5    5    0  502 -0.17791333273E+02  0.29006483311E+02  0.58518756735E+02  0.67856042498E+02  0.47000000000E+01 0.  1.
         13    1    6    6    0    0  0.30156213334E+02  0.23810651140E+02 -0.36549241082E+02  0.53030098378E+02  0.00000000000E+00 0. -1.
        -14    1    6    6    0    0  0.52274123462E+02 -0.29163496642E+02  0.22548436819E+02  0.63965033597E+02  0.00000000000E+00 0.  1.
</event>
<event>
12    1  0.8226261E-002  0.2087004E+03  0.7818608E-02  0.1142771E+00
         21   -1    0    0  501  502  0.00000000000E+00  0.00000000000E+00  0.13171477475E+04  0.13171477475E+04  0.00000000000E+00 0. -1.
         21   -1    0    0  502  503 -0.00000000000E+00 -0.00000000000E+00 -0.45877644132E+02  0.45877644132E+02  0.00000000000E+00 0.  1.
         -6    2    1    2    0  503 -0.20017787650E+02  0.11777516559E+03  0.27268101194E+03  0.34286067639E+03  0.17007882786E+03 0.  0.
        -24    2    3    3    0    0 -0.99580058736E+01  0.13709396529E+03  0.14477042623E+03  0.21302376650E+03  0.74341990717E+02 0.  0.
          6    2    1    2  501    0  0.20017787650E+02 -0.11777516559E+03  0.99858909142E+03  0.10201647152E+04  0.17112618522E+03 0.  0.
         24    2    5    5    0    0  0.38995339811E+02 -0.10314568507E+03  0.44877768087E+03  0.46981133208E+03  0.84626308136E+02 0.  0.
          5    1    5    5  501    0 -0.18977552161E+02 -0.14629480527E+02  0.54981141055E+03  0.55035338316E+03  0.47000000000E+01 0. -1.
        -11    1    6    6    0    0 -0.19291852379E+01 -0.43188881049E+02  0.31183952449E+03  0.31482199770E+03  0.00000000000E+00 0.  1.
         12    1    6    6    0    0  0.40924525049E+02 -0.59956804018E+02  0.13693815638E+03  0.15498933438E+03  0.00000000000E+00 0. -1.
         -5    1    3    3    0  503 -0.10059781776E+02 -0.19318799695E+02  0.12791058572E+03  0.12983690989E+03  0.47000000000E+01 0.  1.
         11    1    4    4    0    0 -0.89126041972E+01  0.60118627512E+02  0.11578300114E+03  0.13076462534E+03  0.00000000000E+00 0. -1.
        -12    1    4    4    0    0 -0.10454016765E+01  0.76975337777E+02  0.28987425083E+02  0.82259141154E+02  0.00000000000E+00 0.  1.
</event>
<event>
12    1  0.8226261E-002  0.1794460E+03  0.7818608E-02  0.1168869E+00
         21   -1    0    0  503  502  0.00000000000E+00  0.00000000000E+00  0.74080575828E+03  0.74080575828E+03  0.00000000000E+00 0.  1.
         21   -1    0    0  501  503 -0.00000000000E+00 -0.00000000000E+00 -0.43090744905E+02  0.43090744905E+02  0.00000000000E+00 0.  1.
          6    2    1    2  501    0  0.49985256871E+02  0.10015357846E+02  0.32392843258E+03  0.36926742504E+03  0.16979389997E+03 0.  0.
         24    2    3    3    0    0 -0.24705725999E+02 -0.34599553996E+02  0.14442109906E+03  0.16973245049E+03  0.78384621345E+02 0.  0.
         -6    2    1    2    0  502 -0.49985256871E+02 -0.10015357846E+02  0.37378658080E+03  0.41462907815E+03  0.17205240818E+03 0.  0.
        -24    2    5    5    0    0 -0.97354245387E+02 -0.85293535247E+01  0.20553513312E+03  0.23976722145E+03  0.75452174040E+02 0.  0.
          5    1    3    3  501    0  0.74690982869E+02  0.44614911843E+02  0.17950733352E+03  0.19953497455E+03  0.47000000000E+01 0. -1.
        -11    1    4    4    0    0 -0.26889155961E+01 -0.52902956835E+02  0.57329376427E+02  0.78055176064E+02  0.00000000000E+00 0.  1.
         12    1    4    4    0    0 -0.22016810403E+02  0.18303402838E+02  0.87091722633E+02  0.91677274431E+02  0.00000000000E+00 0. -1.
         -5    1    5    5    0  502  0.47368988516E+02 -0.14860043215E+01  0.16825144768E+03  0.17486185670E+03  0.47000000000E+01 0.  1.
         13    1    6    6    0    0 -0.48243094597E+02 -0.11592801146E+02  0.17490436196E+03  0.18180573436E+03  0.00000000000E+00 0. -1.
        -14    1    6    6    0    0 -0.49111150790E+02  0.30634476214E+01  0.30630771162E+02  0.57961487086E+02  0.00000000000E+00 0.  1.
</event>
<event>
12    1  0.8226261E-002  0.2894170E+03  0.7818608E-02  0.1090808E+00
         21   -1    0    0  503  502  0.00000000000E+00  0.00000000000E+00  0.15028269018E+04  0.15028269018E+04  0.00000000000E+00 0.  1.
         21   -1    0    0  501  503 -0.00000000000E+00 -0.00000000000E+00 -0.66126257879E+02  0.66126257879E+02  0.00000000000E+00 0.  1.
          6    2    1    2  501    0  0.22728950589E+03 -0.45759711551E+02  0.40525574142E+03  0.49799039282E+03  0.17322743632E+03 0.  0.
         24    2    3    3    0    0  0.11519278007E+03  0.17491242101E+02  0.12729130747E+03  0.19163655227E+03  0.83343692487E+02 0.  0.
         -6    2    1    2    0  502 -0.22728950589E+03  0.45759711551E+02  0.10314449025E+04  0.10709627668E+04  0.17125475299E+03 0.  0.
        -24    2    5    5    0    0 -0.12915320320E+03  0.88705608273E+02  0.73618481654E+03  0.75683589391E+03  0.79266962630E+02 0.  0.
          5    1    3    3  501    0  0.11209672583E+03 -0.63250953652E+02  0.27796443395E+03  0.30635384055E+03  0.47000000000E+01 0. -1.
        -11    1    4    4    0    0  0.11947250345E+03 -0.28920508784E+01  0.92646802220E+02  0.15121333605E+03  0.00000000000E+00 0.  1.
         12    1    4    4    0    0 -0.42797233841E+01  0.20383292979E+02  0.34644505250E+02  0.40423216213E+02  0.00000000000E+00 0. -1.
         -5    1    5    5    0  502 -0.98136302694E+02 -0.42945896722E+02  0.29526008594E+03  0.31412687293E+03  0.47000000000E+01 0.  1.
         11    1    6    6    0    0 -0.34847978161E+02  0.28543235593E+02  0.40001874355E+03  0.40254700728E+03  0.00000000000E+00 0. -1.
        -12    1    6    6    0    0 -0.94305225037E+02  0.60162372680E+02  0.33616607299E+03  0.35428888663E+03  0.00000000000E+00 0.  1.
</event>
<event>
12    1  0.8226261E-002  0.2139602E+03  0.7818608E-02  0.1139639E+00
         21   -1    0    0  503  502  0.00000000000E+00  0.00000000000E+00  0.72148352496E+03  0.72148352496E+03  0.00000000000E+00 0. -1.
         21   -1    0    0  501  503 -0.00000000000E+00 -0.00000000000E+00 -0.64331745825E+02  0.64331745825E+02  0.00000000000E+00 0. -1.
          6    2    1    2  501    0 -0.21994397993E+02  0.12520537175E+03  0.41259545964E+03  0.46477305299E+03  0.17210124581E+03 0.  0.
         24    2    3    3    0    0  0.42234194875E+02  0.68615567996E+02  0.31476862711E+03  0.33469654783E+03  0.80316045291E+02 0.  0.
         -6    2    1    2    0  502  0.21994397993E+02 -0.12520537175E+03  0.24455631949E+03  0.32104221780E+03  0.16462130344E+03 0.  0.
        -24    2    5    5    0    0 -0.38264246452E+02 -0.10333432489E+03  0.20188888559E+03  0.24389270816E+03  0.81131964801E+02 0.  0.
          5    1    3    3  501    0 -0.64228592868E+02  0.56589803752E+02  0.97826832533E+02  0.13007650516E+03  0.47000000000E+01 0. -1.
        -13    1    4    4    0    0 -0.19521978296E+02  0.14667821255E+02  0.13388818375E+03  0.13609665082E+03  0.00000000000E+00 0.  1.
         14    1    4    4    0    0  0.61756173172E+02  0.53947746741E+02  0.18088044336E+03  0.19859989701E+03  0.00000000000E+00 0. -1.
         -5    1    5    5    0  502  0.60258644445E+02 -0.21871046859E+02  0.42667433902E+02  0.77149509634E+02  0.47000000000E+01 0.  1.
         11    1    6    6    0    0 -0.18055425582E+02 -0.11211641105E+03  0.18003680100E+03  0.21285990166E+03  0.00000000000E+00 0. -1.
        -12    1    6    6    0    0 -0.20208820870E+02  0.87820861656E+01  0.21852084591E+02  0.31032806501E+02  0.00000000000E+00 0.  1.
</event>
<event>
12    1  0.8226261E-002  0.1807990E+03  0.7818608E-02  0.1167157E+00
         21   -1    0    0  503  502  0.00000000000E+00  0.00000000000E+00  0.74411521015E+02  0.74411521015E+02  0.00000000000E+00 0.  1.
         21   -1    0    0  501  503 -0.00000000000E+00 -0.00000000000E+00 -0.47337100307E+03  0.47337100307E+03  0.00000000000E+00 0.  1.
          6    2    1    2  501    0 -0.24492624029E+02  0.46767224702E+02 -0.27404888660E+03  0.32803049895E+03  0.17237793960E+03 0.  0.
         24    2    3    3    0    0 -0.17320760754E+02  0.20012473984E+02 -0.28549310715E+03  0.29769384632E+03  0.80092471780E+02 0.  0.
         -6    2    1    2    0  502  0.24492624029E+02 -0.46767224702E+02 -0.12491059546E+03  0.21975202513E+03  0.17291973211E+03 0.  0.
        -24    2    5    5    0    0  0.30628676019E+01 -0.88691559215E+02 -0.12377399883E+03  0.17242057536E+03  0.80828696564E+02 0.  0.
          5    1    3    3  501    0 -0.71718632755E+01  0.26754750718E+02  0.11444220559E+02  0.30336652634E+02  0.47000000000E+01 0. -1.
        -11    1    4    4    0    0  0.23438922045E+02 -0.17242907526E+02 -0.94564999747E+02  0.98940588757E+02  0.00000000000E+00 0.  1.
         12    1    4    4    0    0 -0.40759682799E+02  0.37255381509E+02 -0.19092810741E+03  0.19875325756E+03  0.00000000000E+00 0. -1.
         -5    1    5    5    0  502  0.21429756428E+02  0.41924334513E+02 -0.11365966250E+01  0.47331449764E+02  0.47000000000E+01 0.  1.
         11    1    6    6    0    0 -0.35496857042E+02 -0.52443132836E+02 -0.45678151284E+02  0.78082024476E+02  0.00000000000E+00 0. -1.
        -12    1    6    6    0    0  0.38559724644E+02 -0.36248426379E+02 -0.78095847546E+02  0.94338550887E+02  0.00000000000E+00 0.  1.
</event>
<event>
12    1  0.8226261E-002  0.1855695E+03  0.7818608E-02  0.1162796E+00
         21   -1    0    0  503  502  0.00000000000E+00  0.00000000000E+00  0.60474291851E+02  0.60474291851E+02  0.00000000000E+00 0. -1.
         21   -1    0    0  501  503 -0.00000000000E+00 -0.00000000000E+00 -0.58028868796E+03  0.58028868796E+03  0.00000000000E+00 0. -1.
          6    2    1    2  501    0  0.36936516380E+02  0.53368361420E+02 -0.21009937861E+03  0.28031730268E+03  0.17384922504E+03 0.  0.
         24    2    3    3    0    0  0.45733582989E+02  0.89949924609E+02 -0.78665342553E+02  0.14352331531E+03  0.65024275224E+02 0.  0.
         -6    2    1    2    0  502 -0.36936516380E+02 -0.53368361420E+02 -0.30971501751E+03  0.36044567714E+03  0.17258390961E+03 0.  0.
        -24    2    5    5    0    0 -0.51850714156E+02 -0.57974964796E+02 -0.32144711619E+03  0.34036119981E+03  0.80423284720E+02 0.  0.
          5    1    3    3  501    0 -0.87970666098E+01 -0.36581563189E+02 -0.13143403605E+03  0.13679398736E+03  0.47000000000E+01 0. -1.
        -11    1    4    4    0    0 -0.14664344201E+02  0.22468367162E+02 -0.62018602574E+01  0.27537857296E+02  0.00000000000E+00 0.  1.
         12    1    4    4    0    0  0.60397927191E+02  0.67481557447E+02 -0.72463482296E+02  0.11598545801E+03  0.00000000000E+00 0. -1.
         -5    1    5    5    0  502  0.14914197776E+02  0.46066033758E+01  0.11732098687E+02  0.20084477329E+02  0.47000000000E+01 0.  1.
         11    1    6    6    0    0 -0.40895627107E+02 -0.29675667077E+02 -0.66015272698E+02  0.83133108701E+02  0.00000000000E+00 0. -1.
        -12    1    6    6    0    0 -0.10955087048E+02 -0.28299297719E+02 -0.25543184350E+03  0.25722809111E+03  0.00000000000E+00 0.  1.
</event>
<event>
12    1  0.8226261E-002  0.1780217E+03  0.7818608E-02  0.1169948E+00
         21   -1    0    0  503  502  0.00000000000E+00  0.00000000000E+00  0.12112983927E+04  0.12112983927E+04  0.00000000000E+00 0.  1.
         21   -1    0    0  501  503 -0.00000000000E+00 -0.00000000000E+00 -0.26315026523E+02  0.26315026523E+02  0.00000000000E+00 0.  1.
          6    2    1    2  501    0 -0.24718259236E+02 -0.39159154816E+02  0.65786265120E+03  0.68152402476E+03  0.17189327134E+03 0.  0.
         24    2    3    3    0    0 -0.12362195152E+02  0.28024416534E+02  0.52436551572E+03  0.53149109584E+03  0.81150471887E+02 0.  0.
         -6    2    1    2    0  502  0.24718259236E+02  0.39159154816E+02  0.52712071501E+03  0.55608939450E+03  0.17098167953E+03 0.  0.
        -24    2    5    5    0    0 -0.30459398673E+02 -0.29422798617E+02  0.17463101739E+03  0.19274501902E+03  0.69722120403E+02 0.  0.
          5    1    3    3  501    0 -0.12356064085E+02 -0.67183571350E+02  0.13349713548E+03  0.15003292892E+03  0.47000000000E+01 0. -1.
        -11    1    4    4    0    0 -0.26370398778E+02 -0.17420110268E+02  0.11139672918E+03  0.11579330484E+03  0.00000000000E+00 0.  1.
         12    1    4    4    0    0  0.14008203626E+02  0.45444526802E+02  0.41296878654E+03  0.41569779100E+03  0.00000000000E+00 0. -1.
         -5    1    5    5    0  502  0.55177657909E+02  0.68581953433E+02  0.35248969761E+03  0.36334437548E+03  0.47000000000E+01 0.  1.
         11    1    6    6    0    0 -0.42888353090E+02 -0.37790054967E+01  0.55439608776E+02  0.70194315543E+02  0.00000000000E+00 0. -1.
        -12    1    6    6    0    0  0.12428954417E+02 -0.25643793120E+02  0.11919140862E+03  0.12255070347E+03  0.00000000000E+00 0.  1.
</event>
<event>
12    1  0.8226261E-002  0.1924334E+03  0.7818608E-02  0.1156544E+00
         21   -1    0    0  501  502  0.00000000000E+00  0.00000000000E+00  0.36357562236E+02  0.36357562236E+02  0.00000000000E+00 0. -1.
         21   -1    0    0  502  503 -0.00000000000E+00 -0.00000000000E+00 -0.10570632633E+04  0.10570632633E+04  0.00000000000E+00 0.  1.
         -6    2    1    2    0  503 -0.22808870670E+02 -0.83790702330E+02 -0.39644621448E+03  0.44017469913E+03  0.17042018190E+03 0.  0.
        -24    2    3    3    0    0 -0.62225521225E+02 -0.61005442579E+02 -0.15671605309E+03  0.19611429537E+03  0.79417983073E+02 0.  0.
          6    2    1    2  501    0  0.22808870670E+02  0.83790702330E+02 -0.62425948659E+03  0.65324612641E+03  0.17172497984E+03 0.  0.
         24    2    5    5    0    0  0.19692222035E+01  0.11680159661E+03 -0.40076848354E+03  0.42632250813E+03  0.86539082141E+02 0.  0.
          5    1    5    5  501    0  0.20839648466E+02 -0.33010894275E+02 -0.22349100305E+03  0.22692361828E+03  0.47000000000E+01 0. -1.
        -11    1    6    6    0    0 -0.15117168301E+02  0.96545491209E+02 -0.38080642627E+03  0.39314513215E+03  0.00000000000E+00 0.  1.
         12    1    6    6    0    0  0.17086390505E+02  0.20256105397E+02 -0.19962057269E+02  0.33177375977E+02  0.00000000000E+00 0. -1.
         -5    1    3    3    0  503  0.39416650556E+02 -0.22785259751E+02 -0.23973016139E+03  0.24406040376E+03  0.47000000000E+01 0.  1.
         13    1    4    4    0    0 -0.69527227378E+02 -0.57371980351E+02 -0.16269754245E+03  0.18600018762E+03  0.00000000000E+00 0. -1.
        -14    1    4    4    0    0  0.73017061531E+01 -0.36334622281E+01  0.59814893603E+01  0.10114107745E+02  0.00000000000E+00 0.  1.
</event>
<event>
12    1  0.8226261E-002  0.2066119E+03  0.7818608E-02  0.1146071E+00
         21   -1    0    0  503  502  0.00000000000E+00  0.00000000000E+00  0.10153719297E+03  0.10153719297E+03  0.00000000000E+00 0.  1.
         21   -1    0    0  501  503 -0.00000000000E+00 -0.00000000000E+00 -0.40352724371E+03  0.40352724371E+03  0.00000000000E+00 0.  1.
          6    2    1    2  501    0  0.10106897982E+03 -0.45993029954E+02 -0.15716315371E+03  0.25274855275E+03  0.16386359129E+03 0.  0.
         24    2    3    3    0    0 -0.38831560292E+01 -0.85788290404E+00 -0.90976880413E+02  0.12063176695E+03  0.79116468345E+02 0.  0.
         -6    2    1    2    0  502 -0.10106897982E+03  0.45993029954E+02 -0.14482689703E+03  0.25231588393E+03  0.17423598278E+03 0.  0.
        -24    2    5    5    0    0  0.33059719773E-01  0.34830085120E+01 -0.77874043182E+01  0.76729332952E+02  0.76253619114E+02 0.  0.
          5    1    3    3  501    0  0.10495213585E+03 -0.45135147050E+02 -0.66186273293E+02  0.13211678580E+03  0.47000000000E+01 0. -1.
        -11    1    4    4    0    0  0.26159949424E+02  0.19196868157E+02 -0.73832247979E+02  0.80647774567E+02  0.00000000000E+00 0.  1.
         12    1    4    4    0    0 -0.30043105453E+02 -0.20054751061E+02 -0.17144632433E+02  0.39983992380E+02  0.00000000000E+00 0. -1.
         -5    1    5    5    0  502 -0.10110203954E+03  0.42510021442E+02 -0.13703949271E+03  0.17558655098E+03  0.47000000000E+01 0.  1.
         13    1    6    6    0    0 -0.49166885561E+01  0.30303980051E+02 -0.28958304920E+02  0.42202943702E+02  0.00000000000E+00 0. -1.
        -14    1    6    6    0    0  0.49497482758E+01 -0.26820971539E+02  0.21170900602E+02  0.34526389249E+02  0.00000000000E+00 0.  1.
</event>
<event>
12    1  0.8226261E-002  0.1864845E+03  0.7818608E-02  0.1161927E+00
         21   -1    0    0  501  502  0.00000000000E+00  0.00000000000E+00  0.22542483730E+03  0.22542483730E+03  0.00000000000E+00 0. -1.
         21   -1    0    0  502  503 -0.00000000000E+00 -0.00000000000E+00 -0.15432832907E+03  0.15432832907E+03  0.00000000000E+00 0. -1.
         -6    2    1    2    0  503  0.14469609915E+02 -0.63285198024E+02  0.50716029273E+02  0.19325780927E+03  0.17482013419E+03 0.  0.
        -24    2    3    3    0    0  0.53069127348E+02 -0.47325105860E+02  0.83598989580E+02  0.13989090598E+03  0.86744893769E+02 0.  0.
          6    2    1    2  501    0 -0.14469609915E+02  0.63285198024E+02  0.20380478955E+02  0.18649535711E+03  0.17363976618E+03 0.  0.
         24    2    5    5    0    0  0.66151270248E+01  0.93095922115E+02  0.56712263209E+02  0.13477172663E+03  0.78971684044E+02 0.  0.
          5    1    5    5  501    0 -0.21084736940E+02 -0.29810724091E+02 -0.36331784254E+02  0.51723630477E+02  0.47000000000E+01 0. -1.
        -13    1    6    6    0    0  0.32080668936E+02  0.26152954262E+02  0.46781996158E+02  0.62463601405E+02  0.00000000000E+00 0.  1.
         14    1    6    6    0    0 -0.25465541911E+02  0.66942967854E+02  0.99302670512E+01  0.72308125225E+02  0.00000000000E+00 0. -1.
         -5    1    3    3    0  503 -0.38599517433E+02 -0.15960092164E+02 -0.32882960307E+02  0.53366903288E+02  0.47000000000E+01 0.  1.
         11    1    4    4    0    0  0.88267557167E+01  0.14960223455E+02 -0.92265536261E+01  0.19668482252E+02  0.00000000000E+00 0. -1.
        -12    1    4    4    0    0  0.44242371631E+02 -0.62285329315E+02  0.92825543206E+02  0.12022242373E+03  0.00000000000E+00 0.  1.
</event>
<event>
12    1  0.8226261E-002  0.1759783E+03  0.7818608E-02  0.1173063E+00
         21   -1    0    0  501  502  0.00000000000E+00  0.00000000000E+00  0.35349358459E+03  0.35349358459E+03  0.00000000000E+00 0.  1.
         21   -1    0    0  502  503 -0.00000000000E+00 -0.00000000000E+00 -0.40587875027E+03  0.40587875027E+03  0.00000000000E+00 0.  1.
         -6    2    1    2    0  503 -0.14171010757E+02 -0.23299164333E+02 -0.36367275671E+03  0.40178550306E+03  0.16861212260E+03 0.  0.
        -24    2    3    3    0    0  0.12984147376E+02 -0.64511517819E+02 -0.31762118097E+03  0.33411942351E+03  0.80138945281E+02 0.  0.
          6    2    1    2  501    0  0.14171010757E+02  0.23299164333E+02  0.31128759103E+03  0.35758683180E+03  0.17385255058E+03 0.  0.
         24    2    5    5    0    0 -0.13427825146E+02 -0.26724551389E+02  0.74226493448E+02  0.11369316262E+03  0.80759239490E+02 0.  0.
          5    1    5    5  501    0  0.27598835902E+02  0.50023715722E+02  0.23706109759E+03  0.24389366918E+03  0.47000000000E+01 0. -1.
        -13    1    6    6    0    0 -0.35308864293E+02  0.19067660652E+00  0.70446965143E+02  0.78800553000E+02  0.00000000000E+00 0.  1.
         14    1    6    6    0    0  0.21881039148E+02 -0.26915227996E+02  0.37795283047E+01  0.34892609625E+02  0.00000000000E+00 0. -1.
         -5    1    3    3    0  503 -0.27155158133E+02  0.41212353487E+02 -0.46051575741E+02  0.67666079547E+02  0.47000000000E+01 0.  1.
         13    1    4    4    0    0  0.33640766229E+02 -0.12579182270E+02 -0.55509791474E+02  0.66115610325E+02  0.00000000000E+00 0. -1.
        -14    1    4    4    0    0 -0.20656618853E+02 -0.51932335549E+02 -0.26211138950E+03  0.26800381319E+03  0.00000000000E+00 0.  1.
</event>
<event>
12    1  0.8226261E-002  0.2161393E+03  0.7818608E-02  0.1137103E+00
         21   -1    0    0  501  502  0.00000000000E+00  0.00000000000E+00  0.41424652125E+03  0.41424652125E+03  0.00000000000E+00 0. -1.
         21   -1    0    0  502  503 -0.00000000000E+00 -0.00000000000E+00 -0.37218823334E+03  0.37218823334E+03  0.00000000000E+00 0. -1.
         -6    2    1    2    0  503  0.54524330621E+02 -0.11882889672E+03 -0.30776042797E+03  0.37607537006E+03  0.17211331623E+03 0.  0.
        -24    2    3    3    0    0 -0.24743966579E+02 -0.44390077852E+02 -0.77735830361E+02  0.12159942582E+03  0.78490879370E+02 0.  0.
          6    2    1    2  501    0 -0.54524330621E+02  0.11882889672E+03  0.34981871588E+03  0.41035938452E+03  0.17008374749E+03 0.  0.
         24    2    5    5    0    0 -0.86193118571E+02  0.12935110394E+03  0.24579674164E+03  0.30101456251E+03  0.77670888144E+02 0.  0.
          5    1    5    5  501    0  0.31668787949E+02 -0.10522207223E+02  0.10402197424E+03  0.10934482201E+03  0.47000000000E+01 0. -1.
        -13    1    6    6    0    0 -0.22302530113E+02 -0.73793455804E+00  0.10494876269E+02  0.24659477382E+02  0.00000000000E+00 0.  1.
         14    1    6    6    0    0 -0.63890588457E+02  0.13008903850E+03  0.23530186537E+03  0.27635508513E+03  0.00000000000E+00 0. -1.
         -5    1    3    3    0  503  0.79268297201E+02 -0.74438818869E+02 -0.23002459760E+03  0.25447594424E+03  0.47000000000E+01 0.  1.
         11    1    4    4    0    0  0.14461723024E+02 -0.24269873479E+02 -0.71769900744E+02  0.77130323767E+02  0.00000000000E+00 0. -1.
        -12    1    4    4    0    0 -0.39205689604E+02 -0.20120204373E+02 -0.59659296166E+01  0.44469102054E+02  0.00000000000E+00 0.  1.
</event>
<event>
12    1  0.8226261E-002  0.2251000E+03  0.7818608E-02  0.1130207E+00
         21   -1    0    0  503  502  0.00000000000E+00  0.00000000000E+00  0.49601160148E+03  0.49601160148E+03  0.00000000000E+00 0. -1.
         21   -1    0    0  501  503 -0.00000000000E+00 -0.00000000000E+00 -0.10481975872E+03  0.10481975872E+03  0.00000000000E+00 0.  1.
          6    2    1    2  501    0 -0.55638143583E+02  0.13407953062E+03  0.14631026922E+03  0.26847102514E+03  0.17203799844E+03 0.  0.
         24    2    3    3    0    0  0.94359161049E+01  0.13564104287E+03  0.12242944609E+03  0.19897674280E+03  0.78200037617E+02 0.  0.
         -6    2    1    2    0  502  0.55638143583E+02 -0.13407953062E+03  0.24488157354E+03  0.33236033506E+03  0.17153274820E+03 0.  0.
        -24    2    5    5    0    0  0.47054510618E+02 -0.72820210715E+02  0.24291770892E+03  0.27029319564E+03  0.80823809893E+02 0.  0.
          5    1    3    3  501    0 -0.65074059688E+02 -0.15615122439E+01  0.23880823126E+02  0.69494282340E+02  0.47000000000E+01 0. -1.
        -11    1    4    4    0    0  0.29801270604E+02  0.39699472353E+02  0.11593365332E+02  0.50976170457E+02  0.00000000000E+00 0.  1.
         12    1    4    4    0    0 -0.20365354499E+02  0.95941570513E+02  0.11083608076E+03  0.14800057234E+03  0.00000000000E+00 0. -1.
         -5    1    5    5    0  502  0.85836329649E+01 -0.61259319907E+02  0.19638646208E+01  0.62067139410E+02  0.47000000000E+01 0.  1.
         11    1    6    6    0    0 -0.53627246334E+01 -0.56307100897E+02  0.77218416380E+02  0.95717982925E+02  0.00000000000E+00 0. -1.
        -12    1    6    6    0    0  0.52417235251E+02 -0.16513109819E+02  0.16569929254E+03  0.17457521272E+03  0.00000000000E+00 0.  1.
</event>
<event>
12    1  0.8226261E-002  0.1760492E+03  0.7818608E-02  0.1171763E+00
         21   -1    0    0  501  502  0.00000000000E+00  0.00000000000E+00  0.22049929013E+03  0.22049929013E+03  0.00000000000E+00 0.  1.
         21   -1    0    0  502  503 -0.00000000000E+00 -0.00000000000E+00 -0.14427069148E+03  0.14427069148E+03  0.00000000000E+00 0.  1.
         -6    2    1    2    0  503  0.35076577422E+02  0.15098434606E+02  0.68405410107E+02  0.18887197207E+03  0.17185747784E+03 0.  0.
        -24    2    3    3    0    0  0.96462511475E+01  0.51285673711E+02 -0.12384863351E+02  0.96647376361E+02  0.80399378281E+02 0.  0.
          6    2    1    2  501    0 -0.35076577422E+02 -0.15098434606E+02  0.78231885425E+01  0.17589800954E+03  0.17152427954E+03 0.  0.
         24    2    5    5    0    0 -0.10145801251E+02 -0.88876124575E+01 -0.62026791512E+02  0.10132437059E+03  0.78977074350E+02 0.  0.
          5    1    5    5  501    0 -0.24930776171E+02 -0.62108221488E+01  0.69849980055E+02  0.74573638948E+02  0.47000000000E+01 0. -1.
        -13    1    6    6    0    0 -0.36880491990E+02 -0.12538428394E+02 -0.63690260904E+01  0.39470842015E+02  0.00000000000E+00 0.  1.
         14    1    6    6    0    0  0.26734690740E+02  0.36508159364E+01 -0.55657765422E+02  0.61853528579E+02  0.00000000000E+00 0. -1.
         -5    1    3    3    0  503  0.25430326275E+02 -0.36187239105E+02  0.80790273458E+02  0.92224595710E+02  0.47000000000E+01 0.  1.
         13    1    4    4    0    0 -0.19763772401E+02  0.44428588095E+01  0.23261668563E+02  0.30845598037E+02  0.00000000000E+00 0. -1.
        -14    1    4    4    0    0  0.29410023549E+02  0.46842814901E+02 -0.35646531914E+02  0.65801778324E+02  0.00000000000E+00 0.  1.
</event>
<event>
12    1  0.8226261E-002  0.2090441E+03  0.7818608E-02  0.1142692E+00
         21   -1    0    0  503  502  0.00000000000E+00  0.00000000000E+00  0.40234988320E+02  0.40234988320E+02  0.00000000000E+00 0. -1.
         21   -1    0    0  501  503 -0.00000000000E+00 -0.00000000000E+00 -0.13409424525E+04  0.13409424525E+04  0.00000000000E+00 0. -1.
          6    2    1    2  501    0  0.87590230228E+02 -0.74080154599E+02 -0.95926414065E+03  0.98177752458E+03  0.17475553922E+03 0.  0.
         24    2    3    3    0    0 -0.24156267337E+02 -0.31555061738E+02 -0.39816665929E+03  0.40806319075E+03  0.79997699384E+02 0.  0.
         -6    2    1    2    0  502 -0.87590230228E+02  0.74080154599E+02 -0.34144332356E+03  0.39939991628E+03  0.17255964818E+03 0.  0.
        -24    2    5    5    0    0 -0.89949028650E+02 -0.13476142982E+02 -0.20686234302E+03  0.23875808019E+03  0.77077608386E+02 0.  0.
          5    1    3    3  501    0  0.11174649757E+03 -0.42525092861E+02 -0.56109748137E+03  0.57371433383E+03  0.47000000000E+01 0. -1.
        -11    1    4    4    0    0  0.12723187286E+02  0.11733919318E+02 -0.23945892585E+02  0.29546067910E+02  0.00000000000E+00 0.  1.
         12    1    4    4    0    0 -0.36879454623E+02 -0.43288981055E+02 -0.37422076670E+03  0.37851712284E+03  0.00000000000E+00 0. -1.
         -5    1    5    5    0  502  0.23587984214E+01  0.87556297581E+02 -0.13458098054E+03  0.16064183608E+03  0.47000000000E+01 0.  1.
         11    1    6    6    0    0 -0.65171988030E+02 -0.19445923815E+02 -0.63167519974E+02  0.92820620319E+02  0.00000000000E+00 0. -1.
        -12    1    6    6    0    0 -0.24777040620E+02  0.59697808334E+01 -0.14369482304E+03  0.14593745987E+03  0.00000000000E+00 0.  1.
</event>
<event>
12    1  0.8226261E-002  0.2174095E+03  0.7818608E-02  0.1136046E+00
         21   -1    0    0  503  502  0.00000000000E+00  0.00000000000E+00  0.51954806157E+02  0.51954806157E+02  0.00000000000E+00 0.  1.
         21   -1    0    0  501  503 -0.00000000000E+00 -0.00000000000E+00 -0.11594171373E+04  0.11594171373E+04  0.00000000000E+00 0. -1.
          6    2    1    2  501    0  0.48995975674E+02  0.12353098711E+03 -0.83859109503E+03  0.86631513800E+03  0.17206505531E+03 0.  0.
         24    2    3    3    0    0  0.87761200709E+02  0.12120199882E+03 -0.56315878519E+03  0.58811877899E+03  0.79648779058E+02 0.  0.
         -6    2    1    2    0  502 -0.48995975674E+02 -0.12353098711E+03 -0.26887123608E+03  0.34505680543E+03  0.17062223469E+03 0.  0.
        -24    2    5    5    0    0 -0.39012550460E+02 -0.13835908597E+03 -0.27858346978E+03  0.32417717951E+03  0.82564388917E+02 0.  0.
          5    1    3    3  501    0 -0.38765225035E+02  0.23289882874E+01 -0.27543230984E+03  0.27819635901E+03  0.47000000000E+01 0. -1.
        -11    1    4    4    0    0  0.23865244284E+02 -0.46491980120E+01 -0.45812377840E+02  0.51864620795E+02  0.00000000000E+00 0.  1.
         12    1    4    4    0    0  0.63895956425E+02  0.12585119684E+03 -0.51734640735E+03  0.53625415820E+03  0.00000000000E+00 0. -1.
         -5    1    5    5    0  502 -0.99834252142E+01  0.14828098859E+02  0.97122337005E+01  0.20879625912E+02  0.47000000000E+01 0.  1.
         13    1    6    6    0    0  0.23643921547E+02 -0.40360912633E+02 -0.10818029486E+03  0.11786014801E+03  0.00000000000E+00 0. -1.
        -14    1    6    6    0    0 -0.62656472007E+02 -0.97998173337E+02 -0.17040317493E+03  0.20631703150E+03  0.00000000000E+00 0.  1.
</event>
<event>
12    1  0.8226261E-002  0.1926124E+03  0.7818608E-02  0.1156501E+00
         21   -1    0    0  501  502  0.00000000000E+00  0.00000000000E+00  0.35156187920E+03  0.35156187920E+03  0.00000000000E+00 0. -1.
         21   -1    0    0  502  503 -0.00000000000E+00 -0.00000000000E+00 -0.18998901349E+03  0.18998901349E+03  0.00000000000E+00 0. -1.
         -6    2    1    2    0  503  0.83665324507E+02 -0.19534763035E+02 -0.10053825848E+03  0.21727279942E+03  0.17238919472E+03 0.  0.
        -24    2    3    3    0    0  0.12177887465E+03 -0.37967899709E+02 -0.95700886726E+02  0.17440190722E+03  0.70609558869E+02 0.  0.
          6    2    1    2  501    0 -0.83665324507E+02  0.19534763035E+02  0.26211112419E+03  0.32427809328E+03  0.17050673553E+03 0.  0.
         24    2    5    5    0    0 -0.88493253943E+02 -0.28068124939E+02  0.11021642346E+03  0.16495629955E+03  0.80274810053E+02 0.  0.
          5    1    5    5  501    0  0.48279294354E+01  0.47602887974E+02  0.15189470073E+03  0.15932179373E+03  0.47000000000E+01 0. -1.
        -11    1    6    6    0    0 -0.64207319966E+02  0.10478994592E+01  0.20259978268E+02  0.67336058319E+02  0.00000000000E+00 0.  1.
         12    1    6    6    0    0 -0.24285933976E+02 -0.29116024399E+02  0.89956445192E+02  0.97620241228E+02  0.00000000000E+00 0. -1.
         -5    1    3    3    0  503 -0.38113550143E+02  0.18433136675E+02 -0.48373717564E+01  0.42870892196E+02  0.47000000000E+01 0.  1.
         11    1    4    4    0    0  0.11900640780E+03 -0.23775620652E+02 -0.58969706220E+02  0.13492676342E+03  0.00000000000E+00 0. -1.
        -12    1    4    4    0    0  0.27724668531E+01 -0.14192279057E+02 -0.36731180506E+02  0.39475143808E+02  0.00000000000E+00 0.  1.
</event>
<event>
12    1  0.8226261E-002  0.3031755E+03  0.7818608E-02  0.1083766E+00
         21   -1    0    0  501  502  0.00000000000E+00  0.00000000000E+00  0.47588307370E+03  0.47588307370E+03  0.00000000000E+00 0.  1.
         21   -1    0    0  502  503 -0.00000000000E+00 -0.00000000000E+00 -0.20364249764E+03  0.20364249764E+03  0.00000000000E+00 0.  1.
         -6    2    1    2    0  503  0.24196127036E+03  0.56431827550E+02  0.21533081985E+03  0.37186385745E+03  0.17373991767E+03 0.  0.
        -24    2    3    3    0    0  0.21282279096E+03  0.20207147449E+02  0.22795676421E+03  0.32346155481E+03  0.83433937543E+02 0.  0.
          6    2    1    2  501    0 -0.24196127036E+03 -0.56431827550E+02  0.56909756207E+02  0.30766171389E+03  0.17229974558E+03 0.  0.
         24    2    5    5    0    0 -0.21381701056E+03  0.63890443337E+01  0.67784748690E+02  0.23781247076E+03  0.78749382246E+02 0.  0.
          5    1    5    5  501    0 -0.28144259800E+02 -0.62820871883E+02 -0.10874992483E+02  0.69849243127E+02  0.47000000000E+01 0. -1.
        -11    1    6    6    0    0 -0.25805842335E+02 -0.92594235128E+01 -0.15601340546E+02  0.31544892602E+02  0.00000000000E+00 0.  1.
         12    1    6    6    0    0 -0.18801116822E+03  0.15648467846E+02  0.83386089237E+02  0.20626757816E+03  0.00000000000E+00 0. -1.
         -5    1    3    3    0  503  0.29138479401E+02  0.36224680101E+02 -0.12625944360E+02  0.48402302643E+02  0.47000000000E+01 0.  1.
         13    1    4    4    0    0  0.12860957633E+03 -0.28714526616E+02  0.13942526169E+03  0.19184460055E+03  0.00000000000E+00 0. -1.
        -14    1    4    4    0    0  0.84213214626E+02  0.48921674065E+02  0.88531502519E+02  0.13161695426E+03  0.00000000000E+00 0.  1.
</event>
<event>
12    1  0.8226261E-002  0.1759980E+03  0.7818608E-02  0.1173261E+00
         21   -1    0    0  503  502  0.00000000000E+00  0.00000000000E+00  0.10117976467E+03  0.10117976467E+03  0.00000000000E+00 0.  1.
         21   -1    0    0  501  503 -0.00000000000E+00 -0.00000000000E+00 -0.32278340053E+03  0.32278340053E+03  0.00000000000E+00 0. -1.
          6    2    1    2  501    0 -0.13616330162E+02 -0.17331313323E+02 -0.51244682984E+02  0.18330665318E+03  0.17461252159E+03 0.  0.
         24    2    3    3    0    0  0.33569913347E+02 -0.60664322060E+02 -0.19329674938E+02  0.11157835360E+03  0.85258393163E+02 0.  0.
         -6    2    1    2    0  502  0.13616330162E+02  0.17331313323E+02 -0.17035895288E+03  0.24065651201E+03  0.16854555788E+03 0.  0.
        -24    2    5    5    0    0  0.90194136266E+01 -0.31980034579E+02 -0.17042864857E+03  0.19090879316E+03  0.79348412835E+02 0.  0.
          5    1    3    3  501    0 -0.47186243509E+02  0.43333008737E+02 -0.31915008046E+02  0.71728299585E+02  0.47000000000E+01 0. -1.
        -13    1    4    4    0    0  0.15688105658E+02 -0.24536882993E+02  0.33974129622E+02  0.44748371699E+02  0.00000000000E+00 0.  1.
         14    1    4    4    0    0  0.17881807689E+02 -0.36127439067E+02 -0.53303804559E+02  0.66829981896E+02  0.00000000000E+00 0. -1.
         -5    1    5    5    0  502  0.45969165358E+01  0.49311347902E+02  0.69695694766E-01  0.49747718852E+02  0.47000000000E+01 0.  1.
         11    1    6    6    0    0 -0.19894228444E+02 -0.25232707569E+02 -0.15330096692E+03  0.15663223268E+03  0.00000000000E+00 0. -1.
        -12    1    6    6    0    0  0.28913642071E+02 -0.67473270094E+01 -0.17127681650E+02  0.34276560479E+02  0.00000000000E+00 0.  1.
</event>
<event>
12    1  0.8226261E-002  0.2021705E+03  0.7818608E-02  0.1148066E+00
         21   -1    0    0  503  502  0.00000000000E+00  0.00000000000E+00  0.27925282341E+03  0.27925282341E+03  0.00000000000E+00 0.  1.
         21   -1    0    0  501  503 -0.00000000000E+00 -0.00000000000E+00 -0.45005821769E+03  0.45005821769E+03  0.00000000000E+00 0.  1.
          6    2    1    2  501    0  0.83073569456E+02  0.63857567621E+02 -0.38515160721E+03  0.43466342957E+03  0.17208000925E+03 0.  0.
         24    2    3    3    0    0  0.63165158637E+02  0.10985583705E+03 -0.30997969127E+03  0.34419192821E+03  0.79514352462E+02 0.  0.
         -6    2    1    2    0  502 -0.83073569456E+02 -0.63857567621E+02  0.21434621293E+03  0.29464761154E+03  0.17289855147E+03 0.  0.
        -24    2    5    5    0    0 -0.29466311071E+02 -0.10607287994E+03  0.14557332668E+03  0.19765446421E+03  0.75868138470E+02 0.  0.
          5    1    3    3  501    0  0.19908410819E+02 -0.45998269428E+02 -0.75171915942E+02  0.90471501358E+02  0.47000000000E+01 0. -1.
        -11    1    4    4    0    0 -0.11443270241E+02 -0.34679169164E+01 -0.44130057074E+02  0.45721295026E+02  0.00000000000E+00 0.  1.
         12    1    4    4    0    0  0.74608428878E+02  0.11332375397E+03 -0.26584963420E+03  0.29847063319E+03  0.00000000000E+00 0. -1.
         -5    1    5    5    0  502 -0.53607258386E+02  0.42215312315E+02  0.68772886255E+02  0.96993147332E+02  0.47000000000E+01 0.  1.
         11    1    6    6    0    0  0.24623089361E+02 -0.36386148268E+02  0.34800342420E+02  0.56047409824E+02  0.00000000000E+00 0. -1.
        -12    1    6    6    0    0 -0.54089400432E+02 -0.69686731669E+02  0.11077298426E+03  0.14160705438E+03  0.00000000000E+00 0.  1.
</event>
<event>
12    1  0.8226261E-002  0.2045228E+03  0.7818608E-02  0.1146848E+00
         21   -1    0    0  501  502  0.00000000000E+00  0.00000000000E+00  0.34162704821E+03  0.34162704821E+03  0.00000000000E+00 0.  1.
         21   -1    0    0  502  503 -0.00000000000E+00 -0.00000000000E+00 -0.14379116369E+03  0.14379116369E+03  0.00000000000E+00 0.  1.
         -6    2    1    2    0  503  0.43831950546E+02  0.10201255914E+03 -0.78234909823E+00  0.20032386028E+03  0.16673702293E+03 0.  0.
        -24    2    3    3    0    0  0.64315708644E+02  0.10147931551E+03  0.43640336231E+02  0.15117781602E+03  0.80719831862E+02 0.  0.
          6    2    1    2  501    0 -0.43831950546E+02 -0.10201255914E+03  0.19861823361E+03  0.28509435162E+03  0.17176083515E+03 0.  0.
         24    2    5    5    0    0 -0.36493303292E+01  0.12076512448E+02  0.57606195836E+02  0.99251826827E+02  0.79832897762E+02 0.  0.
          5    1    5    5  501    0 -0.40182620216E+02 -0.11408907159E+03  0.14101203778E+03  0.18584252479E+03  0.47000000000E+01 0. -1.
        -11    1    6    6    0    0  0.59126137942E+01 -0.30126979508E+02  0.44451445698E+02  0.54023373838E+02  0.00000000000E+00 0.  1.
         12    1    6    6    0    0 -0.95619441233E+01  0.42203491956E+02  0.13154750137E+02  0.45228452990E+02  0.00000000000E+00 0. -1.
         -5    1    3    3    0  503 -0.20483758099E+02  0.53324363571E+00 -0.44422685330E+02  0.49146044261E+02  0.47000000000E+01 0.  1.
         11    1    4    4    0    0  0.19517727198E+02  0.71004165875E+02  0.59556293918E+02  0.94707367147E+02  0.00000000000E+00 0. -1.
        -12    1    4    4    0    0  0.44797981447E+02  0.30475149630E+02 -0.15915957687E+02  0.56470448871E+02  0.00000000000E+00 0.  1.
</event>
<event>
12    1  0.8226261E-002  0.1765415E+03  0.7818608E-02  0.1171438E+00
         21   -1    0    0  501  502  0.00000000000E+00  0.00000000000E+00  0.69845134402E+03  0.69845134402E+03  0.00000000000E+00 0. -1.
         21   -1    0    0  502  503 -0.00000000000E+00 -0.00000000000E+00 -0.22217809642E+03  0.22217809642E+03  0.00000000000E+00 0. -1.
         -6    2    1    2    0  503  0.21044857238E+02  0.32869469265E+02 -0.17378575943E+03  0.24702448983E+03  0.17116167902E+03 0.  0.
        -24    2    3    3    0    0  0.27302298599E+01 -0.10401439547E+02 -0.18210806963E+03  0.19907505842E+03  0.79698718683E+02 0.  0.
          6    2    1    2  501    0 -0.21044857238E+02 -0.32869469265E+02  0.65005900703E+03  0.67360495062E+03  0.17217325243E+03 0.  0.
         24    2    5    5    0    0 -0.10925050827E+02 -0.69105894790E+02  0.24051902303E+03  0.26231359706E+03  0.77871954730E+02 0.  0.
          5    1    5    5  501    0 -0.10119806411E+02  0.36236425525E+02  0.40953998400E+03  0.41129135356E+03  0.47000000000E+01 0. -1.
        -13    1    6    6    0    0 -0.31727727078E+02 -0.59946881503E+01  0.42059315557E+02  0.53024248949E+02  0.00000000000E+00 0.  1.
         14    1    6    6    0    0  0.20802676250E+02 -0.63111206639E+02  0.19845970747E+03  0.20928934811E+03  0.00000000000E+00 0. -1.
         -5    1    3    3    0  503  0.18314627379E+02  0.43270908812E+02  0.83223101968E+01  0.47949431409E+02  0.47000000000E+01 0.  1.
         13    1    4    4    0    0 -0.16478032752E+02  0.21888357024E+02 -0.23554654821E+02  0.36130977019E+02  0.00000000000E+00 0. -1.
        -14    1    4    4    0    0  0.19208262612E+02 -0.32289796571E+02 -0.15855341481E+03  0.16294408140E+03  0.00000000000E+00 0.  1.
</event>
<event>
12    1  0.8226261E-002  0.2412356E+03  0.7818608E-02  0.1119294E+00
         21   -1    0    0  501  502  0.00000000000E+00  0.00000000000E+00  0.33944868641E+03  0.33944868641E+03  0.00000000000E+00 0. -1.
         21   -1    0    0  502  503 -0.00000000000E+00 -0.00000000000E+00 -0.29958437850E+03  0.29958437850E+03  0.00000000000E+00 0. -1.
         -6    2    1    2    0  503  0.11598725049E+03 -0.12344061870E+03 -0.19010889833E+03  0.30714166320E+03  0.17176722454E+03 0.  0.
        -24    2    3    3    0    0  0.84760147735E+02 -0.13056990585E+03 -0.80548031120E+02  0.19289792242E+03  0.80553337607E+02 0.  0.
          6    2    1    2  501    0 -0.11598725049E+03  0.12344061870E+03  0.22997320625E+03  0.33189140171E+03  0.16903726901E+03 0.  0.
         24    2    5    5    0    0  0.56455373543E+01  0.35312937084E+02  0.81748363761E+02  0.12081388685E+03  0.81451363779E+02 0.  0.
          5    1    5    5  501    0 -0.12163278785E+03  0.88127681618E+02  0.14822484249E+03  0.21107751486E+03  0.47000000000E+01 0. -1.
        -13    1    6    6    0    0  0.60286950839E+00  0.61771043112E+02  0.60983879383E+02  0.86804716251E+02  0.00000000000E+00 0.  1.
         14    1    6    6    0    0  0.50426678459E+01 -0.26458106028E+02  0.20764484378E+02  0.34009170602E+02  0.00000000000E+00 0. -1.
         -5    1    3    3    0  503  0.31227102760E+02  0.71292871508E+01 -0.10956086721E+03  0.11424374078E+03  0.47000000000E+01 0.  1.
         13    1    4    4    0    0  0.83307803694E+02 -0.66726852992E+02 -0.71328944273E+02  0.12837632709E+03  0.00000000000E+00 0. -1.
        -14    1    4    4    0    0  0.14523440402E+01 -0.63843052861E+02 -0.92190868473E+01  0.64521595332E+02  0.00000000000E+00 0.  1.
</event>
<event>
12    1  0.8226261E-002  0.2697111E+03  0.7818608E-02  0.1101467E+00
         21   -1    0    0  501  502  0.00000000000E+00  0.00000000000E+00  0.38698728465E+03  0.38698728465E+03  0.00000000000E+00 0. -1.
         21   -1    0    0  502  503 -0.00000000000E+00 -0.00000000000E+00 -0.21140724215E+03  0.21140724215E+03  0.00000000000E+00 0. -1.
         -6    2    1    2    0  503  0.19778772568E+03 -0.62157552424E+02 -0.12022611426E+02  0.26997894523E+03  0.17251243993E+03 0.  0.
        -24    2    3    3    0    0  0.22229119633E+03 -0.50186518442E+02 -0.17046224065E+02  0.24185329124E+03  0.79185719212E+02 0.  0.
          6    2    1    2  501    0 -0.19778772568E+03  0.62157552424E+02  0.18760265393E+03  0.32841558156E+03  0.17227446909E+03 0.  0.
         24    2    5    5    0    0 -0.17524096631E+03  0.10531723625E+03  0.16300912448E+03  0.27366116296E+03  0.80730049684E+02 0.  0.
          5    1    5    5  501    0 -0.22546759367E+02 -0.43159683828E+02  0.24593529446E+02  0.54754418605E+02  0.47000000000E+01 0. -1.
        -11    1    6    6    0    0 -0.12238448832E+03  0.68831469398E+02  0.15466565195E+03  0.20889518437E+03  0.00000000000E+00 0.  1.
         12    1    6    6    0    0 -0.52856477994E+02  0.36485766853E+02  0.83434725357E+01  0.64765978590E+02  0.00000000000E+00 0. -1.
         -5    1    3    3    0  503 -0.24503470655E+02 -0.11971033981E+02  0.50236126390E+01  0.28125653996E+02  0.47000000000E+01 0.  1.
         13    1    4    4    0    0  0.12333358467E+03 -0.66914507750E+02 -0.17111772824E+01  0.14032694889E+03  0.00000000000E+00 0. -1.
        -14    1    4    4    0    0  0.98957611658E+02  0.16727989307E+02 -0.15335046783E+02  0.10152634235E+03  0.00000000000E+00 0.  1.
</event>
<event>
12    1  0.8226261E-002  0.1784899E+03  0.7818608E-02  0.1169313E+00
         21   -1    0    0  503  502  0.00000000000E+00  0.00000000000E+00  0.12472434390E+04  0.12472434390E+04  0.00000000000E+00 0.  1.
         21   -1    0    0  501  503 -0.00000000000E+00 -0.00000000000E+00 -0.39234586495E+02  0.39234586495E+02  0.00000000000E+00 0.  1.
          6    2    1    2  501    0  0.91865963361E+01  0.44819437051E+02  0.98449324528E+03  0.10005426455E+04  0.17252669352E+03 0.  0.
         24    2    3    3    0    0  0.45026868148E+02  0.53729473253E+02  0.92040641810E+03  0.92642702470E+03  0.78770441589E+02 0.  0.
         -6    2    1    2    0  502 -0.91865963361E+01 -0.44819437051E+02  0.22351560726E+03  0.28593538002E+03  0.17235614109E+03 0.  0.
        -24    2    5    5    0    0 -0.68268802836E+02 -0.17431817221E+01  0.11677310347E+03  0.15646598977E+03  0.78625569236E+02 0.  0.
          5    1    3    3  501    0 -0.35840271812E+02 -0.89100362022E+01  0.64086827187E+02  0.74115620806E+02  0.47000000000E+01 0. -1.
        -13    1    4    4    0    0  0.44537164852E+02 -0.66175424924E+01  0.41028754087E+03  0.41275079300E+03  0.00000000000E+00 0.  1.
         14    1    4    4    0    0  0.48970329583E+00  0.60347015746E+02  0.51011887722E+03  0.51367623170E+03  0.00000000000E+00 0. -1.
         -5    1    5    5    0  502  0.59082206500E+02 -0.43076255329E+02  0.10674250379E+03  0.12946939026E+03  0.47000000000E+01 0.  1.
         13    1    6    6    0    0 -0.28557127917E+02  0.27786208466E+02  0.93788799767E+02  0.10190153040E+03  0.00000000000E+00 0. -1.
        -14    1    6    6    0    0 -0.39711674918E+02 -0.29529390189E+02  0.22984303700E+02  0.54564459370E+02  0.00000000000E+00 0.  1.
</event>
<event>
12    1  0.8226261E-002  0.3302552E+03  0.7818608E-02  0.1071131E+00
         21   -1    0    0  503  502  0.00000000000E+00  0.00000000000E+00  0.38715228728E+03  0.38715228728E+03  0.00000000000E+00 0. -1.
         21   -1    0    0  501  503 -0.00000000000E+00 -0.00000000000E+00 -0.28148638006E+03  0.28148638006E+03  0.00000000000E+00 0.  1.
          6    2    1    2  501    0 -0.56135505046E+02  0.27538526911E+03  0.37614627548E+02  0.33239033484E+03  0.17343653916E+03 0.  0.
         24    2    3    3    0    0 -0.31366925179E+02  0.23766129226E+03 -0.26485319124E+02  0.25385706710E+03  0.79215936227E+02 0.  0.
         -6    2    1    2    0  502  0.56135505046E+02 -0.27538526911E+03  0.68051279680E+02  0.33624833251E+03  0.17159173371E+03 0.  0.
        -24    2    5    5    0    0  0.62871440799E+02 -0.15002481193E+03 -0.18092504803E+02  0.18392151720E+03  0.83901868267E+02 0.  0.
          5    1    3    3  501    0 -0.24768579867E+02  0.37723976845E+02  0.64099946672E+02  0.78533267734E+02  0.47000000000E+01 0. -1.
        -11    1    4    4    0    0  0.26784924296E+02  0.84002255435E+02 -0.83001187130E+01  0.88559037135E+02  0.00000000000E+00 0.  1.
         12    1    4    4    0    0 -0.58151849475E+02  0.15365903683E+03 -0.18185200411E+02  0.16529802997E+03  0.00000000000E+00 0. -1.
         -5    1    5    5    0  502 -0.67359357533E+01 -0.12536045718E+03  0.86143784483E+02  0.15232681530E+03  0.47000000000E+01 0.  1.
         13    1    6    6    0    0  0.97773340781E+01 -0.17459146790E+02  0.27506593468E+02  0.34015154748E+02  0.00000000000E+00 0. -1.
        -14    1    6    6    0    0  0.53094106721E+02 -0.13256566514E+03 -0.45599098271E+02  0.14990636246E+03  0.00000000000E+00 0.  1.
</event>
<event>
12    1  0.8226261E-002  0.1929624E+03  0.7818608E-02  0.1155845E+00
         21   -1    0    0  501  502  0.00000000000E+00  0.00000000000E+00  0.20094753449E+03  0.20094753449E+03  0.00000000000E+00 0.  1.
         21   -1    0    0  502  503 -0.00000000000E+00 -0.00000000000E+00 -0.21566707283E+03  0.21566707283E+03  0.00000000000E+00 0. -1.
         -6    2    1    2    0  503  0.21657067966E+02 -0.84465628123E+02 -0.85692280057E+02  0.21113417552E+03  0.17213658032E+03 0.  0.
        -24    2    3    3    0    0 -0.48348655011E+02 -0.38512433709E+02 -0.77387628452E+02  0.12685158796E+03  0.79257052306E+02 0.  0.
          6    2    1    2  501    0 -0.21657067966E+02  0.84465628123E+02  0.70972741715E+02  0.20548043180E+03  0.17199304305E+03 0.  0.
         24    2    5    5    0    0  0.29043802105E+02  0.31222084689E+02  0.92329169674E+02  0.12877554174E+03  0.78994326160E+02 0.  0.
          5    1    5    5  501    0 -0.50700870071E+02  0.53243543434E+02 -0.21356427959E+02  0.76704890056E+02  0.47000000000E+01 0. -1.
        -13    1    6    6    0    0 -0.14813212187E+02  0.37154821244E+02  0.66302264368E+02  0.77433211591E+02  0.00000000000E+00 0.  1.
         14    1    6    6    0    0  0.43857014292E+02 -0.59327365546E+01  0.26026905305E+02  0.51342330152E+02  0.00000000000E+00 0. -1.
         -5    1    3    3    0  503  0.70005722977E+02 -0.45953194415E+02 -0.83046516049E+01  0.84282587554E+02  0.47000000000E+01 0.  1.
         13    1    4    4    0    0 -0.66566998992E+02 -0.45893728929E+02 -0.62308893126E+02  0.10207741118E+03  0.00000000000E+00 0. -1.
        -14    1    4    4    0    0  0.18218343981E+02  0.73812952200E+01 -0.15078735326E+02  0.24774176789E+02  0.00000000000E+00 0.  1.
</event>
<event>
12    1  0.8226261E-002  0.3167220E+03  0.7818608E-02  0.1077222E+00
         21   -1    0    0  501  502  0.00000000000E+00  0.00000000000E+00  0.87281484543E+02  0.87281484543E+02  0.00000000000E+00 0.  1.
         21   -1    0    0  502  503 -0.00000000000E+00 -0.00000000000E+00 -0.18261553072E+04  0.18261553072E+04  0.00000000000E+00 0. -1.
         -6    2    1    2    0  503 -0.12203041489E+02  0.26548531224E+03 -0.14530088244E+04  0.14871272598E+04  0.17228313322E+03 0.  0.
        -24    2    3    3    0    0  0.21216059542E+02  0.20553276801E+03 -0.13092204254E+04  0.13277273302E+04  0.78153063191E+02 0.  0.
          6    2    1    2  501    0  0.12203041489E+02 -0.26548531224E+03 -0.28586499824E+03  0.42630953187E+03  0.17143411127E+03 0.  0.
         24    2    5    5    0    0  0.11459617607E+02 -0.28077107701E+03 -0.24124891641E+03  0.37890813905E+03  0.80041349577E+02 0.  0.
          5    1    5    5  501    0  0.74342388246E+00  0.15285764776E+02 -0.44616081823E+02  0.47401392818E+02  0.47000000000E+01 0. -1.
        -11    1    6    6    0    0 -0.19879108496E+02 -0.68272158992E+02 -0.28567764710E+02  0.76631480662E+02  0.00000000000E+00 0.  1.
         12    1    6    6    0    0  0.31338726103E+02 -0.21249891802E+03 -0.21268115170E+03  0.30227665839E+03  0.00000000000E+00 0. -1.
         -5    1    3    3    0  503 -0.33419101031E+02  0.59952544233E+02 -0.14378839900E+03  0.15939992961E+03  0.47000000000E+01 0.  1.
         13    1    4    4    0    0 -0.25693154123E+02  0.69473868320E+02 -0.34831215394E+03  0.35610126809E+03  0.00000000000E+00 0. -1.
        -14    1    4    4    0    0  0.46909213665E+02  0.13605889969E+03 -0.96090827143E+03  0.97162606213E+03  0.00000000000E+00 0.  1.
</event>
<event>
12    1  0.8226261E-002  0.1847597E+03  0.7818608E-02  0.1163940E+00
         21   -1    0    0  501  502  0.00000000000E+00  0.00000000000E+00  0.61146198438E+03  0.61146198438E+03  0.00000000000E+00 0. -1.
         21   -1    0    0  502  503 -0.00000000000E+00 -0.00000000000E+00 -0.61591954056E+02  0.61591954056E+02  0.00000000000E+00 0. -1.
         -6    2    1    2    0  503  0.29719498442E+02  0.55891611853E+02  0.16276794008E+03  0.24412017902E+03  0.17057004023E+03 0.  0.
        -24    2    3    3    0    0  0.36176926551E+02  0.98688908948E+02  0.14883426451E+03  0.19840864512E+03  0.78524400048E+02 0.  0.
          6    2    1    2  501    0 -0.29719498442E+02 -0.55891611853E+02  0.38710209024E+03  0.42893375942E+03  0.17357713223E+03 0.  0.
         24    2    5    5    0    0 -0.43257316786E+02 -0.53851567593E+02  0.39732726984E+03  0.41121149647E+03  0.80341450574E+02 0.  0.
          5    1    5    5  501    0  0.13537818344E+02 -0.20400442602E+01 -0.10225179601E+02  0.17722262947E+02  0.47000000000E+01 0. -1.
        -13    1    6    6    0    0  0.11183780168E+02 -0.75705265788E+00  0.63001198418E+01  0.12858521595E+02  0.00000000000E+00 0.  1.
         14    1    6    6    0    0 -0.54441096954E+02 -0.53094514935E+02  0.39102715000E+03  0.39835297488E+03  0.00000000000E+00 0. -1.
         -5    1    3    3    0  503 -0.64574281095E+01 -0.42797297095E+02  0.13933675574E+02  0.45711533899E+02  0.47000000000E+01 0.  1.
         13    1    4    4    0    0 -0.21713495908E+02  0.84175507336E+01  0.34777866767E+02  0.41854881218E+02  0.00000000000E+00 0. -1.
        -14    1    4    4    0    0  0.57890422459E+02  0.90271358214E+02  0.11405639774E+03  0.15655376390E+03  0.00000000000E+00 0.  1.
</event>
<event>
12    1  0.8226261E-002  0.2012906E+03  0.7818608E-02  0.1149296E+00
         21   -1    0    0  501  502  0.00000000000E+00  0.00000000000E+00  0.90128274522E+03  0.90128274522E+03  0.00000000000E+00 0. -1.
         21   -1    0    0  502  503 -0.00000000000E+00 -0.00000000000E+00 -0.46744188043E+02  0.46744188043E+02  0.00000000000E+00 0. -1.
         -6    2    1    2    0  503 -0.64951230862E+02  0.76963349708E+02  0.32150067403E+03  0.37931593113E+03  0.17428675399E+03 0.  0.
        -24    2    3    3    0    0 -0.86132510105E+02  0.74222723379E+02  0.32822328332E+03  0.35643709596E+03  0.79931581390E+02 0.  0.
          6    2    1    2  501    0  0.64951230862E+02 -0.76963349708E+02  0.53303788315E+03  0.56871100214E+03  0.17076533457E+03 0.  0.
         24    2    5    5    0    0  0.37749967975E+02  0.10379959374E+02  0.38022984924E+03  0.39055054757E+03  0.80138556991E+02 0.  0.
          5    1    5    5  501    0  0.27201262887E+02 -0.87343309082E+02  0.15280803391E+03  0.17816045457E+03  0.47000000000E+01 0. -1.
        -13    1    6    6    0    0 -0.21458315939E+02 -0.13493786326E+02  0.10685646120E+03  0.10982187802E+03  0.00000000000E+00 0.  1.
         14    1    6    6    0    0  0.59208283914E+02  0.23873745700E+02  0.27337338804E+03  0.28072866955E+03  0.00000000000E+00 0. -1.
         -5    1    3    3    0  503  0.21181279244E+02  0.27406263289E+01 -0.67226092841E+01  0.22878835168E+02  0.47000000000E+01 0.  1.
         11    1    4    4    0    0 -0.68576613624E+02  0.63878014471E+02  0.32165140649E+03  0.33502653622E+03  0.00000000000E+00 0. -1.
        -12    1    4    4    0    0 -0.17555896481E+02  0.10344708908E+02  0.65718768222E+01  0.21410559746E+02  0.00000000000E+00 0.  1.
</event>
<event>
12    1  0.8226261E-002  0.1780336E+03  0.7818608E-02  0.1170256E+00
         21   -1    0    0  501  502  0.00000000000E+00  0.00000000000E+00  0.39457855881E+03  0.39457855881E+03  0.00000000000E+00 0. -1.
         21   -1    0    0  502  503 -0.00000000000E+00 -0.00000000000E+00 -0.16422228105E+03  0.16422228105E+03  0.00000000000E+00 0. -1.
         -6    2    1    2    0  503 -0.27645754064E+02 -0.21685666126E+02 -0.85336640468E+02  0.19742927115E+03  0.17453200013E+03 0.  0.
        -24    2    3    3    0    0 -0.33563366428E+02 -0.67238833298E+00 -0.12466728150E+03  0.15220134501E+03  0.80600041395E+02 0.  0.
          6    2    1    2  501    0  0.27645754064E+02  0.21685666126E+02  0.31569291823E+03  0.36137156871E+03  0.17231609390E+03 0.  0.
         24    2    5    5    0    0  0.46561448079E+02 -0.43700407428E+02  0.15094654295E+03  0.18305555635E+03  0.81527810141E+02 0.  0.
          5    1    5    5  501    0 -0.18915694014E+02  0.65386073554E+02  0.16474637528E+03  0.17831601236E+03  0.47000000000E+01 0. -1.
        -11    1    6    6    0    0  0.19513903226E+02 -0.30115436984E+02  0.14840455134E+03  0.15268150779E+03  0.00000000000E+00 0.  1.
         12    1    6    6    0    0  0.27047544853E+02 -0.13584970445E+02  0.25419916106E+01  0.30374048560E+02  0.00000000000E+00 0. -1.
         -5    1    3    3    0  503  0.59176123640E+01 -0.21013277793E+02  0.39330641031E+02  0.45227926148E+02  0.47000000000E+01 0.  1.
         11    1    4    4    0    0  0.43297879019E+01 -0.33348631913E+02 -0.29732681276E+02  0.44887756121E+02  0.00000000000E+00 0. -1.
        -12    1    4    4    0    0 -0.37893154330E+02  0.32676243580E+02 -0.94934600224E+02  0.10731358888E+03  0.00000000000E+00 0.  1.
</event>
<event>
12    1  0.8226261E-002  0.1750465E+03  0.7818608E-02  0.1172968E+00
         21   -1    0    0  501  502  0.00000000000E+00  0.00000000000E+00  0.45406519210E+03  0.45406519210E+03  0.00000000000E+00 0.  1.
         21   -1    0    0  502  503 -0.00000000000E+00 -0.00000000000E+00 -0.78234624433E+02  0.78234624433E+02  0.00000000000E+00 0.  1.
         -6    2    1    2    0  503  0.95892040881E+00 -0.32872842389E+02  0.28802916139E+03  0.33646735476E+03  0.17078623982E+03 0.  0.
        -24    2    3    3    0    0  0.57839141150E+02 -0.45651257646E+02  0.22925990712E+03  0.25355437233E+03  0.79374499303E+02 0.  0.
          6    2    1    2  501    0 -0.95892040881E+00  0.32872842389E+02  0.87801406274E+02  0.19583246177E+03  0.17192941239E+03 0.  0.
         24    2    5    5    0    0  0.66546953511E+02  0.22097665801E+02  0.51329276647E+02  0.11820866591E+03  0.80136073029E+02 0.  0.
          5    1    5    5  501    0 -0.67505873920E+02  0.10775176588E+02  0.36472129627E+02  0.77623795860E+02  0.47000000000E+01 0. -1.
        -11    1    6    6    0    0  0.25598251690E+02  0.42089366460E+02  0.53324528560E+02  0.72596767178E+02  0.00000000000E+00 0.  1.
         12    1    6    6    0    0  0.40948701822E+02 -0.19991700659E+02 -0.19952519127E+01  0.45611898736E+02  0.00000000000E+00 0. -1.
         -5    1    3    3    0  503 -0.56880220741E+02  0.12778415258E+02  0.58769254268E+02  0.82912982429E+02  0.47000000000E+01 0.  1.
         11    1    4    4    0    0  0.20526239947E+02  0.15828155019E+02  0.11987912819E+03  0.12264934730E+03  0.00000000000E+00 0. -1.
        -12    1    4    4    0    0  0.37312901202E+02 -0.61479412665E+02  0.10938077893E+03  0.13090502503E+03  0.00000000000E+00 0.  1.
</event>
<event>
12    1  0.8226261E-002  0.2198685E+03  0.7818608E-02  0.1134149E+00
         21   -1    0    0  503  502  0.00000000000E+00  0.00000000000E+00  0.16036231845E+03  0.16036231845E+03  0.00000000000E+00 0.  1.
         21   -1    0    0  501  503 -0.00000000000E+00 -0.00000000000E+00 -0.31387138613E+03  0.31387138613E+03  0.00000000000E+00 0.  1.
          6    2    1    2  501    0  0.11739529855E+03  0.68123999265E+02 -0.12634474307E+03  0.25358456576E+03  0.17297283745E+03 0.  0.
         24    2    3    3    0    0  0.10941402976E+03  0.27449641840E+02 -0.15050604067E+03  0.20537707355E+03  0.82478853764E+02 0.  0.
         -6    2    1    2    0  502 -0.11739529855E+03 -0.68123999265E+02 -0.27164324610E+02  0.22064913881E+03  0.17183016769E+03 0.  0.
        -24    2    5    5    0    0 -0.20005472577E+02 -0.34889205931E+02  0.38184534618E+02  0.98657773980E+02  0.81595478179E+02 0.  0.
          5    1    3    3  501    0  0.79812687867E+01  0.40674357424E+02  0.24161297599E+02  0.48207492208E+02  0.47000000000E+01 0. -1.
        -13    1    4    4    0    0  0.11242893647E+03  0.31253314790E+02 -0.97258251467E+02  0.15190853472E+03  0.00000000000E+00 0.  1.
         14    1    4    4    0    0 -0.30149067120E+01 -0.38036729497E+01 -0.53247789201E+02  0.53468538836E+02  0.00000000000E+00 0. -1.
         -5    1    5    5    0  502 -0.97389825970E+02 -0.33234793334E+02 -0.65348859228E+02  0.12199136483E+03  0.47000000000E+01 0.  1.
         11    1    6    6    0    0  0.29175967557E+02  0.23432878730E+01  0.11496746517E+02  0.31446832295E+02  0.00000000000E+00 0. -1.
        -12    1    6    6    0    0 -0.49181440134E+02 -0.37232493804E+02  0.26687788100E+02  0.67210941685E+02  0.00000000000E+00 0.  1.
</event>
<event>
12    1  0.8226261E-002  0.1912323E+03  0.7818608E-02  0.1157391E+00
         21   -1    0    0  501  502  0.00000000000E+00  0.00000000000E+00  0.20345950579E+03  0.20345950579E+03  0.00000000000E+00 0.  1.
         21   -1    0    0  502  503 -0.00000000000E+00 -0.00000000000E+00 -0.23328233780E+03  0.23328233780E+03  0.00000000000E+00 0. -1.
         -6    2    1    2    0  503  0.23144108350E+02  0.81059156571E+02 -0.11968256845E+03  0.22559631795E+03  0.17164948257E+03 0.  0.
        -24    2    3    3    0    0 -0.51697557029E+02  0.43444758103E+02 -0.75922672973E+02  0.13097530389E+03  0.82644985018E+02 0.  0.
          6    2    1    2  501    0 -0.23144108350E+02 -0.81059156571E+02  0.89859736439E+02  0.21114552564E+03  0.17146843485E+03 0.  0.
         24    2    5    5    0    0  0.40445866572E+01  0.23184847016E+02  0.40592603784E+02  0.92590147106E+02  0.79820298463E+02 0.  0.
          5    1    5    5  501    0 -0.27188695007E+02 -0.10424400359E+03  0.49267132655E+02  0.11855537854E+03  0.47000000000E+01 0. -1.
        -11    1    6    6    0    0 -0.33402925734E+01 -0.32570039505E+01  0.59226446609E+02  0.59409911691E+02  0.00000000000E+00 0.  1.
         12    1    6    6    0    0  0.73848792306E+01  0.26441850967E+02 -0.18633842825E+02  0.33180235415E+02  0.00000000000E+00 0. -1.
         -5    1    3    3    0  503  0.74841665379E+02  0.37614398468E+02 -0.43759895481E+02  0.94621014058E+02  0.47000000000E+01 0.  1.
         11    1    4    4    0    0 -0.15938530151E+02 -0.23900399907E+02 -0.31902922734E+02  0.42930901901E+02  0.00000000000E+00 0. -1.
        -12    1    4    4    0    0 -0.35759026879E+02  0.67345158010E+02 -0.44019750239E+02  0.88044401990E+02  0.00000000000E+00 0.  1.
</event>
<event>
12    1  0.8226261E-002  0.2420075E+03  0.7818608E-02  0.1118529E+00
         21   -1    0    0  503  502  0.00000000000E+00  0.00000000000E+00  0.15777699545E+03  0.15777699545E+03  0.00000000000E+00 0. -1.
         21   -1    0    0  501  503 -0.00000000000E+00 -0.00000000000E+00 -0.37182332451E+03  0.37182332451E+03  0.00000000000E+00 0.  1.
          6    2    1    2  501    0  0.16605056270E+03  0.36862277227E+02 -0.91823015933E+02  0.25884188080E+03  0.17215120140E+03 0.  0.
         24    2    3    3    0    0  0.17817404267E+03 -0.31854422495E+01 -0.94044456794E+02  0.21667763764E+03  0.79678744191E+02 0.  0.
         -6    2    1    2    0  502 -0.16605056270E+03 -0.36862277227E+02 -0.12222331313E+03  0.27075843916E+03  0.17158081842E+03 0.  0.
        -24    2    5    5    0    0 -0.81696441552E+02 -0.54876771379E+02 -0.84095309698E+01  0.12787454656E+03  0.81212134856E+02 0.  0.
          5    1    3    3  501    0 -0.12123479968E+02  0.40047719476E+02  0.22214408606E+01  0.42164243160E+02  0.47000000000E+01 0. -1.
        -11    1    4    4    0    0  0.94183169303E+02  0.34450135736E+02 -0.67508199733E+02  0.12089101813E+03  0.00000000000E+00 0.  1.
         12    1    4    4    0    0  0.83990873364E+02 -0.37635577986E+02 -0.26536257061E+02  0.95786619512E+02  0.00000000000E+00 0. -1.
         -5    1    5    5    0  502 -0.84354121147E+02  0.18014494152E+02 -0.11381378216E+03  0.14288389260E+03  0.47000000000E+01 0.  1.
         13    1    6    6    0    0 -0.13398854772E+02 -0.10394356874E+02  0.32514742149E+02  0.36671247880E+02  0.00000000000E+00 0. -1.
        -14    1    6    6    0    0 -0.68297586780E+02 -0.44482414505E+02 -0.40924273119E+02  0.91203298682E+02  0.00000000000E+00 0.  1.
</event>
<event>
12    1  0.8226261E-002  0.3039056E+03  0.7818608E-02  0.1083361E+00
         21   -1    0    0  503  502  0.00000000000E+00  0.00000000000E+00  0.59322514209E+03  0.59322514209E+03  0.00000000000E+00 0. -1.
         21   -1    0    0  501  503 -0.00000000000E+00 -0.00000000000E+00 -0.27864476484E+03  0.27864476484E+03  0.00000000000E+00 0. -1.
          6    2    1    2  501    0 -0.12478437578E+02  0.24966778602E+03 -0.13250309126E+03  0.33153531056E+03  0.17282615015E+03 0.  0.
         24    2    3    3    0    0  0.30894119574E+02  0.15905812903E+03 -0.14294820675E+03  0.23042903434E+03  0.80058822240E+02 0.  0.
         -6    2    1    2    0  502  0.12478437578E+02 -0.24966778602E+03  0.44708346850E+03  0.54033459637E+03  0.17201201541E+03 0.  0.
        -24    2    5    5    0    0  0.31823871026E+02 -0.96697315774E+02  0.11104834579E+03  0.17058345809E+03  0.80024067795E+02 0.  0.
          5    1    3    3  501    0 -0.43372557152E+02  0.90609656993E+02  0.10445115491E+02  0.10110627622E+03  0.47000000000E+01 0. -1.
        -11    1    4    4    0    0  0.55866612786E+02  0.13441570888E+03 -0.11238317620E+03  0.18389844890E+03  0.00000000000E+00 0.  1.
         12    1    4    4    0    0 -0.24972493211E+02  0.24642420151E+02 -0.30565030553E+02  0.46530585434E+02  0.00000000000E+00 0. -1.
         -5    1    5    5    0  502 -0.19345433449E+02 -0.15297047025E+03  0.33603512271E+03  0.36975113828E+03  0.47000000000E+01 0.  1.
         13    1    6    6    0    0  0.46296204564E+02 -0.10325787676E+03  0.92477956204E+02  0.14614273863E+03  0.00000000000E+00 0. -1.
        -14    1    6    6    0    0 -0.14472333538E+02  0.65605609857E+01  0.18570389587E+02  0.24440719463E+02  0.00000000000E+00 0.  1.
</event>
<event>
12    1  0.8226261E-002  0.2288621E+03  0.7818608E-02  0.1128025E+00
         21   -1    0    0  501  502  0.00000000000E+00  0.00000000000E+00  0.46187176004E+03  0.46187176004E+03  0.00000000000E+00 0. -1.
         21   -1    0    0  502  503 -0.00000000000E+00 -0.00000000000E+00 -0.38292654215E+03  0.38292654215E+03  0.00000000000E+00 0.  1.
         -6    2    1    2    0  503 -0.14143451054E+03 -0.36719984022E+02 -0.31587326291E+03  0.39006892039E+03  0.17614132517E+03 0.  0.
        -24    2    3    3    0    0 -0.10246503100E+02 -0.19413950934E+01 -0.18429568146E+03  0.20098006962E+03  0.79494215759E+02 0.  0.
          6    2    1    2  501    0  0.14143451054E+03  0.36719984022E+02  0.39481848080E+03  0.45472938181E+03  0.17188688113E+03 0.  0.
         24    2    5    5    0    0  0.20684183116E+02  0.40793257604E+02  0.99764611793E+02  0.13586246797E+03  0.80085623793E+02 0.  0.
          5    1    5    5  501    0  0.12075032742E+03 -0.40732735817E+01  0.29505386900E+03  0.31886691384E+03  0.47000000000E+01 0. -1.
        -11    1    6    6    0    0 -0.57255554496E+01  0.43679463680E+01  0.89403263154E+02  0.89692833622E+02  0.00000000000E+00 0.  1.
         12    1    6    6    0    0  0.26409738566E+02  0.36425311236E+02  0.10361348639E+02  0.46169634343E+02  0.00000000000E+00 0. -1.
         -5    1    3    3    0  503 -0.13118800744E+03 -0.34778588928E+02 -0.13157758145E+03  0.18908885076E+03  0.47000000000E+01 0.  1.
         11    1    4    4    0    0  0.66615833072E+00  0.35530064729E+02 -0.51518728264E+02  0.62586009846E+02  0.00000000000E+00 0. -1.
        -12    1    4    4    0    0 -0.10912661431E+02 -0.37471459822E+02 -0.13277695320E+03  0.13839405978E+03  0.00000000000E+00 0.  1.
</event>
<event>
12    1  0.8226261E-002  0.1896392E+03  0.7818608E-02  0.1158943E+00
         21   -1    0    0  501  502  0.00000000000E+00  0.00000000000E+00  0.18208914068E+03  0.18208914068E+03  0.00000000000E+00 0.  1.
         21   -1    0    0  502  503 -0.00000000000E+00 -0.00000000000E+00 -0.24149701384E+03  0.24149701384E+03  0.00000000000E+00 0.  1.
         -6    2    1    2    0  503 -0.80139227067E+02 -0.18328631083E+02 -0.12078772518E+03  0.22426104151E+03  0.17013261225E+03 0.  0.
        -24    2    3    3    0    0 -0.15565835201E+02  0.37907386119E+02 -0.18421408424E+02  0.90720166214E+02  0.78813292798E+02 0.  0.
          6    2    1    2  501    0  0.80139227067E+02  0.18328631083E+02  0.61379852017E+02  0.19932511302E+03  0.17089406079E+03 0.  0.
         24    2    5    5    0    0  0.88412189930E+02 -0.35522660806E+02  0.74782345109E+02  0.14302129100E+03  0.76053374547E+02 0.  0.
          5    1    5    5  501    0 -0.82729628629E+01  0.53851291888E+02 -0.13402493092E+02  0.56303822017E+02  0.47000000000E+01 0. -1.
        -11    1    6    6    0    0  0.74279010654E+02 -0.58622012420E+02  0.54600311438E+02  0.10924790970E+03  0.00000000000E+00 0.  1.
         12    1    6    6    0    0  0.14133179277E+02  0.23099351615E+02  0.20182033672E+02  0.33773381303E+02  0.00000000000E+00 0. -1.
         -5    1    3    3    0  503 -0.64573391866E+02 -0.56236017202E+02 -0.10236631676E+03  0.13354087529E+03  0.47000000000E+01 0.  1.
         13    1    4    4    0    0  0.28464289669E+02  0.12943101697E+02  0.98007831884E+01  0.32768811681E+02  0.00000000000E+00 0. -1.
        -14    1    4    4    0    0 -0.44030124870E+02  0.24964284422E+02 -0.28222191612E+02  0.57951354533E+02  0.00000000000E+00 0.  1.
</event>
<event>
12    1  0.8226261E-002  0.2447752E+03  0.7818608E-02  0.1117317E+00
         21   -1    0    0  503  502  0.00000000000E+00  0.00000000000E+00  0.40932440733E+02  0.40932440733E+02  0.00000000000E+00 0. -1.
         21   -1    0    0  501  503 -0.00000000000E+00 -0.00000000000E+00 -0.16496389417E+04  0.16496389417E+04  0.00000000000E+00 0. -1.
          6    2    1    2  501    0  0.17072324460E+03  0.21338108409E+02 -0.11001025490E+04  0.11261310631E+04  0.16835620504E+03 0.  0.
         24    2    3    3    0    0  0.18494654931E+03 -0.11342881346E+02 -0.98717627396E+03  0.10076203754E+04  0.80299054000E+02 0.  0.
         -6    2    1    2    0  502 -0.17072324460E+03 -0.21338108409E+02 -0.50860395198E+03  0.56444031938E+03  0.17410672891E+03 0.  0.
        -24    2    5    5    0    0 -0.18885668928E+03 -0.39389040311E+01 -0.36503861034E+03  0.41861627661E+03  0.79397959378E+02 0.  0.
          5    1    3    3  501    0 -0.14223304709E+02  0.32680989755E+02 -0.11292627507E+03  0.11851068766E+03  0.47000000000E+01 0. -1.
        -11    1    4    4    0    0  0.63188363286E+02  0.44039959789E+01 -0.17283456573E+03  0.18407593962E+03  0.00000000000E+00 0.  1.
         12    1    4    4    0    0  0.12175818602E+03 -0.15746877325E+02 -0.81434170823E+03  0.82354443582E+03  0.00000000000E+00 0. -1.
         -5    1    5    5    0  502  0.18133444680E+02 -0.17399204378E+02 -0.14356534165E+03  0.14582404277E+03  0.47000000000E+01 0.  1.
         11    1    6    6    0    0 -0.86921868632E+02  0.14538410486E+02 -0.95982235384E+02  0.13030489682E+03  0.00000000000E+00 0. -1.
        -12    1    6    6    0    0 -0.10193482065E+03 -0.18477314517E+02 -0.26905637495E+03  0.28831137979E+03  0.00000000000E+00 0.  1.
</event>
<event>
12    1  0.8226261E-002  0.2242414E+03  0.7818608E-02  0.1131026E+00
         21   -1    0    0  503  502  0.00000000000E+00  0.00000000000E+00  0.80747006913E+03  0.80747006913E+03  0.00000000000E+00 0.  1.
         21   -1    0    0  501  503 -0.00000000000E+00 -0.00000000000E+00 -0.35780226844E+03  0.35780226844E+03  0.00000000000E+00 0. -1.
          6    2    1    2  501    0  0.13612711312E+03 -0.46674550799E+02 -0.30516577345E+03  0.37783476328E+03  0.17007014566E+03 0.  0.
         24    2    3    3    0    0  0.68506110030E+02  0.34910667159E+02 -0.11096485486E+03  0.15655477180E+03  0.79273928679E+02 0.  0.
         -6    2    1    2    0  502 -0.13612711312E+03  0.46674550799E+02  0.75483357414E+03  0.78743757428E+03  0.17197413797E+03 0.  0.
        -24    2    5    5    0    0 -0.14320960957E+03 -0.87733532542E+01  0.62255428539E+03  0.64375552234E+03  0.79128820812E+02 0.  0.
          5    1    3    3  501    0  0.67621003088E+02 -0.81585217958E+02 -0.19420091859E+03  0.22127999148E+03  0.47000000000E+01 0. -1.
        -13    1    4    4    0    0 -0.13837701511E+02 -0.85729593407E+01 -0.24931869368E+02  0.29775421494E+02  0.00000000000E+00 0.  1.
         14    1    4    4    0    0  0.82343811542E+02  0.43483626500E+02 -0.86032985490E+02  0.12677935031E+03  0.00000000000E+00 0. -1.
         -5    1    5    5    0  502  0.70824964500E+01  0.55447904053E+02  0.13227928875E+03  0.14368205195E+03  0.47000000000E+01 0.  1.
         13    1    6    6    0    0 -0.49125622374E+02 -0.30108673666E+02  0.13554752229E+03  0.14728540255E+03  0.00000000000E+00 0. -1.
        -14    1    6    6    0    0 -0.94083987194E+02  0.21335320412E+02  0.48700676309E+03  0.49647011979E+03  0.00000000000E+00 0.  1.
</event>
<event>
12    1  0.8226261E-002  0.1810370E+03  0.7818608E-02  0.1166892E+00
         21   -1    0    0  501  502  0.00000000000E+00  0.00000000000E+00  0.36530181333E+04  0.36530181333E+04  0.00000000000E+00 0.  1.
         21   -1    0    0  502  503 -0.00000000000E+00 -0.00000000000E+00 -0.17838177731E+02  0.17838177731E+02  0.00000000000E+00 0.  1.
         -6    2    1    2    0  503  0.55795966214E+02  0.93931687750E+00  0.52318879422E+03  0.55362524256E+03  0.17222172525E+03 0.  0.
        -24    2    3    3    0    0 -0.80676402042E+00  0.24678071259E+01  0.46568699530E+03  0.47278742820E+03  0.81589421694E+02 0.  0.
          6    2    1    2  501    0 -0.55795966214E+02 -0.93931687750E+00  0.31119911613E+04  0.31172310684E+04  0.17183269105E+03 0.  0.
         24    2    5    5    0    0 -0.67454678491E+02  0.32772500245E+02  0.12250079447E+04  0.12299048746E+04  0.79983532833E+02 0.  0.
          5    1    5    5  501    0  0.11658712277E+02 -0.33711817122E+02  0.18869832166E+04  0.18873261939E+04  0.47000000000E+01 0. -1.
        -11    1    6    6    0    0 -0.43796698689E+02  0.59109640155E+01  0.10660918357E+04  0.10670074472E+04  0.00000000000E+00 0.  1.
         12    1    6    6    0    0 -0.23657979802E+02  0.26861536229E+02  0.15891610902E+03  0.16289742737E+03  0.00000000000E+00 0. -1.
         -5    1    3    3    0  503  0.56602730235E+02 -0.15284902484E+01  0.57501798916E+02  0.80837814363E+02  0.47000000000E+01 0.  1.
         13    1    4    4    0    0 -0.54805942081E+01  0.40886868443E+02  0.19233739720E+03  0.19671158401E+03  0.00000000000E+00 0. -1.
        -14    1    4    4    0    0  0.46738301877E+01 -0.38419061317E+02  0.27334959810E+03  0.27607584419E+03  0.00000000000E+00 0.  1.
</event>
<event>
12    1  0.8226261E-002  0.1725870E+03  0.7818608E-02  0.1175243E+00
         21   -1    0    0  501  502  0.00000000000E+00  0.00000000000E+00  0.74842062765E+02  0.74842062765E+02  0.00000000000E+00 0.  1.
         21   -1    0    0  502  503 -0.00000000000E+00 -0.00000000000E+00 -0.69898362746E+03  0.69898362746E+03  0.00000000000E+00 0.  1.
         -6    2    1    2    0  503 -0.20725195460E+02 -0.49724749752E+01 -0.56635642979E+03  0.59206914769E+03  0.17126590686E+03 0.  0.
        -24    2    3    3    0    0  0.51008493582E+02  0.15276865626E+02 -0.29454055437E+03  0.31017959828E+03  0.81375647336E+02 0.  0.
          6    2    1    2  501    0  0.20725195460E+02  0.49724749752E+01 -0.57785134909E+02  0.18175654254E+03  0.17100309852E+03 0.  0.
         24    2    5    5    0    0  0.48523477218E+02  0.27109558675E+02  0.18368686246E+02  0.97588321573E+02  0.78080829018E+02 0.  0.
          5    1    5    5  501    0 -0.27798281758E+02 -0.22137083700E+02 -0.76153821155E+02  0.84168220962E+02  0.47000000000E+01 0. -1.
        -13    1    6    6    0    0 -0.11373457603E+02  0.20065524249E+02  0.28255042534E+02  0.36473664881E+02  0.00000000000E+00 0.  1.
         14    1    6    6    0    0  0.59896934821E+02  0.70440344256E+01 -0.98863562883E+01  0.61114656692E+02  0.00000000000E+00 0. -1.
         -5    1    3    3    0  503 -0.71733689042E+02 -0.20249340601E+02 -0.27181587542E+03  0.28188954941E+03  0.47000000000E+01 0.  1.
         11    1    4    4    0    0  0.16798543434E+02  0.13497274926E+02 -0.10303592548E+02  0.23885801459E+02  0.00000000000E+00 0. -1.
        -12    1    4    4    0    0  0.34209950148E+02  0.17795907001E+01 -0.28423696182E+03  0.28629379682E+03  0.00000000000E+00 0.  1.
</event>
<event>
12    1  0.8226261E-002  0.1810375E+03  0.7818608E-02  0.1166949E+00
         21   -1    0    0  501  502  0.00000000000E+00  0.00000000000E+00  0.41676984702E+03  0.41676984702E+03  0.00000000000E+00 0. -1.
         21   -1    0    0  502  503 -0.00000000000E+00 -0.00000000000E+00 -0.14388123354E+03  0.14388123354E+03  0.00000000000E+00 0. -1.
         -6    2    1    2    0  503  0.31003429465E+02 -0.45716339194E+02 -0.52828294163E+02  0.18800368275E+03  0.17176542072E+03 0.  0.
        -24    2    3    3    0    0 -0.40781190808E+02 -0.39892762468E+02 -0.60240951113E+02  0.11545036969E+03  0.80282486562E+02 0.  0.
          6    2    1    2  501    0 -0.31003429465E+02  0.45716339194E+02  0.32571690763E+03  0.37264739781E+03  0.17240470663E+03 0.  0.
         24    2    5    5    0    0 -0.56419686312E+02  0.12034720956E+02  0.31343778542E+03  0.32845119479E+03  0.79428751203E+02 0.  0.
          5    1    5    5  501    0  0.25416256848E+02  0.33681618238E+02  0.12279122216E+02  0.44196203023E+02  0.47000000000E+01 0. -1.
        -13    1    6    6    0    0  0.20307310576E+02  0.59213553843E+01  0.71730612992E+02  0.74784558250E+02  0.00000000000E+00 0.  1.
         14    1    6    6    0    0 -0.76726996889E+02  0.61133655717E+01  0.24170717243E+03  0.25366663654E+03  0.00000000000E+00 0. -1.
         -5    1    3    3    0  503  0.71784620272E+02 -0.58235767254E+01  0.74126569500E+01  0.72553313064E+02  0.47000000000E+01 0.  1.
         11    1    4    4    0    0  0.22348228998E+02 -0.91567768718E+00 -0.24246277706E+02  0.32987327681E+02  0.00000000000E+00 0. -1.
        -12    1    4    4    0    0 -0.63129419805E+02 -0.38977084781E+02 -0.35994673407E+02  0.82463042005E+02  0.00000000000E+00 0.  1.
</event>
<event>
12    1  0.8226261E-002  0.1902151E+03  0.7818608E-02  0.1158485E+00
         21   -1    0    0  501  502  0.00000000000E+00  0.00000000000E+00  0.18690844600E+03  0.18690844600E+03  0.00000000000E+00 0.  1.
         21   -1    0    0  502  503 -0.00000000000E+00 -0.00000000000E+00 -0.20099283871E+03  0.20099283871E+03  0.00000000000E+00 0.  1.
         -6    2    1    2    0  503 -0.39521831914E+02 -0.68614576873E+02  0.32609047237E+02  0.19203894536E+03  0.17188854301E+03 0.  0.
        -24    2    3    3    0    0 -0.13808401028E+02 -0.91108934462E+02 -0.26740419667E+02  0.12339766133E+03  0.77591384191E+02 0.  0.
          6    2    1    2  501    0  0.39521831914E+02  0.68614576873E+02 -0.46693439949E+02  0.19586233935E+03  0.17295040700E+03 0.  0.
         24    2    5    5    0    0  0.37018692168E+02 -0.21636587882E+02  0.80155620599E+01  0.90189715885E+02  0.78939281168E+02 0.  0.
          5    1    5    5  501    0  0.25031397463E+01  0.90251164755E+02 -0.54709002009E+02  0.10567262346E+03  0.47000000000E+01 0. -1.
        -11    1    6    6    0    0  0.51469121890E+02 -0.24758530612E+02 -0.18326532822E+02  0.59982640417E+02  0.00000000000E+00 0.  1.
         12    1    6    6    0    0 -0.14450429722E+02  0.31219427294E+01  0.26342094882E+02  0.30207075468E+02  0.00000000000E+00 0. -1.
         -5    1    3    3    0  503 -0.25713430886E+02  0.22494357589E+02  0.59349466904E+02  0.68641284028E+02  0.47000000000E+01 0.  1.
         13    1    4    4    0    0  0.16583044833E+02 -0.61221522886E+02  0.13421890770E+02  0.64832240376E+02  0.00000000000E+00 0. -1.
        -14    1    4    4    0    0 -0.30391445860E+02 -0.29887411576E+02 -0.40162310437E+02  0.58565420956E+02  0.00000000000E+00 0.  1.
</event>
<event>
12    1  0.8226261E-002  0.1709553E+03  0.7818608E-02  0.1176883E+00
         21   -1    0    0  503  502  0.00000000000E+00  0.00000000000E+00  0.95544075907E+03  0.95544075907E+03  0.00000000000E+00 0.  1.
         21   -1    0    0  501  503 -0.00000000000E+00 -0.00000000000E+00 -0.33167639412E+02  0.33167639412E+02  0.00000000000E+00 0.  1.
          6    2    1    2  501    0 -0.12470832488E+02  0.10949818843E+02  0.32292976834E+03  0.36538930744E+03  0.17014784899E+03 0.  0.
         24    2    3    3    0    0  0.42617511881E+02  0.43963582136E+02  0.24049690169E+03  0.26078576182E+03  0.80133669412E+02 0.  0.
         -6    2    1    2    0  502  0.12470832488E+02 -0.10949818843E+02  0.59934335132E+03  0.62321909104E+03  0.17004164922E+03 0.  0.
        -24    2    5    5    0    0 -0.39157633337E+02  0.40423858325E+02  0.30668432717E+03  0.32159656602E+03  0.78750658207E+02 0.  0.
          5    1    3    3  501    0 -0.55088344369E+02 -0.33013763293E+02  0.82432866647E+02  0.10460354562E+03  0.47000000000E+01 0. -1.
        -13    1    4    4    0    0 -0.55443303736E+01  0.31044394967E+02  0.17830314894E+03  0.18107044756E+03  0.00000000000E+00 0.  1.
         14    1    4    4    0    0  0.48161842255E+02  0.12919187169E+02  0.62193752748E+02  0.79715314259E+02  0.00000000000E+00 0. -1.
         -5    1    5    5    0  502  0.51628465825E+02 -0.51373677168E+02  0.29265902414E+03  0.30162252502E+03  0.47000000000E+01 0.  1.
         13    1    6    6    0    0 -0.18829698852E+02  0.36258147292E+02  0.29493372290E+03  0.29775008264E+03  0.00000000000E+00 0. -1.
        -14    1    6    6    0    0 -0.20327934485E+02  0.41657110327E+01  0.11750604270E+02  0.23846483379E+02  0.00000000000E+00 0.  1.
</event>
<event>
12    1  0.8226261E-002  0.1920125E+03  0.7818608E-02  0.1156770E+00
         21   -1    0    0  503  502  0.00000000000E+00  0.00000000000E+00  0.27214150871E+03  0.27214150871E+03  0.00000000000E+00 0. -1.
         21   -1    0    0  501  503 -0.00000000000E+00 -0.00000000000E+00 -0.20011632407E+03  0.20011632407E+03  0.00000000000E+00 0. -1.
          6    2    1    2  501    0 -0.55998902962E+01  0.82933311767E+02 -0.98586803290E+02  0.21539745849E+03  0.17253235746E+03 0.  0.
         24    2    3    3    0    0  0.42552659024E+02  0.10379144465E+03 -0.62868054581E+02  0.15174489591E+03  0.80565056801E+02 0.  0.
         -6    2    1    2    0  502  0.55998902962E+01 -0.82933311767E+02  0.17061198793E+03  0.25686037429E+03  0.17308815235E+03 0.  0.
        -24    2    5    5    0    0  0.44446560707E+01  0.11295284194E+02  0.13876856618E+03  0.15727896854E+03  0.73024794236E+02 0.  0.
          5    1    3    3  501    0 -0.48152549320E+02 -0.20858132881E+02 -0.35718748709E+02  0.63652562577E+02  0.47000000000E+01 0. -1.
        -11    1    4    4    0    0 -0.14665444145E+02  0.70227143612E+02 -0.34268847637E+02  0.79506483196E+02  0.00000000000E+00 0.  1.
         12    1    4    4    0    0  0.57218103169E+02  0.33564301036E+02 -0.28599206944E+02  0.72238412719E+02  0.00000000000E+00 0. -1.
         -5    1    5    5    0  502  0.11552342254E+01 -0.94228595961E+02  0.31843421750E+02  0.99581405752E+02  0.47000000000E+01 0.  1.
         11    1    6    6    0    0 -0.22012014511E+02 -0.85992579118E+00  0.82030549450E+01  0.23506560056E+02  0.00000000000E+00 0. -1.
        -12    1    6    6    0    0  0.26456670582E+02  0.12155209985E+02  0.13056551123E+03  0.13377240848E+03  0.00000000000E+00 0.  1.
</event>
<event>
12    1  0.8226261E-002  0.1942895E+03  0.7818608E-02  0.1154793E+00
         21   -1    0    0  501  502  0.00000000000E+00  0.00000000000E+00  0.20038821364E+03  0.20038821364E+03  0.00000000000E+00 0.  1.
         21   -1    0    0  502  503 -0.00000000000E+00 -0.00000000000E+00 -0.20034039387E+03  0.20034039387E+03  0.00000000000E+00 0.  1.
         -6    2    1    2    0  503  0.65429154029E+02  0.59430211190E+02 -0.50229923420E+02  0.20067748392E+03  0.17301873640E+03 0.  0.
        -24    2    3    3    0    0  0.30300075931E+01  0.58672221183E+02  0.25325995231E+02  0.10257032379E+03  0.80172656208E+02 0.  0.
          6    2    1    2  501    0 -0.65429154029E+02 -0.59430211190E+02  0.50277743183E+02  0.20005112359E+03  0.17227790454E+03 0.  0.
         24    2    5    5    0    0  0.17777966831E+02 -0.67309186942E+02  0.18733296622E+02  0.11059361787E+03  0.83865542151E+02 0.  0.
          5    1    5    5  501    0 -0.83207120860E+02  0.78789757520E+01  0.31544446561E+02  0.89457505720E+02  0.47000000000E+01 0. -1.
        -13    1    6    6    0    0 -0.17861157781E+02 -0.55384291617E+02  0.36844012699E+02  0.68876135105E+02  0.00000000000E+00 0.  1.
         14    1    6    6    0    0  0.35639124612E+02 -0.11924895325E+02 -0.18110716077E+02  0.41717482767E+02  0.00000000000E+00 0. -1.
         -5    1    3    3    0  503  0.62399146436E+02  0.75799000702E+00 -0.75555918651E+02  0.98107160126E+02  0.47000000000E+01 0.  1.
         13    1    4    4    0    0 -0.37294934654E+02  0.33283037891E+02  0.22549524002E+02  0.54837521779E+02  0.00000000000E+00 0. -1.
        -14    1    4    4    0    0  0.40324942247E+02  0.25389183292E+02  0.27764712293E+01  0.47732802012E+02  0.00000000000E+00 0.  1.
</event>
<event>
12    1  0.8226261E-002  0.2072210E+03  0.7818608E-02  0.1144280E+00
         21   -1    0    0  503  502  0.00000000000E+00  0.00000000000E+00  0.16141090876E+03  0.16141090876E+03  0.00000000000E+00 0.  1.
         21   -1    0    0  501  503 -0.00000000000E+00 -0.00000000000E+00 -0.58340523426E+03  0.58340523426E+03  0.00000000000E+00 0.  1.
          6    2    1    2  501    0  0.96864765161E+02 -0.63278013127E+02 -0.48757805052E+03  0.52978570752E+03  0.17191175313E+03 0.  0.
         24    2    3    3    0    0  0.10002447898E+03  0.71220470145E+01 -0.24041861338E+03  0.27273312607E+03  0.80787551326E+02 0.  0.
         -6    2    1    2    0  502 -0.96864765161E+02  0.63278013127E+02  0.65583725019E+02  0.21503043551E+03  0.16896737417E+03 0.  0.
        -24    2    5    5    0    0 -0.18052285072E+02  0.58203385215E+02  0.88262112106E+02  0.13272880669E+03  0.78187061872E+02 0.  0.
          5    1    3    3  501    0 -0.31597138208E+01 -0.70400060142E+02 -0.24715943714E+03  0.25705258144E+03  0.47000000000E+01 0. -1.
        -13    1    4    4    0    0  0.47009054616E+02  0.71183873841E+01 -0.20132369726E+03  0.20686167778E+03  0.00000000000E+00 0.  1.
         14    1    4    4    0    0  0.53015424367E+02  0.36596304190E-02 -0.39094916120E+02  0.65871448296E+02  0.00000000000E+00 0. -1.
         -5    1    5    5    0  502 -0.78812480090E+02  0.50746279119E+01 -0.22678387087E+02  0.82301628825E+02  0.47000000000E+01 0.  1.
         13    1    6    6    0    0  0.13775140483E+02 -0.36729573328E+01 -0.60827908152E+01  0.15499853386E+02  0.00000000000E+00 0. -1.
        -14    1    6    6    0    0 -0.31827425555E+02  0.61876342548E+02  0.94344902921E+02  0.11722895330E+03  0.00000000000E+00 0.  1.
</event>
<event>
12    1  0.8226261E-002  0.1867566E+03  0.7818608E-02  0.1161848E+00
         21   -1    0    0  503  502  0.00000000000E+00  0.00000000000E+00  0.29700163557E+03  0.29700163557E+03  0.00000000000E+00 0. -1.
         21   -1    0    0  501  503 -0.00000000000E+00 -0.00000000000E+00 -0.11685844244E+03  0.11685844244E+03  0.00000000000E+00 0.  1.
          6    2    1    2  501    0  0.17180989301E+02 -0.65704065461E+02  0.74994093834E+02  0.19953706589E+03  0.17198463869E+03 0.  0.
         24    2    3    3    0    0  0.26650778313E+02 -0.55703953751E+02 -0.13383674047E+02  0.10996922014E+03  0.90005067624E+02 0.  0.
         -6    2    1    2    0  502 -0.17180989301E+02  0.65704065461E+02  0.10514909930E+03  0.21432301211E+03  0.17397071543E+03 0.  0.
        -24    2    5    5    0    0  0.36048209247E+02  0.31933670302E+02 -0.78582705952E+01  0.84837326350E+02  0.69400193347E+02 0.  0.
          5    1    3    3  501    0 -0.94697890126E+01 -0.10000111710E+02  0.88377767880E+02  0.89567845758E+02  0.47000000000E+01 0. -1.
        -13    1    4    4    0    0  0.48758679298E+02 -0.85249710283E+01 -0.26633642570E+02  0.56208850321E+02  0.00000000000E+00 0.  1.
         14    1    4    4    0    0 -0.22107900984E+02 -0.47178982723E+02  0.13249968523E+02  0.53760369814E+02  0.00000000000E+00 0. -1.
         -5    1    5    5    0  502 -0.53229198548E+02  0.33770395160E+02  0.11300736989E+03  0.12948568576E+03  0.47000000000E+01 0.  1.
         11    1    6    6    0    0 -0.77357369007E+01 -0.17052462035E+02 -0.29101199566E+01  0.18949851847E+02  0.00000000000E+00 0. -1.
        -12    1    6    6    0    0  0.43783946148E+02  0.48986132337E+02 -0.49481506386E+01  0.65887474503E+02  0.00000000000E+00 0.  1.
</event>
<event>
12    1  0.8226261E-002  0.2292077E+03  0.7818608E-02  0.1128392E+00
         21   -1    0    0  503  502  0.00000000000E+00  0.00000000000E+00  0.25984431066E+03  0.25984431066E+03  0.00000000000E+00 0.  1.
         21   -1    0    0  501  503 -0.00000000000E+00 -0.00000000000E+00 -0.29107276306E+03  0.29107276306E+03  0.00000000000E+00 0.  1.
          6    2    1    2  501    0  0.11738048078E+03 -0.63998450421E+02  0.14134864406E+03  0.26928725887E+03  0.18617789796E+03 0.  0.
         24    2    3    3    0    0  0.15962509869E+02  0.38853456237E+01  0.11894975340E+03  0.14511957027E+03  0.81490786051E+02 0.  0.
         -6    2    1    2    0  502 -0.11738048078E+03  0.63998450421E+02 -0.17257709645E+03  0.28162981484E+03  0.17792841107E+03 0.  0.
        -24    2    5    5    0    0 -0.62181894780E+02  0.67490411785E+02 -0.24591056605E+02  0.12357591366E+03  0.79023684107E+02 0.  0.
          5    1    3    3  501    0  0.10141797091E+03 -0.67883796045E+02  0.22398890658E+02  0.12416768860E+03  0.47000000000E+01 0. -1.
        -13    1    4    4    0    0  0.21868825586E+02 -0.13017491851E+02  0.12394492305E+03  0.12653080485E+03  0.00000000000E+00 0.  1.
         14    1    4    4    0    0 -0.59063157172E+01  0.16902837475E+02 -0.49951696526E+01  0.18588765422E+02  0.00000000000E+00 0. -1.
         -5    1    5    5    0  502 -0.55198585999E+02 -0.34919613635E+01 -0.14798603985E+03  0.15805390119E+03  0.47000000000E+01 0.  1.
         11    1    6    6    0    0  0.51452604965E+01  0.24587133494E+01 -0.29301796965E+02  0.29851537352E+02  0.00000000000E+00 0. -1.
        -12    1    6    6    0    0 -0.67327155276E+02  0.65031698435E+02  0.47107403594E+01  0.93724376305E+02  0.00000000000E+00 0.  1.
</event>
<event>
12    1  0.8226261E-002  0.2005059E+03  0.7818608E-02  0.1149448E+00
         21   -1    0    0  501  502  0.00000000000E+00  0.00000000000E+00  0.57591225425E+02  0.57591225425E+02  0.00000000000E+00 0.  1.
         21   -1    0    0  502  503 -0.00000000000E+00 -0.00000000000E+00 -0.72978814955E+03  0.72978814955E+03  0.00000000000E+00 0.  1.
         -6    2    1    2    0  503 -0.87713249659E+02 -0.51022677387E+02 -0.42152879074E+03  0.46678595269E+03  0.17293257772E+03 0.  0.
        -24    2    3    3    0    0 -0.89346032448E+02  0.20796105974E+02 -0.32596268419E+03  0.34713824338E+03  0.76407440697E+02 0.  0.
          6    2    1    2  501    0  0.87713249659E+02  0.51022677387E+02 -0.25066813338E+03  0.32059342228E+03  0.17218798315E+03 0.  0.
         24    2    5    5    0    0  0.91298354667E+02 -0.11002079701E+02 -0.22184341701E+03  0.25194301992E+03  0.76186273662E+02 0.  0.
          5    1    5    5  501    0 -0.35851050080E+01  0.62024757088E+02 -0.28824716374E+02  0.68650402357E+02  0.47000000000E+01 0. -1.
        -11    1    6    6    0    0  0.90881570110E+01  0.25931794104E+02 -0.34990777235E+02  0.44490527473E+02  0.00000000000E+00 0.  1.
         12    1    6    6    0    0  0.82210197656E+02 -0.36933873805E+02 -0.18685263977E+03  0.20745249245E+03  0.00000000000E+00 0. -1.
         -5    1    3    3    0  503  0.16327827887E+01 -0.71818783361E+02 -0.95566106553E+02  0.11964770932E+03  0.47000000000E+01 0.  1.
         11    1    4    4    0    0  0.91217018717E+01  0.59012432709E+01 -0.95008438741E+02  0.95627577346E+02  0.00000000000E+00 0. -1.
        -12    1    4    4    0    0 -0.98467734320E+02  0.14894862703E+02 -0.23095424545E+03  0.25151066603E+03  0.00000000000E+00 0.  1.
</event>
<event>
12    1  0.8226261E-002  0.1837140E+03  0.7818608E-02  0.1164886E+00
         21   -1    0    0  503  502  0.00000000000E+00  0.00000000000E+00  0.94357815424E+02  0.94357815424E+02  0.00000000000E+00 0. -1.
         21   -1    0    0  501  503 -0.00000000000E+00 -0.00000000000E+00 -0.37135349326E+03  0.37135349326E+03  0.00000000000E+00 0. -1.
          6    2    1    2  501    0  0.50452037251E+02 -0.31053100162E+02 -0.87050193772E+02  0.20329433711E+03  0.17389982223E+03 0.  0.
         24    2    3    3    0    0  0.56934425827E+02 -0.83765386857E+02 -0.70289313585E+02  0.14740494961E+03  0.80805090720E+02 0.  0.
         -6    2    1    2    0  502 -0.50452037251E+02  0.31053100162E+02 -0.18994548407E+03  0.26241697158E+03  0.17109551999E+03 0.  0.
        -24    2    5    5    0    0  0.38395749697E+02  0.71454833363E+01 -0.81018103893E+02  0.11975384551E+03  0.79068064532E+02 0.  0.
          5    1    3    3  501    0 -0.64823885762E+01  0.52712286695E+02 -0.16760880187E+02  0.55889387498E+02  0.47000000000E+01 0. -1.
        -13    1    4    4    0    0 -0.16788251791E+02 -0.21788560330E+02  0.10859651083E+01  0.27527551284E+02  0.00000000000E+00 0.  1.
         14    1    4    4    0    0  0.73722677618E+02 -0.61976826526E+02 -0.71375278693E+02  0.11987739833E+03  0.00000000000E+00 0. -1.
         -5    1    5    5    0  502 -0.88847786948E+02  0.23907616826E+02 -0.10892738017E+03  0.14266312607E+03  0.47000000000E+01 0.  1.
         13    1    6    6    0    0  0.54515100950E+01 -0.32053780391E+02 -0.50750365299E+02  0.60272409755E+02  0.00000000000E+00 0. -1.
        -14    1    6    6    0    0  0.32944239602E+02  0.39199263728E+02 -0.30267738594E+02  0.59481435754E+02  0.00000000000E+00 0.  1.
</event>
<event>
12    1  0.8226261E-002  0.2102445E+03  0.7818608E-02  0.1141522E+00
         21   -1    0    0  501  502  0.00000000000E+00  0.00000000000E+00  0.14121195764E+03  0.14121195764E+03  0.00000000000E+00 0. -1.
         21   -1    0    0  502  503 -0.00000000000E+00 -0.00000000000E+00 -0.12495160337E+04  0.12495160337E+04  0.00000000000E+00 0. -1.
         -6    2    1    2    0  503  0.11058917035E+03 -0.46920917105E+02 -0.11567550931E+04  0.11757062034E+04  0.17254331108E+03 0.  0.
        -24    2    3    3    0    0  0.12908540893E+03 -0.71326654029E+02 -0.78530033018E+03  0.80296167729E+03  0.79374506246E+02 0.  0.
          6    2    1    2  501    0 -0.11058917035E+03  0.46920917105E+02  0.48451017110E+02  0.21502178788E+03  0.17162555504E+03 0.  0.
         24    2    5    5    0    0 -0.16326947341E+02  0.26743116477E+02 -0.39821148105E+02  0.84229680029E+02  0.67284111594E+02 0.  0.
          5    1    5    5  501    0 -0.94262223012E+02  0.20177800628E+02  0.88272165215E+02  0.13079210785E+03  0.47000000000E+01 0. -1.
        -13    1    6    6    0    0 -0.53362802337E+01 -0.67433342507E+01 -0.47405286795E+02  0.48178933775E+02  0.00000000000E+00 0.  1.
         14    1    6    6    0    0 -0.10990667107E+02  0.33486450728E+02  0.75841386899E+01  0.36050746254E+02  0.00000000000E+00 0. -1.
         -5    1    3    3    0  503 -0.18496238576E+02  0.24405736925E+02 -0.37145476295E+03  0.37274452612E+03  0.47000000000E+01 0.  1.
         13    1    4    4    0    0  0.13157633326E+03 -0.42101696353E+02 -0.65008824836E+03  0.66460485626E+03  0.00000000000E+00 0. -1.
        -14    1    4    4    0    0 -0.24909243288E+01 -0.29224957676E+02 -0.13521208182E+03  0.13835682103E+03  0.00000000000E+00 0.  1.
</event>
<event>
12    1  0.8226261E-002  0.1910790E+03  0.7818608E-02  0.1160513E+00
         21   -1    0    0  501  502  0.00000000000E+00  0.00000000000E+00  0.21329686604E+03  0.21329686604E+03  0.00000000000E+00 0. -1.
         21   -1    0    0  502  503 -0.00000000000E+00 -0.00000000000E+00 -0.15998974000E+03  0.15998974000E+03  0.00000000000E+00 0. -1.
         -6    2    1    2    0  503  0.83126984938E+01 -0.49182309609E+02  0.18203476359E+02  0.17900983653E+03  0.17095366181E+03 0.  0.
        -24    2    3    3    0    0 -0.18227924375E+02  0.33540048886E+02 -0.44593322677E+01  0.89103851454E+02  0.80389169627E+02 0.  0.
          6    2    1    2  501    0 -0.83126984938E+01  0.49182309609E+02  0.35103649676E+02  0.19427676952E+03  0.18445377854E+03 0.  0.
         24    2    5    5    0    0 -0.77758510115E+02  0.32514431987E+02  0.45962043787E+02  0.12188523950E+03  0.75099453760E+02 0.  0.
          5    1    5    5  501    0  0.69445811622E+02  0.16667877622E+02 -0.10858394111E+02  0.72391530022E+02  0.47000000000E+01 0. -1.
        -13    1    6    6    0    0  0.97537778784E+01 -0.84100723438E+01  0.16404914495E+02  0.20856335232E+02  0.00000000000E+00 0.  1.
         14    1    6    6    0    0 -0.87512287994E+02  0.40924504331E+02  0.29557129292E+02  0.10102890426E+03  0.00000000000E+00 0. -1.
         -5    1    3    3    0  503  0.26540622868E+02 -0.82722358494E+02  0.22662808627E+02  0.89905985073E+02  0.47000000000E+01 0.  1.
         13    1    4    4    0    0  0.70000267493E+01  0.55124551602E+02 -0.58425850527E+01  0.55873539032E+02  0.00000000000E+00 0. -1.
        -14    1    4    4    0    0 -0.25227951124E+02 -0.21584502716E+02  0.13832527849E+01  0.33230312422E+02  0.00000000000E+00 0.  1.
</event>
<event>
12    1  0.8226261E-002  0.2100364E+03  0.7818608E-02  0.1142033E+00
         21   -1    0    0  501  502  0.00000000000E+00  0.00000000000E+00  0.24833878265E+03  0.24833878265E+03  0.00000000000E+00 0.  1.
         21   -1    0    0  502  503 -0.00000000000E+00 -0.00000000000E+00 -0.53626646385E+03  0.53626646385E+03  0.00000000000E+00 0.  1.
         -6    2    1    2    0  503  0.17899673418E+02 -0.11499203064E+03 -0.46599264742E+03  0.51114031958E+03  0.17484768640E+03 0.  0.
        -24    2    3    3    0    0  0.55591878892E+02 -0.25218295050E+02 -0.14838132996E+03  0.17890687014E+03  0.79146886849E+02 0.  0.
          6    2    1    2  501    0 -0.17899673418E+02  0.11499203064E+03  0.17806496622E+03  0.27346492691E+03  0.17184984329E+03 0.  0.
         24    2    5    5    0    0  0.83289045285E+01  0.13171447889E+03  0.85489100476E+02  0.17568988156E+03  0.78361173936E+02 0.  0.
          5    1    5    5  501    0 -0.26228577947E+02 -0.16722448258E+02  0.92575865742E+02  0.97775045357E+02  0.47000000000E+01 0. -1.
        -11    1    6    6    0    0 -0.82250012086E+01  0.11584919946E+03  0.36732973400E+02  0.12181132539E+03  0.00000000000E+00 0.  1.
         12    1    6    6    0    0  0.16553905737E+02  0.15865279438E+02  0.48756127076E+02  0.53878556163E+02  0.00000000000E+00 0. -1.
         -5    1    3    3    0  503 -0.37692205474E+02 -0.89773735586E+02 -0.31761131746E+03  0.33223344945E+03  0.47000000000E+01 0.  1.
         11    1    4    4    0    0  0.50569487258E+02 -0.45214292786E+02 -0.68487628706E+02  0.96395853642E+02  0.00000000000E+00 0. -1.
        -12    1    4    4    0    0  0.50223916344E+01  0.19995997735E+02 -0.79893701254E+02  0.82511016496E+02  0.00000000000E+00 0.  1.
</event>
<event>
12    1  0.8226261E-002  0.2113729E+03  0.7818608E-02  0.1144147E+00
         21   -1    0    0  503  502  0.00000000000E+00  0.00000000000E+00  0.19783474893E+03  0.19783474893E+03  0.00000000000E+00 0.  1.
         21   -1    0    0  501  503 -0.00000000000E+00 -0.00000000000E+00 -0.24105061395E+03  0.24105061395E+03  0.00000000000E+00 0.  1.
          6    2    1    2  501    0 -0.87341456909E+02 -0.24232050444E+02 -0.10294204481E+03  0.21923629331E+03  0.17103147474E+03 0.  0.
         24    2    3    3    0    0 -0.58188686025E+02 -0.73130334216E+02 -0.10338219535E+03  0.16211178072E+03  0.82815349841E+02 0.  0.
         -6    2    1    2    0  502  0.87341456909E+02  0.24232050444E+02  0.59726179794E+02  0.21964906957E+03  0.19095228421E+03 0.  0.
        -24    2    5    5    0    0  0.42132994392E+02 -0.47269436355E+02 -0.19254275111E+02  0.10382044636E+03  0.79989806494E+02 0.  0.
          5    1    3    3  501    0 -0.29152770885E+02  0.48898283772E+02  0.44015054348E+00  0.57124512589E+02  0.47000000000E+01 0. -1.
        -13    1    4    4    0    0 -0.74598259202E+02 -0.59038704220E+02 -0.56920765867E+02  0.11086226797E+03  0.00000000000E+00 0.  1.
         14    1    4    4    0    0  0.16409573177E+02 -0.14091629996E+02 -0.46461429486E+02  0.51249512756E+02  0.00000000000E+00 0. -1.
         -5    1    5    5    0  502  0.45208462517E+02  0.71501486799E+02  0.78980454905E+02  0.11582862321E+03  0.47000000000E+01 0.  1.
         13    1    6    6    0    0  0.61068253294E+01  0.20902088483E+02 -0.15300347882E+02  0.26613742012E+02  0.00000000000E+00 0. -1.
        -14    1    6    6    0    0  0.36026169063E+02 -0.68171524838E+02 -0.39539272288E+01  0.77206704350E+02  0.00000000000E+00 0.  1.
</event>
<event>
12    1  0.8226261E-002  0.1806836E+03  0.7818608E-02  0.1167812E+00
         21   -1    0    0  503  502  0.00000000000E+00  0.00000000000E+00  0.37198733625E+02  0.37198733625E+02  0.00000000000E+00 0. -1.
         21   -1    0    0  501  503 -0.00000000000E+00 -0.00000000000E+00 -0.90444798155E+03  0.90444798155E+03  0.00000000000E+00 0. -1.
          6    2    1    2  501    0 -0.52297709445E+02 -0.16111839598E+02 -0.52964612387E+03  0.55873364287E+03  0.16930335307E+03 0.  0.
         24    2    3    3    0    0 -0.42274224449E+02 -0.11758833183E+01 -0.12974909670E+03  0.15840468392E+03  0.80428372096E+02 0.  0.
         -6    2    1    2    0  502  0.52297709445E+02  0.16111839598E+02 -0.33760312405E+03  0.38291307230E+03  0.17219729899E+03 0.  0.
        -24    2    5    5    0    0  0.39481609164E+02  0.64162664856E+02 -0.30289233002E+03  0.32208492539E+03  0.79493965515E+02 0.  0.
          5    1    3    3  501    0 -0.10023484996E+02 -0.14935956280E+02 -0.39989702717E+03  0.40032895896E+03  0.47000000000E+01 0. -1.
        -11    1    4    4    0    0  0.16107185729E+02  0.11110585152E+01 -0.41531792872E-01  0.16145513557E+02  0.00000000000E+00 0.  1.
         12    1    4    4    0    0 -0.58381410178E+02 -0.22869418335E+01 -0.12970756491E+03  0.14225917036E+03  0.00000000000E+00 0. -1.
         -5    1    5    5    0  502  0.12816100281E+02 -0.48050825258E+02 -0.34710794034E+02  0.60828146912E+02  0.47000000000E+01 0.  1.
         13    1    6    6    0    0  0.29933188427E+02  0.44469003683E+02 -0.70004611385E+02  0.88171047817E+02  0.00000000000E+00 0. -1.
        -14    1    6    6    0    0  0.95484207373E+01  0.19693661172E+02 -0.23288771864E+03  0.23391387757E+03  0.00000000000E+00 0.  1.
</event>
<event>
12    1  0.8226261E-002  0.1925324E+03  0.7818608E-02  0.1156884E+00
         21   -1    0    0  501  502  0.00000000000E+00  0.00000000000E+00  0.17287653949E+03  0.17287653949E+03  0.00000000000E+00 0. -1.
         21   -1    0    0  502  503 -0.00000000000E+00 -0.00000000000E+00 -0.32802102074E+03  0.32802102074E+03  0.00000000000E+00 0.  1.
         -6    2    1    2    0  503  0.76493570133E+02 -0.37755157171E+02 -0.22754929377E+03  0.29807280811E+03  0.17260359115E+03 0.  0.
        -24    2    3    3    0    0  0.48512257981E+02  0.44396510196E+02 -0.13042397256E+03  0.16773759299E+03  0.82468164718E+02 0.  0.
          6    2    1    2  501    0 -0.76493570133E+02  0.37755157171E+02  0.72404812520E+02  0.20282475212E+03  0.16917063880E+03 0.  0.
         24    2    5    5    0    0 -0.68419767316E+02  0.22828076740E+01 -0.17096355547E+02  0.10609821514E+03  0.79234273600E+02 0.  0.
          5    1    5    5  501    0 -0.80738028173E+01  0.35472349497E+02  0.89501168067E+02  0.96726536980E+02  0.47000000000E+01 0. -1.
        -11    1    6    6    0    0  0.37011761363E+01  0.64067871560E+01 -0.31568553499E+02  0.32424052746E+02  0.00000000000E+00 0.  1.
         12    1    6    6    0    0 -0.72120943452E+02 -0.41239794820E+01  0.14472197952E+02  0.73674162396E+02  0.00000000000E+00 0. -1.
         -5    1    3    3    0  503  0.27981312152E+02 -0.82151667367E+02 -0.97125321209E+02  0.13033521512E+03  0.47000000000E+01 0.  1.
         11    1    4    4    0    0  0.31813458279E+01  0.72478064029E+01  0.11630177653E+02  0.14068144553E+02  0.00000000000E+00 0. -1.
        -12    1    4    4    0    0  0.45330912154E+02  0.37148703793E+02 -0.14205415021E+03  0.15366944844E+03  0.00000000000E+00 0.  1.
</event>
<event>
12    1  0.8226261E-002  0.2504829E+03  0.7818608E-02  0.1113248E+00
         21   -1    0    0  501  502  0.00000000000E+00  0.00000000000E+00  0.16437931040E+04  0.16437931040E+04  0.00000000000E+00 0. -1.
         21   -1    0    0  502  503 -0.00000000000E+00 -0.00000000000E+00 -0.45869585277E+02  0.45869585277E+02  0.00000000000E+00 0.  1.
         -6    2    1    2    0  503 -0.17934898976E+03  0.18400374390E+02  0.44541750264E+03  0.51025105008E+03  0.17162385775E+03 0.  0.
        -24    2    3    3    0    0 -0.18241953653E+03  0.58729882332E+02  0.37643932342E+03  0.43015125810E+03  0.81224714449E+02 0.  0.
          6    2    1    2  501    0  0.17934898976E+03 -0.18400374390E+02  0.11525060161E+04  0.11794116392E+04  0.17388807793E+03 0.  0.
         24    2    5    5    0    0  0.11694881390E+02 -0.12598261194E+02  0.30576112542E+03  0.31619639116E+03  0.78707086897E+02 0.  0.
          5    1    5    5  501    0  0.16765410837E+03 -0.58021131967E+01  0.84674489066E+03  0.86321524803E+03  0.47000000000E+01 0. -1.
        -13    1    6    6    0    0  0.30995742633E+02 -0.30910595621E+01  0.46051274376E+02  0.55596857666E+02  0.00000000000E+00 0.  1.
         14    1    6    6    0    0 -0.19300861243E+02 -0.95072016316E+01  0.25970985105E+03  0.26059953350E+03  0.00000000000E+00 0. -1.
         -5    1    3    3    0  503  0.30705467654E+01 -0.40329507942E+02  0.68978179215E+02  0.80099791985E+02  0.47000000000E+01 0.  1.
         11    1    4    4    0    0 -0.78820856948E+02 -0.14676664264E+02  0.16660708506E+03  0.18489470722E+03  0.00000000000E+00 0. -1.
        -12    1    4    4    0    0 -0.10359867958E+03  0.73406546596E+02  0.20983223836E+03  0.24525655088E+03  0.00000000000E+00 0.  1.
</event>
<event>
12    1  0.8226261E-002  0.1929165E+03  0.7818608E-02  0.1156093E+00
         21   -1    0    0  501  502  0.00000000000E+00  0.00000000000E+00  0.25213016124E+03  0.25213016124E+03  0.00000000000E+00 0. -1.
         21   -1    0    0  502  503 -0.00000000000E+00 -0.00000000000E+00 -0.15836742398E+03  0.15836742398E+03  0.00000000000E+00 0. -1.
         -6    2    1    2    0  503  0.42277471023E+02  0.75398615690E+02 -0.87237613279E+01  0.19204791900E+03  0.17127160704E+03 0.  0.
        -24    2    3    3    0    0  0.39517608939E+02 -0.19256347388E+02 -0.23650554022E+02  0.96068348187E+02  0.82081243209E+02 0.  0.
          6    2    1    2  501    0 -0.42277471023E+02 -0.75398615690E+02  0.10248649859E+03  0.21844966622E+03  0.17246576030E+03 0.  0.
         24    2    5    5    0    0 -0.22316280830E+02  0.28606471919E+02  0.63469245687E+02  0.10548974684E+03  0.76048635190E+02 0.  0.
          5    1    5    5  501    0 -0.19961190193E+02 -0.10400508761E+03  0.39017252904E+02  0.11295991938E+03  0.47000000000E+01 0. -1.
        -11    1    6    6    0    0 -0.31869686333E+02  0.45485319331E+02  0.65628560363E+02  0.85974991229E+02  0.00000000000E+00 0.  1.
         12    1    6    6    0    0  0.95534055035E+01 -0.16878847412E+02 -0.21593146751E+01  0.19514755610E+02  0.00000000000E+00 0. -1.
         -5    1    3    3    0  503  0.27598620831E+01  0.94654963077E+02  0.14926792694E+02  0.95979570816E+02  0.47000000000E+01 0.  1.
         11    1    4    4    0    0 -0.14628028538E+02  0.20057806631E+02 -0.13890798844E+02  0.28447304235E+02  0.00000000000E+00 0. -1.
        -12    1    4    4    0    0  0.54145637477E+02 -0.39314154018E+02 -0.97597551778E+01  0.67621043952E+02  0.00000000000E+00 0.  1.
</event>
<event>
12    1  0.8226261E-002  0.2091099E+03  0.7818608E-02  0.1142283E+00
         21   -1    0    0  501  502  0.00000000000E+00  0.00000000000E+00  0.27934275896E+03  0.27934275896E+03  0.00000000000E+00 0. -1.
         21   -1    0    0  502  503 -0.00000000000E+00 -0.00000000000E+00 -0.16465567784E+03  0.16465567784E+03  0.00000000000E+00 0.  1.
         -6    2    1    2    0  503  0.99872989113E+02  0.64229316778E+02  0.10676404978E+03  0.23478825017E+03  0.17212478324E+03 0.  0.
        -24    2    3    3    0    0  0.80531280590E+02  0.95717821232E+02  0.33167189783E+02  0.15230058199E+03  0.80300786684E+02 0.  0.
          6    2    1    2  501    0 -0.99872989113E+02 -0.64229316778E+02  0.79230313444E+01  0.20921018663E+03  0.17206425740E+03 0.  0.
         24    2    5    5    0    0 -0.88044337269E+02 -0.48104976633E+02 -0.57383979033E+02  0.14074846773E+03  0.80320084765E+02 0.  0.
          5    1    5    5  501    0 -0.11828651844E+02 -0.16124340145E+02  0.65307010378E+02  0.68461718895E+02  0.47000000000E+01 0. -1.
        -11    1    6    6    0    0 -0.56338726133E+02 -0.48836137984E+02  0.70939306463E+00  0.74562213446E+02  0.00000000000E+00 0.  1.
         12    1    6    6    0    0 -0.31705611136E+02  0.73116135095E+00 -0.58093372098E+02  0.66186254284E+02  0.00000000000E+00 0. -1.
         -5    1    3    3    0  503  0.19341708523E+02 -0.31488504453E+02  0.73596859993E+02  0.82487668182E+02  0.47000000000E+01 0.  1.
         11    1    4    4    0    0 -0.21836847228E+01 -0.47395091676E+01  0.20960995147E+02  0.21600804237E+02  0.00000000000E+00 0. -1.
        -12    1    4    4    0    0  0.82714965313E+02  0.10045733040E+03  0.12206194636E+02  0.13069977775E+03  0.00000000000E+00 0.  1.
</event>
<event>
12    1  0.8226261E-002  0.2052944E+03  0.7818608E-02  0.1145408E+00
         21   -1    0    0  501  502  0.00000000000E+00  0.00000000000E+00  0.44390456416E+03  0.44390456416E+03  0.00000000000E+00 0.  1.
         21   -1    0    0  502  503 -0.00000000000E+00 -0.00000000000E+00 -0.97579003829E+02  0.97579003829E+02  0.00000000000E+00 0.  1.
         -6    2    1    2    0  503 -0.97025894194E+02 -0.54971603408E+02  0.21891657666E+03  0.30011708840E+03  0.17236559369E+03 0.  0.
        -24    2    3    3    0    0  0.72644722033E+01 -0.46476212451E+02  0.13681119702E+03  0.16703051674E+03  0.83481009882E+02 0.  0.
          6    2    1    2  501    0  0.97025894194E+02  0.54971603408E+02  0.12740898367E+03  0.24136647959E+03  0.17201403147E+03 0.  0.
         24    2    5    5    0    0  0.61058623392E+02  0.15704956953E+02  0.15187458964E+03  0.18257728017E+03  0.79333291196E+02 0.  0.
          5    1    5    5  501    0  0.35967270803E+02  0.39266646455E+02 -0.24465605972E+02  0.58789199420E+02  0.47000000000E+01 0. -1.
        -11    1    6    6    0    0  0.10629927009E+02  0.41998382087E+02  0.52369227540E+02  0.67966134503E+02  0.00000000000E+00 0.  1.
         12    1    6    6    0    0  0.50428696383E+02 -0.26293425134E+02  0.99505362101E+02  0.11461114567E+03  0.00000000000E+00 0. -1.
         -5    1    3    3    0  503 -0.10429036640E+03 -0.84953909573E+01  0.82105379637E+02  0.13308657166E+03  0.47000000000E+01 0.  1.
         13    1    4    4    0    0 -0.12903393875E+01 -0.12178116217E+02  0.13056007085E+03  0.13113315214E+03  0.00000000000E+00 0. -1.
        -14    1    4    4    0    0  0.85548115909E+01 -0.34298096233E+02  0.62511261743E+01  0.35897364597E+02  0.00000000000E+00 0.  1.
</event>
<event>
12    1  0.8226261E-002  0.2215351E+03  0.7818608E-02  0.1134331E+00
         21   -1    0    0  503  502  0.00000000000E+00  0.00000000000E+00  0.74772541048E+03  0.74772541048E+03  0.00000000000E+00 0.  1.
         21   -1    0    0  501  503 -0.00000000000E+00 -0.00000000000E+00 -0.78129054157E+02  0.78129054157E+02  0.00000000000E+00 0. -1.
          6    2    1    2  501    0 -0.12868932828E+03 -0.52125482712E+02  0.15936143755E+03  0.27289902828E+03  0.17262619354E+03 0.  0.
         24    2    3    3    0    0 -0.12376989392E+03 -0.41068608375E+02  0.18699173513E+03  0.24237070293E+03  0.82292353190E+02 0.  0.
         -6    2    1    2    0  502  0.12868932828E+03  0.52125482712E+02  0.51023491878E+03  0.55295543636E+03  0.16168498106E+03 0.  0.
        -24    2    5    5    0    0  0.12168980239E+03  0.78664996043E+02  0.49428887369E+03  0.52086641200E+03  0.77354630673E+02 0.  0.
          5    1    3    3  501    0 -0.49194343581E+01 -0.11056874337E+02 -0.27630297581E+02  0.30528325354E+02  0.47000000000E+01 0. -1.
        -11    1    4    4    0    0 -0.53164172792E+02 -0.13313062877E+02  0.14641399564E+03  0.15633529681E+03  0.00000000000E+00 0.  1.
         12    1    4    4    0    0 -0.70605721131E+02 -0.27755545498E+02  0.40577739497E+02  0.86035406113E+02  0.00000000000E+00 0. -1.
         -5    1    5    5    0  502  0.69995258907E+01 -0.26539513331E+02  0.15946045085E+02  0.32089024360E+02  0.47000000000E+01 0.  1.
         11    1    6    6    0    0  0.66738760301E+02  0.67513321986E+02  0.20131891911E+03  0.22257901510E+03  0.00000000000E+00 0. -1.
        -12    1    6    6    0    0  0.54951042090E+02  0.11151674057E+02  0.29296995458E+03  0.29828739690E+03  0.00000000000E+00 0.  1.
</event>
<event>
12    1  0.8226261E-002  0.2546543E+03  0.7818608E-02  0.1110440E+00
         21   -1    0    0  501  502  0.00000000000E+00  0.00000000000E+00  0.19694148136E+04  0.19694148136E+04  0.00000000000E+00 0.  1.
         21   -1    0    0  502  503 -0.00000000000E+00 -0.00000000000E+00 -0.34911238286E+02  0.34911238286E+02  0.00000000000E+00 0.  1.
         -6    2    1    2    0  503  0.58026454708E+02 -0.17901646291E+03  0.12087096036E+04  0.12352439973E+04  0.17156591621E+03 0.  0.
        -24    2    3    3    0    0 -0.85647324060E+01 -0.16826858384E+03  0.88766609094E+03  0.90715722506E+03  0.81212505268E+02 0.  0.
          6    2    1    2  501    0 -0.58026454708E+02  0.17901646291E+03  0.72579397179E+03  0.76908205466E+03  0.17116177689E+03 0.  0.
         24    2    5    5    0    0  0.27666494751E+02  0.49894411817E+02  0.32146913488E+03  0.33605035904E+03  0.79577332626E+02 0.  0.
          5    1    5    5  501    0 -0.85692949460E+02  0.12912205109E+03  0.40432483691E+03  0.43303169561E+03  0.47000000000E+01 0. -1.
        -13    1    6    6    0    0  0.36810552362E+00  0.66040241809E+02  0.20804265299E+03  0.21827321068E+03  0.00000000000E+00 0.  1.
         14    1    6    6    0    0  0.27298389228E+02 -0.16145829991E+02  0.11342648190E+03  0.11777714836E+03  0.00000000000E+00 0. -1.
         -5    1    3    3    0  503  0.66591187114E+02 -0.10747879070E+02  0.32104351263E+03  0.32808677222E+03  0.47000000000E+01 0.  1.
         13    1    4    4    0    0 -0.22716704179E+02 -0.99466620325E+02  0.33922277742E+03  0.35423403271E+03  0.00000000000E+00 0. -1.
        -14    1    4    4    0    0  0.14151971773E+02 -0.68801963516E+02  0.54844331352E+03  0.55292319235E+03  0.00000000000E+00 0.  1.
</event>
<event>
12    1  0.8226261E-002  0.1867788E+03  0.7818608E-02  0.1161915E+00
         21   -1    0    0  501  502  0.00000000000E+00  0.00000000000E+00  0.71156417431E+03  0.71156417431E+03  0.00000000000E+00 0.  1.
         21   -1    0    0  502  503 -0.00000000000E+00 -0.00000000000E+00 -0.48951325706E+02  0.48951325706E+02  0.00000000000E+00 0.  1.
         -6    2    1    2    0  503  0.56524382940E+02 -0.33739754359E+02  0.37192479256E+03  0.41619029345E+03  0.17479397058E+03 0.  0.
        -24    2    3    3    0    0 -0.13597910746E+02 -0.70165013400E+02  0.20598401698E+03  0.23233609424E+03  0.80265890341E+02 0.  0.
          6    2    1    2  501    0 -0.56524382940E+02  0.33739754359E+02  0.29068805605E+03  0.34432520657E+03  0.17241497922E+03 0.  0.
         24    2    5    5    0    0 -0.68936913006E+02  0.80346471613E+02  0.18556452845E+03  0.22856984795E+03  0.81253478049E+02 0.  0.
          5    1    5    5  501    0  0.12412530066E+02 -0.46606717254E+02  0.10512352760E+03  0.11575535863E+03  0.47000000000E+01 0. -1.
        -11    1    6    6    0    0 -0.15840234707E+02 -0.16418465607E+02  0.26597554287E+02  0.35041531681E+02  0.00000000000E+00 0.  1.
         12    1    6    6    0    0 -0.53096678299E+02  0.96764937220E+02  0.15896697416E+03  0.19352831627E+03  0.00000000000E+00 0. -1.
         -5    1    3    3    0  503  0.70122293686E+02  0.36425259041E+02  0.16594077557E+03  0.18385419921E+03  0.47000000000E+01 0.  1.
         11    1    4    4    0    0 -0.92351107640E+01 -0.83826199322E+02  0.19950948201E+03  0.21660136743E+03  0.00000000000E+00 0. -1.
        -12    1    4    4    0    0 -0.43627999820E+01  0.13661185922E+02  0.64745349744E+01  0.15734726805E+02  0.00000000000E+00 0.  1.
</event>
<event>
12    1  0.8226261E-002  0.2390763E+03  0.7818608E-02  0.1121242E+00
         21   -1    0    0  501  502  0.00000000000E+00  0.00000000000E+00  0.23104286459E+03  0.23104286459E+03  0.00000000000E+00 0.  1.
         21   -1    0    0  502  503 -0.00000000000E+00 -0.00000000000E+00 -0.24428083402E+03  0.24428083402E+03  0.00000000000E+00 0.  1.
         -6    2    1    2    0  503  0.87403775539E+02 -0.13156033067E+03  0.14570829324E+02  0.23951988876E+03  0.17947124410E+03 0.  0.
        -24    2    3    3    0    0 -0.17135723048E+02 -0.51076717122E+02  0.10758375837E+02  0.10744890930E+03  0.92342089114E+02 0.  0.
          6    2    1    2  501    0 -0.87403775539E+02  0.13156033067E+03 -0.27808798762E+02  0.23580380985E+03  0.17286574811E+03 0.  0.
         24    2    5    5    0    0  0.83619143866E+01  0.65782571610E+02 -0.20105027300E+02  0.11927390361E+03  0.97081324778E+02 0.  0.
          5    1    5    5  501    0 -0.95765689925E+02  0.65777759059E+02 -0.77037714623E+01  0.11652990624E+03  0.47000000000E+01 0. -1.
        -11    1    6    6    0    0 -0.44380275610E+02  0.28921885898E+02 -0.52254346256E+01  0.53229592466E+02  0.00000000000E+00 0.  1.
         12    1    6    6    0    0  0.52742189996E+02  0.36860685712E+02 -0.14879592674E+02  0.66044311147E+02  0.00000000000E+00 0. -1.
         -5    1    3    3    0  503  0.10453949859E+03 -0.80483613546E+02  0.38124534871E+01  0.13207097946E+03  0.47000000000E+01 0.  1.
         13    1    4    4    0    0  0.22611528540E+02 -0.15208146930E+02  0.38485661427E+02  0.47156283690E+02  0.00000000000E+00 0. -1.
        -14    1    4    4    0    0 -0.39747251588E+02 -0.35868570192E+02 -0.27727285589E+02  0.60292625607E+02  0.00000000000E+00 0.  1.
</event>
<event>
12    1  0.8226261E-002  0.1865814E+03  0.7818608E-02  0.1162007E+00
         21   -1    0    0  501  502  0.00000000000E+00  0.00000000000E+00  0.13646484950E+03  0.13646484950E+03  0.00000000000E+00 0. -1.
         21   -1    0    0  502  503 -0.00000000000E+00 -0.00000000000E+00 -0.29537417014E+03  0.29537417014E+03  0.00000000000E+00 0. -1.
         -6    2    1    2    0  503 -0.77638327166E+01 -0.67843924247E+02 -0.16128557373E+03  0.24524245133E+03  0.17166172691E+03 0.  0.
        -24    2    3    3    0    0 -0.23750143316E+02  0.27984372030E+02 -0.66525505230E+02  0.10944780830E+03  0.78778077594E+02 0.  0.
          6    2    1    2  501    0  0.77638327166E+01  0.67843924247E+02  0.23762530855E+01  0.18659656831E+03  0.17363627953E+03 0.  0.
         24    2    5    5    0    0 -0.47129887414E+02  0.81699989205E+02  0.24358279756E+02  0.12568178732E+03  0.79413294533E+02 0.  0.
          5    1    5    5  501    0  0.54893720130E+02 -0.13856064958E+02 -0.21982026671E+02  0.60914780985E+02  0.47000000000E+01 0. -1.
        -11    1    6    6    0    0 -0.15613190808E+02 -0.59972108054E+01  0.27784631150E+02  0.32430294368E+02  0.00000000000E+00 0.  1.
         12    1    6    6    0    0 -0.31516696605E+02  0.87697200010E+02 -0.34263513938E+01  0.93251492956E+02  0.00000000000E+00 0. -1.
         -5    1    3    3    0  503  0.15986310600E+02 -0.95828296277E+02 -0.94760068501E+02  0.13579464303E+03  0.47000000000E+01 0.  1.
         11    1    4    4    0    0 -0.60396070821E+01 -0.23504236597E+02 -0.10501205341E+01  0.24290507300E+02  0.00000000000E+00 0. -1.
        -12    1    4    4    0    0 -0.17710536234E+02  0.51488608627E+02 -0.65475384695E+02  0.85157300997E+02  0.00000000000E+00 0.  1.
</event>
<event>
12    1  0.8226261E-002  0.2311279E+03  0.7818608E-02  0.1129379E+00
         21   -1    0    0  501  502  0.00000000000E+00  0.00000000000E+00  0.15688729701E+03  0.15688729701E+03  0.00000000000E+00 0. -1.
         21   -1    0    0  502  503 -0.00000000000E+00 -0.00000000000E+00 -0.56532992765E+03  0.56532992765E+03  0.00000000000E+00 0. -1.
         -6    2    1    2    0  503  0.10471649244E+03  0.73459505216E+02  0.32135601677E+02  0.23335119574E+03  0.19250517126E+03 0.  0.
        -24    2    3    3    0    0  0.14220407762E+03  0.30071719239E+02  0.50152302849E+02  0.17306429388E+03  0.79433546735E+02 0.  0.
          6    2    1    2  501    0 -0.10471649244E+03 -0.73459505216E+02 -0.44057823232E+03  0.48886602892E+03  0.16887561324E+03 0.  0.
         24    2    5    5    0    0 -0.73877015916E+01  0.13763900340E+02 -0.17728274200E+03  0.19488061903E+03  0.79405679756E+02 0.  0.
          5    1    5    5  501    0 -0.97328790849E+02 -0.87223405557E+02 -0.26329549032E+03  0.29398540989E+03  0.47000000000E+01 0. -1.
        -11    1    6    6    0    0 -0.23053440375E+02  0.19493232759E+01 -0.80229476289E+01  0.24487316371E+02  0.00000000000E+00 0.  1.
         12    1    6    6    0    0  0.15665738784E+02  0.11814577064E+02 -0.16925979437E+03  0.17039330266E+03  0.00000000000E+00 0. -1.
         -5    1    3    3    0  503 -0.37487585178E+02  0.43387785977E+02 -0.18016701172E+02  0.60286901858E+02  0.47000000000E+01 0.  1.
         13    1    4    4    0    0  0.49510014305E+02  0.41802663184E+02  0.46137252977E+02  0.79544643302E+02  0.00000000000E+00 0. -1.
        -14    1    4    4    0    0  0.92694063314E+02 -0.11730943944E+02  0.40150498714E+01  0.93519650581E+02  0.00000000000E+00 0.  1.
</event>
<event>
12    1  0.8226261E-002  0.1818336E+03  0.7818608E-02  0.1166154E+00
         21   -1    0    0  501  502  0.00000000000E+00  0.00000000000E+00  0.55740515890E+03  0.55740515890E+03  0.00000000000E+00 0.  1.
         21   -1    0    0  502  503 -0.00000000000E+00 -0.00000000000E+00 -0.25548589836E+03  0.25548589836E+03  0.00000000000E+00 0. -1.
         -6    2    1    2    0  503 -0.56700182757E+02 -0.14453958151E+02 -0.20537802650E+03  0.27399031311E+03  0.17165876115E+03 0.  0.
        -24    2    3    3    0    0 -0.40777408177E+02  0.55038540585E+02 -0.15296762360E+03  0.18538059320E+03  0.79213840316E+02 0.  0.
          6    2    1    2  501    0  0.56700182757E+02  0.14453958151E+02  0.50729728703E+03  0.53890074415E+03  0.17216168850E+03 0.  0.
         24    2    5    5    0    0  0.18722605223E+02  0.79790853168E+02  0.33216705717E+03  0.34810269999E+03  0.64213858888E+02 0.  0.
          5    1    5    5  501    0  0.37977577534E+02 -0.65336895017E+02  0.17513022986E+03  0.19079804416E+03  0.47000000000E+01 0. -1.
        -11    1    6    6    0    0 -0.11672330054E+02  0.70079544648E+02  0.25186652807E+03  0.26169473405E+03  0.00000000000E+00 0.  1.
         12    1    6    6    0    0  0.30394935277E+02  0.97113085196E+01  0.80300529100E+02  0.86407965938E+02  0.00000000000E+00 0. -1.
         -5    1    3    3    0  503 -0.15922774580E+02 -0.69492498736E+02 -0.52410402895E+02  0.88609719910E+02  0.47000000000E+01 0.  1.
         13    1    4    4    0    0 -0.17279759981E+01  0.61958319790E+02 -0.11411919352E+03  0.12986535190E+03  0.00000000000E+00 0. -1.
        -14    1    4    4    0    0 -0.39049432179E+02 -0.69197792047E+01 -0.38848430079E+02  0.55515241306E+02  0.00000000000E+00 0.  1.
</event>
<event>
12    1  0.8226261E-002  0.1779814E+03  0.7818608E-02  0.1170068E+00
         21   -1    0    0  501  502  0.00000000000E+00  0.00000000000E+00  0.10847622534E+04  0.10847622534E+04  0.00000000000E+00 0.  1.
         21   -1    0    0  502  503 -0.00000000000E+00 -0.00000000000E+00 -0.81129368565E+02  0.81129368565E+02  0.00000000000E+00 0. -1.
         -6    2    1    2    0  503 -0.24133841796E+02 -0.42215307122E+02  0.35164392222E+02  0.18142196412E+03  0.17120987153E+03 0.  0.
        -24    2    3    3    0    0 -0.66103435951E+02 -0.61259576025E+02  0.55909954006E+02  0.13066174992E+03  0.76316250139E+02 0.  0.
          6    2    1    2  501    0  0.24133841796E+02  0.42215307122E+02  0.96846849260E+03  0.98446965784E+03  0.16995502808E+03 0.  0.
         24    2    5    5    0    0  0.68293078517E+00  0.73764545228E+02  0.38565806910E+03  0.40031609978E+03  0.77968961473E+02 0.  0.
          5    1    5    5  501    0  0.23450911011E+02 -0.31549238106E+02  0.58281042350E+03  0.58415355806E+03  0.47000000000E+01 0. -1.
        -11    1    6    6    0    0  0.23946776657E+02  0.57439584662E+02  0.14241159911E+03  0.15541498499E+03  0.00000000000E+00 0.  1.
         12    1    6    6    0    0 -0.23263845872E+02  0.16324960566E+02  0.24324646999E+03  0.24490111479E+03  0.00000000000E+00 0. -1.
         -5    1    3    3    0  503  0.41969594155E+02  0.19044268903E+02 -0.20745561784E+02  0.50760214197E+02  0.47000000000E+01 0.  1.
         13    1    4    4    0    0 -0.71339107706E+02 -0.43798586249E+02  0.13887033587E+02  0.84855371943E+02  0.00000000000E+00 0. -1.
        -14    1    4    4    0    0  0.52356717550E+01 -0.17460989777E+02  0.42022920418E+02  0.45806377975E+02  0.00000000000E+00 0.  1.
</event>
<event>
12    1  0.8226261E-002  0.1826086E+03  0.7818608E-02  0.1165365E+00
         21   -1    0    0  503  502  0.00000000000E+00  0.00000000000E+00  0.45416813275E+03  0.45416813275E+03  0.00000000000E+00 0.  1.
         21   -1    0    0  501  503 -0.00000000000E+00 -0.00000000000E+00 -0.12602838663E+03  0.12602838663E+03  0.00000000000E+00 0.  1.
          6    2    1    2  501    0 -0.27000341345E+02  0.52013744170E+02 -0.23614900511E+02  0.18386683322E+03  0.17266991868E+03 0.  0.
         24    2    3    3    0    0 -0.45602714458E+02  0.57045186015E+02  0.41167301220E+02  0.11611591180E+03  0.80339264806E+02 0.  0.
         -6    2    1    2    0  502  0.27000341345E+02 -0.52013744170E+02  0.35175464663E+03  0.39632968616E+03  0.17294924311E+03 0.  0.
        -24    2    5    5    0    0  0.30551367437E+02  0.73647952309E+01  0.78835094679E+02  0.11696327342E+03  0.80484836560E+02 0.  0.
          5    1    3    3  501    0  0.18602373113E+02 -0.50314418445E+01 -0.64782201731E+02  0.67750921423E+02  0.47000000000E+01 0. -1.
        -13    1    4    4    0    0 -0.17104651008E+01 -0.15976715257E+02 -0.77862344962E+01  0.17855155247E+02  0.00000000000E+00 0.  1.
         14    1    4    4    0    0 -0.43892249357E+02  0.73021901271E+02  0.48953535716E+02  0.98260756551E+02  0.00000000000E+00 0. -1.
         -5    1    5    5    0  502 -0.35510260921E+01 -0.59378539401E+02  0.27291955195E+03  0.27936641274E+03  0.47000000000E+01 0.  1.
         13    1    6    6    0    0  0.35746156848E+02  0.37822869576E+02  0.64569390895E+02  0.82931076400E+02  0.00000000000E+00 0. -1.
        -14    1    6    6    0    0 -0.51947894109E+01 -0.30458074345E+02  0.14265703784E+02  0.34032197024E+02  0.00000000000E+00 0.  1.
</event>
<event>
12    1  0.8226261E-002  0.1729955E+03  0.7818608E-02  0.1174813E+00
         21   -1    0    0  501  502  0.00000000000E+00  0.00000000000E+00  0.42682767643E+02  0.42682767643E+02  0.00000000000E+00 0. -1.
         21   -1    0    0  502  503 -0.00000000000E+00 -0.00000000000E+00 -0.11453014026E+04  0.11453014026E+04  0.00000000000E+00 0. -1.
         -6    2    1    2    0  503  0.47489796225E+01  0.14369867749E+02 -0.92176781808E+03  0.93786105428E+03  0.17233223951E+03 0.  0.
        -24    2    3    3    0    0 -0.16372264263E+01 -0.49709975548E+02 -0.35397769269E+03  0.36641138332E+03  0.80519145089E+02 0.  0.
          6    2    1    2  501    0 -0.47489796225E+01 -0.14369867749E+02 -0.18085081691E+03  0.25012311600E+03  0.17212062420E+03 0.  0.
         24    2    5    5    0    0 -0.27372928680E+02  0.50511569677E+02 -0.14063685616E+03  0.17036914034E+03  0.77111755114E+02 0.  0.
          5    1    5    5  501    0  0.22623949058E+02 -0.64881437426E+02 -0.40213960758E+02  0.79753975658E+02  0.47000000000E+01 0. -1.
        -11    1    6    6    0    0 -0.39972789023E+02 -0.25400438134E+01 -0.44704143122E+02  0.60022796479E+02  0.00000000000E+00 0.  1.
         12    1    6    6    0    0  0.12599860343E+02  0.53051613491E+02 -0.95932713033E+02  0.11034634387E+03  0.00000000000E+00 0. -1.
         -5    1    3    3    0  503  0.63862060488E+01  0.64079843296E+02 -0.56779012539E+03  0.57144967096E+03  0.47000000000E+01 0.  1.
         11    1    4    4    0    0 -0.30750734111E+02  0.61911989653E+01 -0.10549345750E+03  0.11005820355E+03  0.00000000000E+00 0. -1.
        -12    1    4    4    0    0  0.29113507685E+02 -0.55901174513E+02 -0.24848423518E+03  0.25635317977E+03  0.00000000000E+00 0.  1.
</event>
<event>
12    1  0.8226261E-002  0.2053152E+03  0.7818608E-02  0.1146742E+00
         21   -1    0    0  501  502  0.00000000000E+00  0.00000000000E+00  0.22752536017E+03  0.22752536017E+03  0.00000000000E+00 0. -1.
         21   -1    0    0  502  503 -0.00000000000E+00 -0.00000000000E+00 -0.18751374260E+03  0.18751374260E+03  0.00000000000E+00 0.  1.
         -6    2    1    2    0  503 -0.99765612043E+02 -0.50738492978E+02 -0.23395727639E+02  0.20664384525E+03  0.17212421879E+03 0.  0.
        -24    2    3    3    0    0 -0.56142159491E+02 -0.85478421040E+02 -0.56397214007E+02  0.14167418836E+03  0.80202414952E+02 0.  0.
          6    2    1    2  501    0  0.99765612043E+02  0.50738492978E+02  0.63407345216E+02  0.20839525752E+03  0.16395279782E+03 0.  0.
         24    2    5    5    0    0  0.64537571201E+01  0.57540354663E+02  0.45516566109E+01  0.97763211199E+02  0.78640857640E+02 0.  0.
          5    1    5    5  501    0  0.93311854923E+02 -0.68018616852E+01  0.58855688605E+02  0.11063204632E+03  0.47000000000E+01 0. -1.
        -11    1    6    6    0    0 -0.20961093694E+01  0.50651701494E+02 -0.31763862881E+02  0.59824171736E+02  0.00000000000E+00 0.  1.
         12    1    6    6    0    0  0.85498664896E+01  0.68886531688E+01  0.36315519492E+02  0.37939039464E+02  0.00000000000E+00 0. -1.
         -5    1    3    3    0  503 -0.43623452552E+02  0.34739928062E+02  0.33001486368E+02  0.64969656893E+02  0.47000000000E+01 0.  1.
         11    1    4    4    0    0 -0.52012748517E+02 -0.79856897921E+02 -0.11218183460E+02  0.95959875959E+02  0.00000000000E+00 0. -1.
        -12    1    4    4    0    0 -0.41294109736E+01 -0.56215231182E+01 -0.45179030547E+02  0.45714312401E+02  0.00000000000E+00 0.  1.
</event>
<event>
12    1  0.8226261E-002  0.2154148E+03  0.7818608E-02  0.1137592E+00
         21   -1    0    0  503  502  0.00000000000E+00  0.00000000000E+00  0.65986647073E+03  0.65986647073E+03  0.00000000000E+00 0.  1.
         21   -1    0    0  501  503 -0.00000000000E+00 -0.00000000000E+00 -0.12443989930E+03  0.12443989930E+03  0.00000000000E+00 0.  1.
          6    2    1    2  501    0  0.94453730721E+02 -0.87017817247E+02  0.76742090418E+01  0.21428348192E+03  0.17136192510E+03 0.  0.
         24    2    3    3    0    0  0.10391255223E+03 -0.11872966076E+03 -0.33787226089E+01  0.17907882851E+03  0.84636045510E+02 0.  0.
         -6    2    1    2    0  502 -0.94453730721E+02  0.87017817247E+02  0.52775236239E+03  0.57002288810E+03  0.17294487327E+03 0.  0.
        -24    2    5    5    0    0  0.47218295678E+01  0.10878461634E+02  0.12932869447E+03  0.15241481540E+03  0.79772978745E+02 0.  0.
          5    1    3    3  501    0 -0.94588215123E+01  0.31711843514E+02  0.11052931651E+02  0.35204653408E+02  0.47000000000E+01 0. -1.
        -11    1    4    4    0    0  0.31470951880E+02 -0.35409075351E+02 -0.40779255632E+02  0.62507368520E+02  0.00000000000E+00 0.  1.
         12    1    4    4    0    0  0.72441600354E+02 -0.83320585410E+02  0.37400533023E+02  0.11657145999E+03  0.00000000000E+00 0. -1.
         -5    1    5    5    0  502 -0.99175560289E+02  0.76139355612E+02  0.39842366791E+03  0.41760807270E+03  0.47000000000E+01 0.  1.
         11    1    6    6    0    0  0.35721151972E+02  0.17136475885E+02  0.10586697993E+03  0.11303750237E+03  0.00000000000E+00 0. -1.
        -12    1    6    6    0    0 -0.30999322404E+02 -0.62580142509E+01  0.23461714546E+02  0.39377313028E+02  0.00000000000E+00 0.  1.
</event>
<event>
12    1  0.8226261E-002  0.2160482E+03  0.7818608E-02  0.1138696E+00
         21   -1    0    0  501  502  0.00000000000E+00  0.00000000000E+00  0.17136408015E+03  0.17136408015E+03  0.00000000000E+00 0.  1.
         21   -1    0    0  502  503 -0.00000000000E+00 -0.00000000000E+00 -0.36823744613E+03  0.36823744613E+03  0.00000000000E+00 0. -1.
         -6    2    1    2    0  503  0.23515951922E+02  0.12709469030E+03 -0.24267289513E+03  0.31875225373E+03  0.16126625477E+03 0.  0.
        -24    2    3    3    0    0  0.10860194685E+01  0.12439467299E+02 -0.13369897101E+03  0.15892006620E+03  0.84995604637E+02 0.  0.
          6    2    1    2  501    0 -0.23515951922E+02 -0.12709469030E+03  0.45799529154E+02  0.22084927255E+03  0.17312060541E+03 0.  0.
         24    2    5    5    0    0 -0.48786228015E+02 -0.65296103124E+02 -0.32276495299E+02  0.11801149824E+03  0.79001673654E+02 0.  0.
          5    1    5    5  501    0  0.25270276093E+02 -0.61798587177E+02  0.78076024453E+02  0.10283777431E+03  0.47000000000E+01 0. -1.
        -11    1    6    6    0    0 -0.31484929166E+02 -0.79170631352E+02 -0.87016204299E+01  0.85644660262E+02  0.00000000000E+00 0.  1.
         12    1    6    6    0    0 -0.17301298849E+02  0.13874528228E+02 -0.23574874869E+02  0.32366837975E+02  0.00000000000E+00 0. -1.
         -5    1    3    3    0  503  0.22429932454E+02  0.11465522300E+03 -0.10897392412E+03  0.15983218753E+03  0.47000000000E+01 0.  1.
         13    1    4    4    0    0  0.23305516677E+02 -0.21694147258E+02 -0.10330584613E+03  0.10810125336E+03  0.00000000000E+00 0. -1.
        -14    1    4    4    0    0 -0.22219497209E+02  0.34133614557E+02 -0.30393124877E+02  0.50818812843E+02  0.00000000000E+00 0.  1.
</event>
<event>
12    1  0.8226261E-002  0.1763925E+03  0.7818608E-02  0.1172782E+00
         21   -1    0    0  503  502  0.00000000000E+00  0.00000000000E+00  0.49966011244E+02  0.49966011244E+02  0.00000000000E+00 0. -1.
         21   -1    0    0  501  503 -0.00000000000E+00 -0.00000000000E+00 -0.61216791443E+03  0.61216791443E+03  0.00000000000E+00 0. -1.
          6    2    1    2  501    0 -0.36815035537E+02  0.51954245515E+01 -0.31760555078E+03  0.36056854438E+03  0.16659546821E+03 0.  0.
         24    2    3    3    0    0 -0.19393734181E+02 -0.42749460385E+02 -0.28522527480E+03  0.29996502958E+03  0.80136934692E+02 0.  0.
         -6    2    1    2    0  502  0.36815035537E+02 -0.51954245515E+01 -0.24459635241E+03  0.30156538130E+03  0.17242959233E+03 0.  0.
        -24    2    5    5    0    0 -0.20805944212E+02  0.46504889421E+02 -0.14280530226E+03  0.17359426087E+03  0.84534141041E+02 0.  0.
          5    1    3    3  501    0 -0.17421301356E+02  0.47944884937E+02 -0.32380275985E+02  0.60603514794E+02  0.47000000000E+01 0. -1.
        -13    1    4    4    0    0  0.17748688854E+02 -0.16499559706E+02 -0.21654264857E+02  0.32498594016E+02  0.00000000000E+00 0.  1.
         14    1    4    4    0    0 -0.37142423036E+02 -0.26249900679E+02 -0.26357100994E+03  0.26746643557E+03  0.00000000000E+00 0. -1.
         -5    1    5    5    0  502  0.57620979749E+02 -0.51700313972E+02 -0.10179105015E+03  0.12797112043E+03  0.47000000000E+01 0.  1.
         13    1    6    6    0    0  0.10827350067E+02 -0.13985998915E+02 -0.76182113059E+02  0.78208401245E+02  0.00000000000E+00 0. -1.
        -14    1    6    6    0    0 -0.31633294279E+02  0.60490888335E+02 -0.66623189197E+02  0.95385859630E+02  0.00000000000E+00 0.  1.
</event>
<event>
12    1  0.8226261E-002  0.1837768E+03  0.7818608E-02  0.1164249E+00
         21   -1    0    0  501  502  0.00000000000E+00  0.00000000000E+00  0.76636573777E+03  0.76636573777E+03  0.00000000000E+00 0. -1.
         21   -1    0    0  502  503 -0.00000000000E+00 -0.00000000000E+00 -0.52251284475E+02  0.52251284475E+02  0.00000000000E+00 0. -1.
         -6    2    1    2    0  503 -0.21418094876E+02 -0.60927102518E+02  0.19475761636E+03  0.26777688390E+03  0.17205546726E+03 0.  0.
        -24    2    3    3    0    0 -0.80829239572E+02 -0.42735945297E+02  0.12215278369E+03  0.17209954049E+03  0.79606672356E+02 0.  0.
          6    2    1    2  501    0  0.21418094876E+02  0.60927102518E+02  0.51935683693E+03  0.55084013834E+03  0.17182109105E+03 0.  0.
         24    2    5    5    0    0  0.43675831028E+02 -0.14782438077E+02  0.37476751208E+03  0.38605086619E+03  0.80364696732E+02 0.  0.
          5    1    5    5  501    0 -0.22257736152E+02  0.75709540595E+02  0.14458932484E+03  0.16478927215E+03  0.47000000000E+01 0. -1.
        -13    1    6    6    0    0 -0.71365223372E+01 -0.15309095127E+02  0.25986613550E+03  0.26041449023E+03  0.00000000000E+00 0.  1.
         14    1    6    6    0    0  0.50812353365E+02  0.52665705060E+00  0.11490137658E+03  0.12563637595E+03  0.00000000000E+00 0. -1.
         -5    1    3    3    0  503  0.59411144696E+02 -0.18191157221E+02  0.72604832671E+02  0.95677343412E+02  0.47000000000E+01 0.  1.
         11    1    4    4    0    0  0.51634442123E-01 -0.37841674479E+02  0.23953046921E+02  0.44785527241E+02  0.00000000000E+00 0. -1.
        -12    1    4    4    0    0 -0.80880874015E+02 -0.48942708183E+01  0.98199736771E+02  0.12731401325E+03  0.00000000000E+00 0.  1.
</event>
<event>
12    1  0.8226261E-002  0.2576297E+03  0.7818608E-02  0.1108594E+00
         21   -1    0    0  501  502  0.00000000000E+00  0.00000000000E+00  0.22744862061E+03  0.22744862061E+03  0.00000000000E+00 0. -1.
         21   -1    0    0  502  503 -0.00000000000E+00 -0.00000000000E+00 -0.97878935477E+03  0.97878935477E+03  0.00000000000E+00 0.  1.
         -6    2    1    2    0  503 -0.12304093837E+03 -0.14691714849E+03 -0.88097055966E+03  0.91783382583E+03  0.17200605752E+03 0.  0.
        -24    2    3    3    0    0 -0.26403408454E+02 -0.21537388110E+01 -0.22636756032E+03  0.24046949720E+03  0.76691121695E+02 0.  0.
          6    2    1    2  501    0  0.12304093837E+03  0.14691714849E+03  0.12962982550E+03  0.28840414954E+03  0.17218983936E+03 0.  0.
         24    2    5    5    0    0  0.22974252104E+02  0.28145720257E+01  0.42772543025E+02  0.92584917181E+02  0.78782855858E+02 0.  0.
          5    1    5    5  501    0  0.10006668627E+03  0.14410257647E+03  0.86857282471E+02  0.19581923236E+03  0.47000000000E+01 0. -1.
        -13    1    6    6    0    0  0.40305661695E+02  0.17326849197E+02  0.52117162048E+02  0.68124625854E+02  0.00000000000E+00 0.  1.
         14    1    6    6    0    0 -0.17331409591E+02 -0.14512277171E+02 -0.93446190231E+01  0.24460291327E+02  0.00000000000E+00 0. -1.
         -5    1    3    3    0  503 -0.96637529916E+02 -0.14476340968E+03 -0.65460299933E+03  0.67736432863E+03  0.47000000000E+01 0.  1.
         13    1    4    4    0    0  0.18544363761E+01 -0.30502279787E+02 -0.42805644149E+02  0.52594212395E+02  0.00000000000E+00 0. -1.
        -14    1    4    4    0    0 -0.28257844830E+02  0.28348540976E+02 -0.18356191618E+03  0.18787528480E+03  0.00000000000E+00 0.  1.
</event>
<event>
12    1  0.8226261E-002  0.1993659E+03  0.7818608E-02  0.1150683E+00
         21   -1    0    0  501  502  0.00000000000E+00  0.00000000000E+00  0.39607066027E+03  0.39607066027E+03  0.00000000000E+00 0.  1.
         21   -1    0    0  502  503 -0.00000000000E+00 -0.00000000000E+00 -0.14165949125E+03  0.14165949125E+03  0.00000000000E+00 0.  1.
         -6    2    1    2    0  503  0.10090637663E+03 -0.54298766776E+00 -0.19227925158E+02  0.20029099372E+03  0.17194294804E+03 0.  0.
        -24    2    3    3    0    0  0.82508461151E+02  0.64913303000E+02 -0.19616858044E+02  0.13213491879E+03  0.77803808233E+02 0.  0.
          6    2    1    2  501    0 -0.10090637663E+03  0.54298766776E+00  0.27363909417E+03  0.33743915780E+03  0.16971870750E+03 0.  0.
         24    2    5    5    0    0 -0.37937483946E+00 -0.11844001800E+01  0.55750350819E+02  0.97426123906E+02  0.79888680511E+02 0.  0.
          5    1    5    5  501    0 -0.10052700179E+03  0.17273878477E+01  0.21788874335E+03  0.24001303389E+03  0.47000000000E+01 0. -1.
        -11    1    6    6    0    0 -0.34257734161E+02  0.19532886502E+02  0.34449550357E+02  0.52363131350E+02  0.00000000000E+00 0.  1.
         12    1    6    6    0    0  0.33878359322E+02 -0.20717286682E+02  0.21300800462E+02  0.45062992556E+02  0.00000000000E+00 0. -1.
         -5    1    3    3    0  503  0.18397915478E+02 -0.65456290667E+02  0.38893288544E+00  0.68156074936E+02  0.47000000000E+01 0.  1.
         11    1    4    4    0    0 -0.53199850479E+01  0.16338260157E+02  0.18061775598E+02  0.24929274430E+02  0.00000000000E+00 0. -1.
        -12    1    4    4    0    0  0.87828446198E+02  0.48575042843E+02 -0.37678633642E+02  0.10720564436E+03  0.00000000000E+00 0.  1.
</event>
<event>
12    1  0.8226261E-002  0.2461446E+03  0.7818608E-02  0.1115774E+00
         21   -1    0    0  501  502  0.00000000000E+00  0.00000000000E+00  0.58405498593E+02  0.58405498593E+02  0.00000000000E+00 0.  1.
         21   -1    0    0  502  503 -0.00000000000E+00 -0.00000000000E+00 -0.12473022919E+04  0.12473022919E+04  0.00000000000E+00 0.  1.
         -6    2    1    2    0  503 -0.17561405884E+03  0.16630796926E+02 -0.86247662013E+03  0.89691308658E+03  0.17166911064E+03 0.  0.
        -24    2    3    3    0    0 -0.13535541135E+03 -0.48317658318E+02 -0.49766145451E+03  0.52415142600E+03  0.80075655374E+02 0.  0.
          6    2    1    2  501    0  0.17561405884E+03 -0.16630796926E+02 -0.32642017317E+03  0.40879470390E+03  0.17159865797E+03 0.  0.
         24    2    5    5    0    0  0.12635788071E+03  0.54841391245E+02 -0.20506921748E+03  0.25952116568E+03  0.79523325299E+02 0.  0.
          5    1    5    5  501    0  0.49256178132E+02 -0.71472188171E+02 -0.12135095569E+03  0.14927353822E+03  0.47000000000E+01 0. -1.
        -11    1    6    6    0    0  0.13655539200E+03  0.55543185687E+02 -0.19892299157E+03  0.24759397637E+03  0.00000000000E+00 0.  1.
         12    1    6    6    0    0 -0.10197511287E+02 -0.70179444234E+00 -0.61462259117E+01  0.11927189310E+02  0.00000000000E+00 0. -1.
         -5    1    3    3    0  503 -0.40258647490E+02  0.64948455245E+02 -0.36481516562E+03  0.37276166059E+03  0.47000000000E+01 0.  1.
         13    1    4    4    0    0 -0.10213649720E+03 -0.10072549835E+02 -0.23176655621E+03  0.25347397677E+03  0.00000000000E+00 0. -1.
        -14    1    4    4    0    0 -0.33218914150E+02 -0.38245108483E+02 -0.26589489830E+03  0.27067744923E+03  0.00000000000E+00 0.  1.
</event>
<event>
12    1  0.8226261E-002  0.2373381E+03  0.7818608E-02  0.1122234E+00
         21   -1    0    0  501  502  0.00000000000E+00  0.00000000000E+00  0.25432501190E+03  0.25432501190E+03  0.00000000000E+00 0.  1.
         21   -1    0    0  502  503 -0.00000000000E+00 -0.00000000000E+00 -0.25680422914E+03  0.25680422914E+03  0.00000000000E+00 0.  1.
         -6    2    1    2    0  503 -0.15571550606E+03  0.16497545582E+02 -0.10069701307E+03  0.25781633790E+03  0.17835326689E+03 0.  0.
        -24    2    3    3    0    0 -0.50719163353E+02  0.23104870772E+02  0.35006421589E+00  0.11186946210E+03  0.96996832014E+02 0.  0.
          6    2    1    2  501    0  0.15571550606E+03 -0.16497545582E+02  0.98217795828E+02  0.25331290314E+03  0.17320855534E+03 0.  0.
         24    2    5    5    0    0  0.15642673617E+02  0.25877000121E+02  0.35603183688E+02  0.94068813252E+02  0.81651959957E+02 0.  0.
          5    1    5    5  501    0  0.14007283244E+03 -0.42374545703E+02  0.62614612140E+02  0.15924408989E+03  0.47000000000E+01 0. -1.
        -11    1    6    6    0    0  0.39290325136E+01 -0.23432194203E+02 -0.10106417952E+02  0.25819463695E+02  0.00000000000E+00 0.  1.
         12    1    6    6    0    0  0.11713641104E+02  0.49309194325E+02  0.45709601640E+02  0.68249349557E+02  0.00000000000E+00 0. -1.
         -5    1    3    3    0  503 -0.10499634270E+03 -0.66073251903E+01 -0.10104707729E+03  0.14594687580E+03  0.47000000000E+01 0.  1.
         13    1    4    4    0    0 -0.10150094058E+02 -0.36864661715E+02  0.79969119614E+01  0.39063772138E+02  0.00000000000E+00 0. -1.
        -14    1    4    4    0    0 -0.40569069296E+02  0.59969532487E+02 -0.76468477455E+01  0.72805689961E+02  0.00000000000E+00 0.  1.
</event>
<event>
12    1  0.8226261E-002  0.1818469E+03  0.7818608E-02  0.1167184E+00
         21   -1    0    0  503  502  0.00000000000E+00  0.00000000000E+00  0.19081548096E+04  0.19081548096E+04  0.00000000000E+00 0. -1.
         21   -1    0    0  501  503 -0.00000000000E+00 -0.00000000000E+00 -0.31728694786E+02  0.31728694786E+02  0.00000000000E+00 0. -1.
          6    2    1    2  501    0  0.25805651585E+02 -0.50162349981E+02  0.26802757427E+03  0.32123772786E+03  0.16784726456E+03 0.  0.
         24    2    3    3    0    0  0.32322281076E+02  0.19556759616E+02  0.21748299997E+03  0.23475036060E+03  0.79885416873E+02 0.  0.
         -6    2    1    2    0  502 -0.25805651585E+02  0.50162349981E+02  0.16083985405E+04  0.16186457765E+04  0.17287594291E+03 0.  0.
        -24    2    5    5    0    0  0.15113798964E+02  0.85821153054E+02  0.13204622957E+04  0.13256008606E+04  0.77480771575E+02 0.  0.
          5    1    3    3  501    0 -0.65166294907E+01 -0.69719109597E+02  0.50544574305E+02  0.86487367254E+02  0.47000000000E+01 0. -1.
        -13    1    4    4    0    0  0.49466983373E+02  0.53206816663E+01  0.20091011551E+03  0.20697866222E+03  0.00000000000E+00 0.  1.
         14    1    4    4    0    0 -0.17144702297E+02  0.14236077950E+02  0.16572884453E+02  0.27771698388E+02  0.00000000000E+00 0. -1.
         -5    1    5    5    0  502 -0.40919450550E+02 -0.35658803073E+02  0.28793624483E+03  0.29304491593E+03  0.47000000000E+01 0.  1.
         11    1    6    6    0    0 -0.55068870242E+00  0.47967777708E+02  0.26259999707E+03  0.26694563007E+03  0.00000000000E+00 0. -1.
        -12    1    6    6    0    0  0.15664487667E+02  0.37853375346E+02  0.10578622986E+04  0.10586552305E+04  0.00000000000E+00 0.  1.
</event>
<event>
12    1  0.8226261E-002  0.1896177E+03  0.7818608E-02  0.1159168E+00
         21   -1    0    0  501  502  0.00000000000E+00  0.00000000000E+00  0.14378663829E+03  0.14378663829E+03  0.00000000000E+00 0.  1.
         21   -1    0    0  502  503 -0.00000000000E+00 -0.00000000000E+00 -0.25940814689E+03  0.25940814689E+03  0.00000000000E+00 0.  1.
         -6    2    1    2    0  503  0.49786430991E+02  0.58023631741E+02 -0.99927583559E+02  0.21292870046E+03  0.17177799327E+03 0.  0.
        -24    2    3    3    0    0  0.44467845861E+02  0.17739263332E+02  0.11275418062E+02  0.94441083998E+02  0.80622034923E+02 0.  0.
          6    2    1    2  501    0 -0.49786430991E+02 -0.58023631741E+02 -0.15693925039E+02  0.19026608472E+03  0.17352075714E+03 0.  0.
         24    2    5    5    0    0 -0.57343603590E+02 -0.10262675636E+03 -0.26317454990E+02  0.14355956513E+03  0.78078167948E+02 0.  0.
          5    1    5    5  501    0  0.75571725992E+01  0.44603124616E+02  0.10623529950E+02  0.46706519585E+02  0.47000000000E+01 0. -1.
        -13    1    6    6    0    0  0.10017062576E+01 -0.36493769875E+02 -0.40176387974E+02  0.54285732985E+02  0.00000000000E+00 0.  1.
         14    1    6    6    0    0 -0.58345309848E+02 -0.66132986482E+02  0.13858932985E+02  0.89273832145E+02  0.00000000000E+00 0. -1.
         -5    1    3    3    0  503  0.53185851296E+01  0.40284368410E+02 -0.11120300162E+03  0.11848761647E+03  0.47000000000E+01 0.  1.
         13    1    4    4    0    0 -0.65173061819E+01  0.38134021571E+02  0.19001828741E+01  0.38733571692E+02  0.00000000000E+00 0. -1.
        -14    1    4    4    0    0  0.50985152043E+02 -0.20394758240E+02  0.93752351879E+01  0.55707512306E+02  0.00000000000E+00 0.  1.
</event>
<event>
12    1  0.8226261E-002  0.1900342E+03  0.7818608E-02  0.1158792E+00
         21   -1    0    0  501  502  0.00000000000E+00  0.00000000000E+00  0.34622666858E+03  0.34622666858E+03  0.00000000000E+00 0.  1.
         21   -1    0    0  502  503 -0.00000000000E+00 -0.00000000000E+00 -0.14769472516E+03  0.14769472516E+03  0.00000000000E+00 0. -1.
         -6    2    1    2    0  503  0.75116825870E+02  0.31527240172E+02 -0.36225083472E+02  0.19188853997E+03  0.16991895332E+03 0.  0.
        -24    2    3    3    0    0  0.28686942383E+02 -0.26374323640E+02  0.27132989882E+02  0.94191760943E+02  0.81347053289E+02 0.  0.
          6    2    1    2  501    0 -0.75116825870E+02 -0.31527240172E+02  0.23475702690E+03  0.30203285378E+03  0.17168715351E+03 0.  0.
         24    2    5    5    0    0  0.81817611846E+01 -0.16372177502E+02  0.18883554218E+03  0.20560047701E+03  0.79231967946E+02 0.  0.
          5    1    5    5  501    0 -0.83298587055E+02 -0.15155062670E+02  0.45921484713E+02  0.96432376763E+02  0.47000000000E+01 0. -1.
        -11    1    6    6    0    0 -0.29120464649E+02  0.51587864907E+01  0.12597733471E+03  0.12940209967E+03  0.00000000000E+00 0.  1.
         12    1    6    6    0    0  0.37302225833E+02 -0.21530963992E+02  0.62858207475E+02  0.76198377342E+02  0.00000000000E+00 0. -1.
         -5    1    3    3    0  503  0.46429883487E+02  0.57901563812E+02 -0.63358073354E+02  0.97696779024E+02  0.47000000000E+01 0.  1.
         11    1    4    4    0    0  0.27903860820E+02 -0.24347999520E+02 -0.23273114861E+02  0.43738866065E+02  0.00000000000E+00 0. -1.
        -12    1    4    4    0    0  0.78308156268E+00 -0.20263241203E+01  0.50406104743E+02  0.50452894878E+02  0.00000000000E+00 0.  1.
</event>
<event>
12    1  0.8226261E-002  0.2340348E+03  0.7818608E-02  0.1123989E+00
         21   -1    0    0  501  502  0.00000000000E+00  0.00000000000E+00  0.13076673128E+04  0.13076673128E+04  0.00000000000E+00 0. -1.
         21   -1    0    0  502  503 -0.00000000000E+00 -0.00000000000E+00 -0.55756982538E+02  0.55756982538E+02  0.00000000000E+00 0.  1.
         -6    2    1    2    0  503 -0.44896207697E+02  0.14998132798E+03  0.28484963914E+03  0.36866192680E+03  0.17396042983E+03 0.  0.
        -24    2    3    3    0    0 -0.82937307477E+02  0.57912243591E+02  0.12732841076E+03  0.18222462109E+03  0.82224469680E+02 0.  0.
          6    2    1    2  501    0  0.44896207697E+02 -0.14998132798E+03  0.96706069109E+03  0.99476236850E+03  0.17273019809E+03 0.  0.
         24    2    5    5    0    0  0.80153152075E+02 -0.84312697567E+02  0.78422626112E+03  0.79726315349E+03  0.84169760194E+02 0.  0.
          5    1    5    5  501    0 -0.35256944378E+02 -0.65668630411E+02  0.18283442997E+03  0.19749921501E+03  0.47000000000E+01 0. -1.
        -13    1    6    6    0    0 -0.40172619871E+01  0.81334921578E+01  0.12330787351E+02  0.15308180991E+02  0.00000000000E+00 0.  1.
         14    1    6    6    0    0  0.84170414062E+02 -0.92446189725E+02  0.77189547377E+03  0.78195497250E+03  0.00000000000E+00 0. -1.
         -5    1    3    3    0  503  0.38041099780E+02  0.92069084387E+02  0.15752122837E+03  0.18643730571E+03  0.47000000000E+01 0.  1.
         13    1    4    4    0    0  0.71354383878E+01  0.15123766324E+02 -0.41288797221E+01  0.17224704252E+02  0.00000000000E+00 0. -1.
        -14    1    4    4    0    0 -0.90072745865E+02  0.42788477267E+02  0.13145729049E+03  0.16499991684E+03  0.00000000000E+00 0.  1.
</event>
<event>
12    1  0.8226261E-002  0.1913625E+03  0.7818608E-02  0.1157584E+00
         21   -1    0    0  501  502  0.00000000000E+00  0.00000000000E+00  0.88445706579E+03  0.88445706579E+03  0.00000000000E+00 0.  1.
         21   -1    0    0  502  503 -0.00000000000E+00 -0.00000000000E+00 -0.59779697536E+02  0.59779697536E+02  0.00000000000E+00 0.  1.
         -6    2    1    2    0  503 -0.62905908239E+02 -0.52375219693E+02  0.14707748371E+03  0.24013363300E+03  0.17126604612E+03 0.  0.
        -24    2    3    3    0    0 -0.83440046352E+02 -0.20717767438E+02  0.36021534441E+02  0.12274811865E+03  0.79862897930E+02 0.  0.
          6    2    1    2  501    0  0.62905908239E+02  0.52375219693E+02  0.67759988454E+03  0.70410313032E+03  0.17297195631E+03 0.  0.
         24    2    5    5    0    0  0.60422005664E+02  0.61705245717E+02  0.68231406815E+03  0.69237569732E+03  0.79832715922E+02 0.  0.
          5    1    5    5  501    0  0.24839025751E+01 -0.93300260236E+01 -0.47141836105E+01  0.11727432998E+02  0.47000000000E+01 0. -1.
        -13    1    6    6    0    0  0.55756802213E+01 -0.17461857314E+02  0.62812399086E+02  0.65432424300E+02  0.00000000000E+00 0.  1.
         14    1    6    6    0    0  0.54846325443E+02  0.79167103031E+02  0.61950166906E+03  0.62694327302E+03  0.00000000000E+00 0. -1.
         -5    1    3    3    0  503  0.20534138113E+02 -0.31657452255E+02  0.11105594927E+03  0.11738551435E+03  0.47000000000E+01 0.  1.
         11    1    4    4    0    0 -0.16743436428E+01  0.22650610915E+02 -0.17559770688E+01  0.22780190011E+02  0.00000000000E+00 0. -1.
        -12    1    4    4    0    0 -0.81765702710E+02 -0.43368378353E+02  0.37777511510E+02  0.99967928639E+02  0.00000000000E+00 0.  1.
</event>
<event>
12    1  0.8226261E-002  0.1872621E+03  0.7818608E-02  0.1161376E+00
         21   -1    0    0  503  502  0.00000000000E+00  0.00000000000E+00  0.89471517538E+02  0.89471517538E+02  0.00000000000E+00 0.  1.
         21   -1    0    0  501  503 -0.00000000000E+00 -0.00000000000E+00 -0.38970062777E+03  0.38970062777E+03  0.00000000000E+00 0.  1.
          6    2    1    2  501    0  0.28099425188E+02  0.63503456612E+02 -0.16610915817E+03  0.25031846427E+03  0.17391036321E+03 0.  0.
         24    2    3    3    0    0  0.10141788464E+02  0.91470474071E+02 -0.61014235124E+02  0.13999320138E+03  0.86056121491E+02 0.  0.
         -6    2    1    2    0  502 -0.28099425188E+02 -0.63503456612E+02 -0.13411995206E+03  0.22885368103E+03  0.17194062662E+03 0.  0.
        -24    2    5    5    0    0  0.25455997418E+02 -0.46562907541E+02 -0.14264225241E+03  0.17184591755E+03  0.79800344888E+02 0.  0.
          5    1    3    3  501    0  0.17957636724E+02 -0.27967017458E+02 -0.10509492304E+03  0.11032526289E+03  0.47000000000E+01 0. -1.
        -11    1    4    4    0    0 -0.28240556103E+02  0.94761453492E+01 -0.34660822817E+02  0.45702286355E+02  0.00000000000E+00 0.  1.
         12    1    4    4    0    0  0.38382344567E+02  0.81994328721E+02 -0.26353412307E+02  0.94290915030E+02  0.00000000000E+00 0. -1.
         -5    1    5    5    0  502 -0.53555422606E+02 -0.16940549071E+02  0.85223003497E+01  0.57007763476E+02  0.47000000000E+01 0.  1.
         13    1    6    6    0    0 -0.13620192167E+02 -0.30365047603E+02 -0.11862073234E+03  0.12320074631E+03  0.00000000000E+00 0. -1.
        -14    1    6    6    0    0  0.39076189585E+02 -0.16197859938E+02 -0.24021520074E+02  0.48645171248E+02  0.00000000000E+00 0.  1.
</event>
<event>
12    1  0.8226261E-002  0.2297540E+03  0.7818608E-02  0.1126944E+00
         21   -1    0    0  503  502  0.00000000000E+00  0.00000000000E+00  0.31285659123E+02  0.31285659123E+02  0.00000000000E+00 0. -1.
         21   -1    0    0  501  503 -0.00000000000E+00 -0.00000000000E+00 -0.17171345411E+04  0.17171345411E+04  0.00000000000E+00 0. -1.
          6    2    1    2  501    0 -0.14399774675E+03 -0.48210459602E+02 -0.96962218701E+03  0.99647081597E+03  0.17241607246E+03 0.  0.
         24    2    3    3    0    0 -0.30050417891E+02  0.24475944197E+02 -0.28746135302E+03  0.30103368690E+03  0.80530439640E+02 0.  0.
         -6    2    1    2    0  502  0.14399774675E+03  0.48210459602E+02 -0.71622669493E+03  0.75194938422E+03  0.17142811444E+03 0.  0.
        -24    2    5    5    0    0  0.96824310264E+02 -0.32215745070E+02 -0.49456618167E+03  0.51143081811E+03  0.80950431558E+02 0.  0.
          5    1    3    3  501    0 -0.11394732886E+03 -0.72686403799E+02 -0.68216083399E+03  0.69543712906E+03  0.47000000000E+01 0. -1.
        -13    1    4    4    0    0  0.25351301074E+02  0.50340890987E+01 -0.48412298908E+02  0.54879697564E+02  0.00000000000E+00 0.  1.
         14    1    4    4    0    0 -0.55401718965E+02  0.19441855098E+02 -0.23904905411E+03  0.24615398934E+03  0.00000000000E+00 0. -1.
         -5    1    5    5    0  502  0.47173436482E+02  0.80426204672E+02 -0.22166051326E+03  0.24051856611E+03  0.47000000000E+01 0.  1.
         11    1    6    6    0    0  0.99565730590E+02 -0.11995626607E+02 -0.46376266484E+03  0.47448186379E+03  0.00000000000E+00 0. -1.
        -12    1    6    6    0    0 -0.27414203258E+01 -0.20220118463E+02 -0.30803516829E+02  0.36948954317E+02  0.00000000000E+00 0.  1.
</event>
<event>
12    1  0.8226261E-002  0.1767572E+03  0.7818608E-02  0.1171148E+00
         21   -1    0    0  503  502  0.00000000000E+00  0.00000000000E+00  0.57271150141E+03  0.57271150141E+03  0.00000000000E+00 0.  1.
         21   -1    0    0  501  503 -0.00000000000E+00 -0.00000000000E+00 -0.82707302857E+02  0.82707302857E+02  0.00000000000E+00 0.  1.
          6    2    1    2  501    0  0.40295401960E+02 -0.15763955457E+02  0.43660445797E+03  0.47077146389E+03  0.17067541355E+03 0.  0.
         24    2    3    3    0    0 -0.38984427450E+02  0.96354096549E+01  0.23931029715E+03  0.25658113967E+03  0.83377672130E+02 0.  0.
         -6    2    1    2    0  502 -0.40295401960E+02  0.15763955457E+02  0.53399740586E+02  0.18464734037E+03  0.17137936369E+03 0.  0.
        -24    2    5    5    0    0 -0.81015059433E+02  0.42397645420E+02  0.61244421575E+02  0.13513902828E+03  0.78426255802E+02 0.  0.
          5    1    3    3  501    0  0.79279829410E+02 -0.25399365112E+02  0.19729416082E+03  0.21419032423E+03  0.47000000000E+01 0. -1.
        -11    1    4    4    0    0 -0.17587214545E+00 -0.30741797696E+02  0.13203888568E+03  0.13557048495E+03  0.00000000000E+00 0.  1.
         12    1    4    4    0    0 -0.38808555305E+02  0.40377207351E+02  0.10727141147E+03  0.12101065472E+03  0.00000000000E+00 0. -1.
         -5    1    5    5    0  502  0.40719657473E+02 -0.26633689963E+02 -0.78446809898E+01  0.49508312086E+02  0.47000000000E+01 0.  1.
         13    1    6    6    0    0 -0.28460973090E+02 -0.49584664765E+01 -0.13791909155E+02  0.32012968266E+02  0.00000000000E+00 0. -1.
        -14    1    6    6    0    0 -0.52554086343E+02  0.47356111897E+02  0.75036330730E+02  0.10312606002E+03  0.00000000000E+00 0.  1.
</event>
<event>
12    1  0.8226261E-002  0.1771279E+03  0.7818608E-02  0.1170982E+00
         21   -1    0    0  501  502  0.00000000000E+00  0.00000000000E+00  0.61215112702E+03  0.61215112702E+03  0.00000000000E+00 0. -1.
         21   -1    0    0  502  503 -0.00000000000E+00 -0.00000000000E+00 -0.50879377922E+02  0.50879377922E+02  0.00000000000E+00 0. -1.
         -6    2    1    2    0  503  0.29717406796E+02  0.20750166425E+02  0.27073500085E+03  0.32353009375E+03  0.17337989274E+03 0.  0.
        -24    2    3    3    0    0  0.30138745951E+02  0.65577648198E+01  0.28795291817E+03  0.30072333013E+03  0.81032647224E+02 0.  0.
          6    2    1    2  501    0 -0.29717406796E+02 -0.20750166425E+02  0.29053674825E+03  0.33950041119E+03  0.17185817828E+03 0.  0.
         24    2    5    5    0    0 -0.65671231498E+02 -0.58117066159E+02  0.16551902500E+03  0.20407336871E+03  0.80988197640E+02 0.  0.
          5    1    5    5  501    0  0.35953824702E+02  0.37366899734E+02  0.12501772325E+03  0.13542704248E+03  0.47000000000E+01 0. -1.
        -13    1    6    6    0    0 -0.23016202569E+02 -0.37814537064E+02  0.15678918418E+02  0.46962892552E+02  0.00000000000E+00 0.  1.
         14    1    6    6    0    0 -0.42655028929E+02 -0.20302529095E+02  0.14984010658E+03  0.15711047616E+03  0.00000000000E+00 0. -1.
         -5    1    3    3    0  503 -0.42133915504E+00  0.14192401605E+02 -0.17217917320E+02  0.22806763621E+02  0.47000000000E+01 0.  1.
         13    1    4    4    0    0  0.47846800548E+02 -0.22024497895E+02  0.16123603057E+03  0.16962149741E+03  0.00000000000E+00 0. -1.
        -14    1    4    4    0    0 -0.17708054598E+02  0.28582262715E+02  0.12671688761E+03  0.13110183273E+03  0.00000000000E+00 0.  1.
</event>
<event>
12    1  0.8226261E-002  0.1756285E+03  0.7818608E-02  0.1172765E+00
         21   -1    0    0  503  502  0.00000000000E+00  0.00000000000E+00  0.31755446104E+02  0.31755446104E+02  0.00000000000E+00 0. -1.
         21   -1    0    0  501  503 -0.00000000000E+00 -0.00000000000E+00 -0.98362533907E+03  0.98362533907E+03  0.00000000000E+00 0. -1.
          6    2    1    2  501    0  0.90441614804E+01  0.21439488818E+02 -0.55621795841E+03  0.58249995788E+03  0.17142442980E+03 0.  0.
         24    2    3    3    0    0  0.61322164113E+02  0.36079577900E+02 -0.25965168532E+03  0.28096892116E+03  0.80389011790E+02 0.  0.
         -6    2    1    2    0  502 -0.90441614804E+01 -0.21439488818E+02 -0.39565193455E+03  0.43288082730E+03  0.17408017919E+03 0.  0.
        -24    2    5    5    0    0  0.49912667579E+01 -0.26005154749E+02 -0.40579216984E+03  0.41436723977E+03  0.79572253179E+02 0.  0.
          5    1    3    3  501    0 -0.52278002633E+02 -0.14640089082E+02 -0.29656627309E+03  0.30153103672E+03  0.47000000000E+01 0. -1.
        -11    1    4    4    0    0  0.22615336064E+02  0.19146991329E+02 -0.15988889327E+02  0.33670540301E+02  0.00000000000E+00 0.  1.
         12    1    4    4    0    0  0.38706828049E+02  0.16932586572E+02 -0.24366279599E+03  0.24729838086E+03  0.00000000000E+00 0. -1.
         -5    1    5    5    0  502 -0.14035428238E+02  0.45656659314E+01  0.10140235287E+02  0.18513587521E+02  0.47000000000E+01 0.  1.
         11    1    6    6    0    0  0.72153363622E+01 -0.30648897984E+02 -0.53794307843E+02  0.62331722123E+02  0.00000000000E+00 0. -1.
        -12    1    6    6    0    0 -0.22240696043E+01  0.46437432343E+01 -0.35199786200E+03  0.35203551765E+03  0.00000000000E+00 0.  1.
</event>
<event>
12    1  0.8226261E-002  0.3035444E+03  0.7818608E-02  0.1083681E+00
         21   -1    0    0  501  502  0.00000000000E+00  0.00000000000E+00  0.15340229637E+03  0.15340229637E+03  0.00000000000E+00 0. -1.
         21   -1    0    0  502  503 -0.00000000000E+00 -0.00000000000E+00 -0.61804262469E+03  0.61804262469E+03  0.00000000000E+00 0.  1.
         -6    2    1    2    0  503  0.78197406915E+02  0.23550496663E+03 -0.16251741559E+03  0.34431249182E+03  0.17481921490E+03 0.  0.
        -24    2    3    3    0    0  0.79073166346E+02  0.65338281352E+02 -0.97044017295E+02  0.16192191197E+03  0.79243344442E+02 0.  0.
          6    2    1    2  501    0 -0.78197406915E+02 -0.23550496663E+03 -0.30212291272E+03  0.42713242924E+03  0.17200707533E+03 0.  0.
         24    2    5    5    0    0 -0.11230188854E+03 -0.13455428802E+03 -0.22043982006E+03  0.29278819675E+03  0.80091468267E+02 0.  0.
          5    1    5    5  501    0  0.34104481627E+02 -0.10095067860E+03 -0.81683092656E+02  0.13434423249E+03  0.47000000000E+01 0. -1.
        -11    1    6    6    0    0 -0.38351438822E+02 -0.26017780816E+02 -0.11624170059E+03  0.12513948511E+03  0.00000000000E+00 0.  1.
         12    1    6    6    0    0 -0.73950449720E+02 -0.10853650721E+03 -0.10419811947E+03  0.16764871163E+03  0.00000000000E+00 0. -1.
         -5    1    3    3    0  503 -0.87575943068E+00  0.17016668528E+03 -0.65473398300E+02  0.18239057985E+03  0.47000000000E+01 0.  1.
         11    1    4    4    0    0  0.21316075235E+02  0.54560496921E+02 -0.14053761644E+02  0.60238950058E+02  0.00000000000E+00 0. -1.
        -12    1    4    4    0    0  0.57757091111E+02  0.10777784431E+02 -0.82990255651E+02  0.10168296192E+03  0.00000000000E+00 0.  1.
</event>
<event>
12    1  0.8226261E-002  0.3602190E+03  0.7818608E-02  0.1058595E+00
         21   -1    0    0  501  502  0.00000000000E+00  0.00000000000E+00  0.30758506251E+03  0.30758506251E+03  0.00000000000E+00 0.  1.
         21   -1    0    0  502  503 -0.00000000000E+00 -0.00000000000E+00 -0.20065795445E+04  0.20065795445E+04  0.00000000000E+00 0. -1.
         -6    2    1    2    0  503  0.26476818149E+03  0.17035890863E+03 -0.18783991686E+04  0.19126267760E+04  0.17502399827E+03 0.  0.
        -24    2    3    3    0    0  0.73331146109E+02  0.22768213029E+02 -0.80176732490E+03  0.80918245532E+03  0.77778880270E+02 0.  0.
          6    2    1    2  501    0 -0.26476818149E+03 -0.17035890863E+03  0.17940468661E+03  0.40153783103E+03  0.17298046274E+03 0.  0.
         24    2    5    5    0    0 -0.24530056277E+03 -0.17765678074E+03  0.20041959785E+03  0.37160517979E+03  0.78664455776E+02 0.  0.
          5    1    5    5  501    0 -0.19467618716E+02  0.72978721054E+01 -0.21014911244E+02  0.29932651241E+02  0.47000000000E+01 0. -1.
        -13    1    6    6    0    0 -0.85059615967E+02 -0.10416785578E+03  0.10847326059E+03  0.17277884335E+03  0.00000000000E+00 0.  1.
         14    1    6    6    0    0 -0.16024094681E+03 -0.73488924958E+02  0.91946337255E+02  0.19882633643E+03  0.00000000000E+00 0. -1.
         -5    1    3    3    0  503  0.19143703538E+03  0.14759069560E+03 -0.10766318437E+04  0.11034443207E+04  0.47000000000E+01 0.  1.
         13    1    4    4    0    0  0.73100327903E+02  0.10381682295E+02 -0.78430071124E+03  0.78776839421E+03  0.00000000000E+00 0. -1.
        -14    1    4    4    0    0  0.23081820583E+00  0.12386530734E+02 -0.17466613660E+02  0.21414061115E+02  0.00000000000E+00 0.  1.
</event>
<event>
12    1  0.8226261E-002  0.2143686E+03  0.7818608E-02  0.1138314E+00
         21   -1    0    0  503  502  0.00000000000E+00  0.00000000000E+00  0.24841172774E+04  0.24841172774E+04  0.00000000000E+00 0.  1.
         21   -1    0    0  501  503 -0.00000000000E+00 -0.00000000000E+00 -0.18808645481E+02  0.18808645481E+02  0.00000000000E+00 0.  1.
          6    2    1    2  501    0  0.94180443052E+01 -0.12604347228E+03  0.10567110229E+04  0.10782356408E+04  0.17314229616E+03 0.  0.
         24    2    3    3    0    0  0.35331518325E+02 -0.42471743402E+01  0.49816621564E+03  0.50595927571E+03  0.80986761848E+02 0.  0.
         -6    2    1    2    0  502 -0.94180443052E+01  0.12604347228E+03  0.14085976090E+04  0.14246902821E+04  0.17210322264E+03 0.  0.
        -24    2    5    5    0    0  0.48681266940E+02  0.29802385105E+02  0.66168292313E+03  0.66934829673E+03  0.83335488632E+02 0.  0.
          5    1    3    3  501    0 -0.25913474019E+02 -0.12179629794E+03  0.55854480722E+03  0.57227636506E+03  0.47000000000E+01 0. -1.
        -13    1    4    4    0    0  0.36142923717E+02 -0.38532705294E+02  0.34329089349E+03  0.34733228740E+03  0.00000000000E+00 0.  1.
         14    1    4    4    0    0 -0.81140539248E+00  0.34285530954E+02  0.15487532214E+03  0.15862698831E+03  0.00000000000E+00 0. -1.
         -5    1    5    5    0  502 -0.58099311245E+02  0.96241087179E+02  0.74691468589E+03  0.75534198535E+03  0.47000000000E+01 0.  1.
         11    1    6    6    0    0  0.68190146911E+02  0.39906440358E+02  0.52434098802E+03  0.53026021144E+03  0.00000000000E+00 0. -1.
        -12    1    6    6    0    0 -0.19508879971E+02 -0.10104055252E+02  0.13734193511E+03  0.13908808529E+03  0.00000000000E+00 0.  1.
</event>
<event>
12    1  0.8226261E-002  0.1918721E+03  0.7818608E-02  0.1157105E+00
         21   -1    0    0  501  502  0.00000000000E+00  0.00000000000E+00  0.75500975721E+02  0.75500975721E+02  0.00000000000E+00 0.  1.
         21   -1    0    0  502  503 -0.00000000000E+00 -0.00000000000E+00 -0.51734434080E+03  0.51734434080E+03  0.00000000000E+00 0.  1.
         -6    2    1    2    0  503  0.77099516289E+00 -0.86900048406E+02 -0.29699740105E+03  0.35358498584E+03  0.17106336000E+03 0.  0.
        -24    2    3    3    0    0  0.81468350344E+01  0.22890804690E+02 -0.14522972023E+03  0.16606444462E+03  0.76781301556E+02 0.  0.
          6    2    1    2  501    0 -0.77099516289E+00  0.86900048406E+02 -0.14484596403E+03  0.23926033068E+03  0.16944892946E+03 0.  0.
         24    2    5    5    0    0 -0.17410099244E+02  0.39423927909E+02 -0.56971619473E+01  0.91222089261E+02  0.80197595147E+02 0.  0.
          5    1    5    5  501    0  0.16639104081E+02  0.47476120497E+02 -0.13914880208E+03  0.14803824142E+03  0.47000000000E+01 0. -1.
        -11    1    6    6    0    0  0.22994580731E+02  0.31022013331E+01  0.20448693552E+02  0.30927713528E+02  0.00000000000E+00 0.  1.
         12    1    6    6    0    0 -0.40404679974E+02  0.36321726576E+02 -0.26145855499E+02  0.60294375733E+02  0.00000000000E+00 0. -1.
         -5    1    3    3    0  503 -0.73758398715E+01 -0.10979085310E+03 -0.15176768082E+03  0.18752054122E+03  0.47000000000E+01 0.  1.
         11    1    4    4    0    0 -0.20773055220E+02  0.20958107090E+02 -0.13003018055E+03  0.13333645386E+03  0.00000000000E+00 0. -1.
        -12    1    4    4    0    0  0.28919890254E+02  0.19326976006E+01 -0.15199539681E+02  0.32727990755E+02  0.00000000000E+00 0.  1.
</event>
<event>
12    1  0.8226261E-002  0.2834346E+03  0.7818608E-02  0.1093879E+00
         21   -1    0    0  501  502  0.00000000000E+00  0.00000000000E+00  0.47545060172E+03  0.47545060172E+03  0.00000000000E+00 0.  1.
         21   -1    0    0  502  503 -0.00000000000E+00 -0.00000000000E+00 -0.27681627062E+03  0.27681627062E+03  0.00000000000E+00 0.  1.
         -6    2    1    2    0  503 -0.17749841813E+03 -0.13811536886E+03 -0.13574565235E+03  0.31392321867E+03  0.17187018803E+03 0.  0.
        -24    2    3    3    0    0 -0.28199453470E+02 -0.12567184642E+02 -0.20424686035E+02  0.87265894322E+02  0.79025471884E+02 0.  0.
          6    2    1    2  501    0  0.17749841813E+03  0.13811536886E+03  0.33437998344E+03  0.43834365367E+03  0.17249243993E+03 0.  0.
         24    2    5    5    0    0  0.43477986799E+02  0.79317755354E+02  0.22331530575E+03  0.25456093414E+03  0.82157785733E+02 0.  0.
          5    1    5    5  501    0  0.13402043133E+03  0.58797613506E+02  0.11106467769E+03  0.18378271953E+03  0.47000000000E+01 0. -1.
        -13    1    6    6    0    0  0.12334625657E+02  0.78220759268E+02  0.10101934148E+03  0.12835707041E+03  0.00000000000E+00 0.  1.
         14    1    6    6    0    0  0.31143361142E+02  0.10969960855E+01  0.12229596427E+03  0.12620386373E+03  0.00000000000E+00 0. -1.
         -5    1    3    3    0  503 -0.14929896466E+03 -0.12554818422E+03 -0.11532096632E+03  0.22665732435E+03  0.47000000000E+01 0.  1.
         11    1    4    4    0    0 -0.45476621683E+02  0.25675522815E+00  0.13192875612E+02  0.47352307334E+02  0.00000000000E+00 0. -1.
        -12    1    4    4    0    0  0.17277168212E+02 -0.12823939870E+02 -0.33617561647E+02  0.39913586989E+02  0.00000000000E+00 0.  1.
</event>
<event>
12    1  0.8226261E-002  0.2494564E+03  0.7818608E-02  0.1113690E+00
         21   -1    0    0  503  502  0.00000000000E+00  0.00000000000E+00  0.82161693905E+03  0.82161693905E+03  0.00000000000E+00 0. -1.
         21   -1    0    0  501  503 -0.00000000000E+00 -0.00000000000E+00 -0.84126689769E+02  0.84126689769E+02  0.00000000000E+00 0.  1.
          6    2    1    2  501    0 -0.11821673217E+03  0.13766981930E+03  0.22490433830E+03  0.33567975404E+03  0.17079449925E+03 0.  0.
         24    2    3    3    0    0 -0.39193843993E+02  0.58637418656E+02  0.19086857927E+03  0.21875559015E+03  0.80303732157E+02 0.  0.
         -6    2    1    2    0  502  0.11821673217E+03 -0.13766981930E+03  0.51258591098E+03  0.57006387478E+03  0.17117339244E+03 0.  0.
        -24    2    5    5    0    0  0.16774615694E+02 -0.77078361981E+01  0.12502431401E+03  0.14886712563E+03  0.78673652064E+02 0.  0.
          5    1    3    3  501    0 -0.79022888179E+02  0.79032400646E+02  0.34035759037E+02  0.11692416389E+03  0.47000000000E+01 0. -1.
        -11    1    4    4    0    0  0.11876521678E+02 -0.23711707770E+01  0.87392625406E+02  0.88227802837E+02  0.00000000000E+00 0.  1.
         12    1    4    4    0    0 -0.51070365671E+02  0.61008589433E+02  0.10347595386E+03  0.13052778732E+03  0.00000000000E+00 0. -1.
         -5    1    5    5    0  502  0.10144211648E+03 -0.12996198310E+03  0.38756159697E+03  0.42119674915E+03  0.47000000000E+01 0.  1.
         11    1    6    6    0    0 -0.18501001071E+02 -0.16622231648E+02  0.77083716802E+01  0.26038521839E+02  0.00000000000E+00 0. -1.
        -12    1    6    6    0    0  0.35275616765E+02  0.89143954504E+01  0.11731594233E+03  0.12282860379E+03  0.00000000000E+00 0.  1.
</event>
<event>
12    1  0.8226261E-002  0.1939128E+03  0.7818608E-02  0.1155238E+00
         21   -1    0    0  503  502  0.00000000000E+00  0.00000000000E+00  0.22468862409E+02  0.22468862409E+02  0.00000000000E+00 0.  1.
         21   -1    0    0  501  503 -0.00000000000E+00 -0.00000000000E+00 -0.18023803800E+04  0.18023803800E+04  0.00000000000E+00 0.  1.
          6    2    1    2  501    0  0.30616743575E+02 -0.82117704987E+02 -0.63908653927E+03  0.66785759296E+03  0.17297819904E+03 0.  0.
         24    2    3    3    0    0  0.51396442691E+02 -0.53264316642E+02 -0.20143283835E+03  0.22873669179E+03  0.79161885134E+02 0.  0.
         -6    2    1    2    0  502 -0.30616743575E+02  0.82117704987E+02 -0.11408249783E+04  0.11569916494E+04  0.17166054663E+03 0.  0.
        -24    2    5    5    0    0 -0.61835095328E+02  0.26810991237E+01 -0.56153732037E+03  0.57143119955E+03  0.85899280185E+02 0.  0.
          5    1    3    3  501    0 -0.20779699116E+02 -0.28853388345E+02 -0.43765370093E+03  0.43912090117E+03  0.47000000000E+01 0. -1.
        -11    1    4    4    0    0  0.68751947218E+02 -0.52438100306E+02 -0.13702210686E+03  0.16202358587E+03  0.00000000000E+00 0.  1.
         12    1    4    4    0    0 -0.17355504527E+02 -0.82621633600E+00 -0.64410731488E+02  0.66713105921E+02  0.00000000000E+00 0. -1.
         -5    1    5    5    0  502  0.31218351753E+02  0.79436605863E+02 -0.57928765794E+03  0.58556044989E+03  0.47000000000E+01 0.  1.
         11    1    6    6    0    0 -0.62458365222E+02  0.36290809370E+02 -0.37761885243E+03  0.38446595160E+03  0.00000000000E+00 0. -1.
        -12    1    6    6    0    0  0.62326989385E+00 -0.33609710246E+02 -0.18391846794E+03  0.18696524794E+03  0.00000000000E+00 0.  1.
</event>
<event>
12    1  0.8226261E-002  0.1808087E+03  0.7818608E-02  0.1167144E+00
         21   -1    0    0  501  502  0.00000000000E+00  0.00000000000E+00  0.49773154313E+03  0.49773154313E+03  0.00000000000E+00 0. -1.
         21   -1    0    0  502  503 -0.00000000000E+00 -0.00000000000E+00 -0.27334697520E+03  0.27334697520E+03  0.00000000000E+00 0. -1.
         -6    2    1    2    0  503 -0.35840304515E+02  0.22754299826E+02 -0.22395974756E+03  0.28783633315E+03  0.17575409118E+03 0.  0.
        -24    2    3    3    0    0 -0.33980141579E+01  0.25847251446E+02 -0.23763926387E+03  0.25218121122E+03  0.80270272531E+02 0.  0.
          6    2    1    2  501    0  0.35840304515E+02 -0.22754299826E+02  0.44834431548E+03  0.48324218518E+03  0.17523726409E+03 0.  0.
         24    2    5    5    0    0  0.82993898347E+01 -0.80126985601E+02  0.23946700258E+03  0.26483442685E+03  0.79395306071E+02 0.  0.
          5    1    5    5  501    0  0.27540914680E+02  0.57372685775E+02  0.20887731291E+03  0.21840775834E+03  0.47000000000E+01 0. -1.
        -11    1    6    6    0    0  0.32107808967E+02 -0.36405043977E+01  0.82640211759E+02  0.88733135121E+02  0.00000000000E+00 0.  1.
         12    1    6    6    0    0 -0.23808419132E+02 -0.76486481203E+02  0.15682679082E+03  0.17610129173E+03  0.00000000000E+00 0. -1.
         -5    1    3    3    0  503 -0.32442290357E+02 -0.30929516200E+01  0.13679516312E+02  0.35655121930E+02  0.47000000000E+01 0.  1.
         11    1    4    4    0    0  0.22352333737E+02  0.46346985939E+02 -0.14809455326E+03  0.15677903762E+03  0.00000000000E+00 0. -1.
        -12    1    4    4    0    0 -0.25750347895E+02 -0.20499734492E+02 -0.89544710604E+02  0.95402173603E+02  0.00000000000E+00 0.  1.
</event>
<event>
12    1  0.8226261E-002  0.1953624E+03  0.7818608E-02  0.1153824E+00
         21   -1    0    0  501  502  0.00000000000E+00  0.00000000000E+00  0.53077986408E+02  0.53077986408E+02  0.00000000000E+00 0.  1.
         21   -1    0    0  502  503 -0.00000000000E+00 -0.00000000000E+00 -0.80111544171E+03  0.80111544171E+03  0.00000000000E+00 0.  1.
         -6    2    1    2    0  503 -0.47794012662E+02 -0.80097569786E+02 -0.51182754781E+03  0.54766190402E+03  0.17107376797E+03 0.  0.
        -24    2    3    3    0    0 -0.32356633998E+02  0.10284874702E+02 -0.35084902874E+03  0.36234198460E+03  0.83928198040E+02 0.  0.
          6    2    1    2  501    0  0.47794012662E+02  0.80097569786E+02 -0.23620990749E+03  0.30653152409E+03  0.17165828420E+03 0.  0.
         24    2    5    5    0    0  0.16597039912E+02  0.90201390114E+01  0.40591397907E+01  0.53991314711E+02  0.50415878518E+02 0.  0.
          5    1    5    5  501    0  0.31196972750E+02  0.71077430774E+02 -0.24026904728E+03  0.25254020938E+03  0.47000000000E+01 0. -1.
        -11    1    6    6    0    0  0.57530028510E+01  0.25865902425E+02 -0.11240127259E+02  0.28783370388E+02  0.00000000000E+00 0.  1.
         12    1    6    6    0    0  0.10844037061E+02 -0.16845763414E+02  0.15299267049E+02  0.25207944324E+02  0.00000000000E+00 0. -1.
         -5    1    3    3    0  503 -0.15437378664E+02 -0.90382444488E+02 -0.16097851908E+03  0.18531991942E+03  0.47000000000E+01 0.  1.
         13    1    4    4    0    0  0.95031839982E+01 -0.43358016990E+01 -0.19366768053E+01  0.10623577529E+02  0.00000000000E+00 0. -1.
        -14    1    4    4    0    0 -0.41859817997E+02  0.14620676401E+02 -0.34891235193E+03  0.35171840707E+03  0.00000000000E+00 0.  1.
</event>
<event>
12    1  0.8226261E-002  0.2271647E+03  0.7818608E-02  0.1128660E+00
         21   -1    0    0  501  502  0.00000000000E+00  0.00000000000E+00  0.31893768975E+04  0.31893768975E+04  0.00000000000E+00 0. -1.
         21   -1    0    0  502  503 -0.00000000000E+00 -0.00000000000E+00 -0.21623618357E+02  0.21623618357E+02  0.00000000000E+00 0.  1.
         -6    2    1    2    0  503 -0.88127510157E+02  0.12357430288E+03  0.77795827753E+03  0.81043309543E+03  0.16895459215E+03 0.  0.
        -24    2    3    3    0    0 -0.49584576643E+02  0.29761896663E+02  0.57568920918E+03  0.58411210370E+03  0.80152875124E+02 0.  0.
          6    2    1    2  501    0  0.88127510157E+02 -0.12357430288E+03  0.23897950016E+04  0.24005674204E+04  0.16901693381E+03 0.  0.
         24    2    5    5    0    0  0.37313067323E+02 -0.72601469498E+01  0.62126332893E+03  0.62748043504E+03  0.79489607869E+02 0.  0.
          5    1    5    5  501    0  0.50814442833E+02 -0.11631415593E+03  0.17685316727E+04  0.17730869854E+04  0.47000000000E+01 0. -1.
        -11    1    6    6    0    0 -0.86651660738E+01 -0.24136488126E+02  0.40183575507E+03  0.40265323693E+03  0.00000000000E+00 0.  1.
         12    1    6    6    0    0  0.45978233397E+02  0.16876341176E+02  0.21942757386E+03  0.22482719811E+03  0.00000000000E+00 0. -1.
         -5    1    3    3    0  503 -0.38542933514E+02  0.93812406218E+02  0.20226906835E+03  0.22632099172E+03  0.47000000000E+01 0.  1.
         11    1    4    4    0    0  0.46972619456E+01  0.38008952825E+02  0.14641720563E+03  0.15134312957E+03  0.00000000000E+00 0. -1.
        -12    1    4    4    0    0 -0.54281838588E+02 -0.82470561620E+01  0.42927200356E+03  0.43276897414E+03  0.00000000000E+00 0.  1.
</event>
<event>
12    1  0.8226261E-002  0.2110965E+03  0.7818608E-02  0.1142021E+00
         21   -1    0    0  503  502  0.00000000000E+00  0.00000000000E+00  0.10175896037E+03  0.10175896037E+03  0.00000000000E+00 0. -1.
         21   -1    0    0  501  503 -0.00000000000E+00 -0.00000000000E+00 -0.48038604824E+03  0.48038604824E+03  0.00000000000E+00 0.  1.
          6    2    1    2  501    0 -0.39425817220E+01 -0.11016650853E+03 -0.29138645961E+03  0.35981636122E+03  0.18002650195E+03 0.  0.
         24    2    3    3    0    0 -0.56378407113E+02 -0.23520060683E+02 -0.19775028119E+03  0.22180568548E+03  0.79755064778E+02 0.  0.
         -6    2    1    2    0  502  0.39425817220E+01  0.11016650853E+03 -0.87240628258E+02  0.22232864739E+03  0.17224081015E+03 0.  0.
        -24    2    5    5    0    0  0.35811246994E+02 -0.25169684943E+01 -0.37730454967E+02  0.95102372279E+02  0.79574452178E+02 0.  0.
          5    1    3    3  501    0  0.52435825391E+02 -0.86646447845E+02 -0.93636178423E+02  0.13801067574E+03  0.47000000000E+01 0. -1.
        -13    1    4    4    0    0 -0.23106832885E+02 -0.49113041298E+02 -0.78950587879E+02  0.95808203604E+02  0.00000000000E+00 0.  1.
         14    1    4    4    0    0 -0.33271574228E+02  0.25592980614E+02 -0.11879969331E+03  0.12599748187E+03  0.00000000000E+00 0. -1.
         -5    1    5    5    0  502 -0.31868665272E+02  0.11268347702E+03 -0.49510173291E+02  0.12722627511E+03  0.47000000000E+01 0.  1.
         11    1    6    6    0    0  0.51593300316E+02  0.11555159228E+02 -0.48166938802E+02  0.71522334524E+02  0.00000000000E+00 0. -1.
        -12    1    6    6    0    0 -0.15782053322E+02 -0.14072127722E+02  0.10436483835E+02  0.23580037755E+02  0.00000000000E+00 0.  1.
</event>
<event>
12    1  0.8226261E-002  0.2003165E+03  0.7818608E-02  0.1149772E+00
         21   -1    0    0  501  502  0.00000000000E+00  0.00000000000E+00  0.86363377321E+02  0.86363377321E+02  0.00000000000E+00 0. -1.
         21   -1    0    0  502  503 -0.00000000000E+00 -0.00000000000E+00 -0.51379867033E+03  0.51379867033E+03  0.00000000000E+00 0.  1.
         -6    2    1    2    0  503 -0.63092466921E+02 -0.79831422656E+02 -0.31028368696E+03  0.36932733724E+03  0.17254854450E+03 0.  0.
        -24    2    3    3    0    0  0.28267060132E+02 -0.12854448734E+02 -0.12910551309E+03  0.15559830573E+03  0.81106939876E+02 0.  0.
          6    2    1    2  501    0  0.63092466921E+02  0.79831422656E+02 -0.11715160604E+03  0.23083471041E+03  0.17089894472E+03 0.  0.
         24    2    5    5    0    0  0.97698335253E+02  0.66404779051E+02 -0.12832801560E+03  0.19178547211E+03  0.79743515932E+02 0.  0.
          5    1    5    5  501    0 -0.34605868332E+02  0.13426643605E+02  0.11176409554E+02  0.39049238303E+02  0.47000000000E+01 0. -1.
        -11    1    6    6    0    0  0.66852670271E+02  0.62841142858E+02 -0.13174622598E+03  0.16054705484E+03  0.00000000000E+00 0.  1.
         12    1    6    6    0    0  0.30845664982E+02  0.35636361935E+01  0.34182103854E+01  0.31238417267E+02  0.00000000000E+00 0. -1.
         -5    1    3    3    0  503 -0.91359527053E+02 -0.66976973922E+02 -0.18117817388E+03  0.21372903151E+03  0.47000000000E+01 0.  1.
         11    1    4    4    0    0  0.17224982444E+02  0.31206997807E+02 -0.30040008942E+02  0.46615221436E+02  0.00000000000E+00 0. -1.
        -12    1    4    4    0    0  0.11042077688E+02 -0.44061446541E+02 -0.99065504146E+02  0.10898308430E+03  0.00000000000E+00 0.  1.
</event>
<event>
12    1  0.8226261E-002  0.2675997E+03  0.7818608E-02  0.1103516E+00
         21   -1    0    0  503  502  0.00000000000E+00  0.00000000000E+00  0.18428811823E+03  0.18428811823E+03  0.00000000000E+00 0.  1.
         21   -1    0    0  501  503 -0.00000000000E+00 -0.00000000000E+00 -0.14955147641E+04  0.14955147641E+04  0.00000000000E+00 0.  1.
          6    2    1    2  501    0  0.13335802850E+02 -0.19724455641E+03 -0.13827800841E+04  0.14084354208E+04  0.18035053361E+03 0.  0.
         24    2    3    3    0    0  0.63779219165E+02 -0.92670528186E+02 -0.53553039429E+03  0.55325450867E+03  0.81499279524E+02 0.  0.
         -6    2    1    2    0  502 -0.13335802850E+02  0.19724455641E+03  0.71553438262E+02  0.27136746147E+03  0.17157256758E+03 0.  0.
        -24    2    5    5    0    0 -0.51312691966E+02  0.54665415541E+02  0.51815822400E+02  0.12242881975E+03  0.81747394092E+02 0.  0.
          5    1    3    3  501    0 -0.50443416315E+02 -0.10457402822E+03 -0.84724968981E+03  0.85518091215E+03  0.47000000000E+01 0. -1.
        -11    1    4    4    0    0 -0.29207436581E+01 -0.25132218232E+02 -0.27155632744E+03  0.27273246618E+03  0.00000000000E+00 0.  1.
         12    1    4    4    0    0  0.66699962824E+02 -0.67538309954E+02 -0.26397406685E+03  0.28052204248E+03  0.00000000000E+00 0. -1.
         -5    1    5    5    0  502  0.37976889116E+02  0.14257914087E+03  0.19737615862E+02  0.14893864172E+03  0.47000000000E+01 0.  1.
         11    1    6    6    0    0  0.15368525307E+02 -0.62878661304E+01 -0.28313257308E+01  0.16844739119E+02  0.00000000000E+00 0. -1.
        -12    1    6    6    0    0 -0.66681217273E+02  0.60953281671E+02  0.54647148131E+02  0.10558408063E+03  0.00000000000E+00 0.  1.
</event>
<event>
12    1  0.8226261E-002  0.2537341E+03  0.7818608E-02  0.1110981E+00
         21   -1    0    0  503  502  0.00000000000E+00  0.00000000000E+00  0.54540195016E+03  0.54540195016E+03  0.00000000000E+00 0. -1.
         21   -1    0    0  501  503 -0.00000000000E+00 -0.00000000000E+00 -0.12136621705E+03  0.12136621705E+03  0.00000000000E+00 0.  1.
          6    2    1    2  501    0 -0.17868135162E+03  0.53477353330E+02  0.15654692015E+03  0.29814081850E+03  0.17202952279E+03 0.  0.
         24    2    3    3    0    0 -0.10786689315E+03 -0.20883946412E+02  0.12706284620E+03  0.19120302797E+03  0.91335782497E+02 0.  0.
         -6    2    1    2    0  502  0.17868135162E+03 -0.53477353330E+02  0.26748881295E+03  0.36862734871E+03  0.17189823858E+03 0.  0.
        -24    2    5    5    0    0  0.82186129806E+02 -0.21000484729E+01  0.49922523122E+02  0.12509473127E+03  0.79984144303E+02 0.  0.
          5    1    3    3  501    0 -0.70814458468E+02  0.74361299741E+02  0.29484073956E+02  0.10693779053E+03  0.47000000000E+01 0. -1.
        -11    1    4    4    0    0 -0.28262105811E+02  0.11348606508E+02 -0.76876639032E+01  0.31410789083E+02  0.00000000000E+00 0.  1.
         12    1    4    4    0    0 -0.79604787341E+02 -0.32232552920E+02  0.13475051010E+03  0.15979223888E+03  0.00000000000E+00 0. -1.
         -5    1    5    5    0  502  0.96495221814E+02 -0.51377304857E+02  0.21756628983E+03  0.24353261744E+03  0.47000000000E+01 0.  1.
         13    1    6    6    0    0 -0.95978830482E+01 -0.12986135423E+00 -0.11240376771E+02  0.14781146536E+02  0.00000000000E+00 0. -1.
        -14    1    6    6    0    0  0.91784012854E+02 -0.19701871187E+01  0.61162899893E+02  0.11031358473E+03  0.00000000000E+00 0.  1.
</event>
<event>
12    1  0.8226261E-002  0.2855884E+03  0.7818608E-02  0.1092765E+00
         21   -1    0    0  503  502  0.00000000000E+00  0.00000000000E+00  0.29516334842E+03  0.29516334842E+03  0.00000000000E+00 0. -1.
         21   -1    0    0  501  503 -0.00000000000E+00 -0.00000000000E+00 -0.27572432900E+03  0.27572432900E+03  0.00000000000E+00 0. -1.
          6    2    1    2  501    0  0.63932333695E+02 -0.21863033437E+03  0.13733899469E+02  0.28524231164E+03  0.17113734238E+03 0.  0.
         24    2    3    3    0    0  0.46699314637E+02 -0.23986088496E+03  0.90962239117E+01  0.25711205642E+03  0.79434237858E+02 0.  0.
         -6    2    1    2    0  502 -0.63932333695E+02  0.21863033437E+03  0.57051199590E+01  0.28564536579E+03  0.17226189423E+03 0.  0.
        -24    2    5    5    0    0 -0.47414877578E+02  0.19461608124E+03 -0.51708257620E+02  0.22108611676E+03  0.77985494966E+02 0.  0.
          5    1    3    3  501    0  0.17233019058E+02  0.21230550590E+02  0.46376755571E+01  0.28130255221E+02  0.47000000000E+01 0. -1.
        -13    1    4    4    0    0  0.12056436604E+02 -0.38879697000E+02 -0.28551937676E+02  0.49721239400E+02  0.00000000000E+00 0.  1.
         14    1    4    4    0    0  0.34642878033E+02 -0.20098118796E+03  0.37648161587E+02  0.20739081702E+03  0.00000000000E+00 0. -1.
         -5    1    5    5    0  502 -0.16517456118E+02  0.24014253131E+02  0.57413377579E+02  0.64559249028E+02  0.47000000000E+01 0.  1.
         13    1    6    6    0    0 -0.15424541103E+02  0.13341519024E+03  0.84426025626E+00  0.13430652341E+03  0.00000000000E+00 0. -1.
        -14    1    6    6    0    0 -0.31990336475E+02  0.61200890999E+02 -0.52552517876E+02  0.86779593350E+02  0.00000000000E+00 0.  1.
</event>
<event>
12    1  0.8226261E-002  0.2608632E+03  0.7818608E-02  0.1106797E+00
         21   -1    0    0  501  502  0.00000000000E+00  0.00000000000E+00  0.47419341935E+03  0.47419341935E+03  0.00000000000E+00 0. -1.
         21   -1    0    0  502  503 -0.00000000000E+00 -0.00000000000E+00 -0.21741640211E+03  0.21741640211E+03  0.00000000000E+00 0. -1.
         -6    2    1    2    0  503 -0.15569759621E+03 -0.11702186989E+03 -0.74270190179E+02  0.27013398704E+03  0.17181516320E+03 0.  0.
        -24    2    3    3    0    0 -0.10905476996E+03 -0.15708715380E+02 -0.79950713274E+02  0.15835623049E+03  0.80900386837E+02 0.  0.
          6    2    1    2  501    0  0.15569759621E+03  0.11702186989E+03  0.33104720741E+03  0.42147583442E+03  0.17353318405E+03 0.  0.
         24    2    5    5    0    0  0.14073345588E+03  0.20372659983E+02  0.18520041266E+03  0.24581032042E+03  0.76828184234E+02 0.  0.
          5    1    5    5  501    0  0.14964140323E+02  0.96649209907E+02  0.14584679475E+03  0.17566551400E+03  0.47000000000E+01 0. -1.
        -11    1    6    6    0    0  0.36320136956E+02  0.25317789106E+02  0.16297193495E+02  0.47177762871E+02  0.00000000000E+00 0.  1.
         12    1    6    6    0    0  0.10441331893E+03 -0.49451291230E+01  0.16890321917E+03  0.19863255755E+03  0.00000000000E+00 0. -1.
         -5    1    3    3    0  503 -0.46642826247E+02 -0.10131315451E+03  0.56805230952E+01  0.11177775655E+03  0.47000000000E+01 0.  1.
         13    1    4    4    0    0 -0.49337187414E+02 -0.47084298831E+02 -0.30468163387E+02  0.74695369592E+02  0.00000000000E+00 0. -1.
        -14    1    4    4    0    0 -0.59717582546E+02  0.31375583450E+02 -0.49482549887E+02  0.83660860893E+02  0.00000000000E+00 0.  1.
</event>
<event>
12    1  0.8226261E-002  0.2077441E+03  0.7818608E-02  0.1144260E+00
         21   -1    0    0  503  502  0.00000000000E+00  0.00000000000E+00  0.15921514045E+04  0.15921514045E+04  0.00000000000E+00 0.  1.
         21   -1    0    0  501  503 -0.00000000000E+00 -0.00000000000E+00 -0.28475904861E+02  0.28475904861E+02  0.00000000000E+00 0. -1.
          6    2    1    2  501    0  0.66600115044E+02 -0.93849571073E+02  0.57806775819E+03  0.61426375578E+03  0.17295754186E+03 0.  0.
         24    2    3    3    0    0  0.12353892200E+01 -0.10355442086E+03  0.46517540372E+03  0.48336873987E+03  0.80821644326E+02 0.  0.
         -6    2    1    2    0  502 -0.66600115044E+02  0.93849571073E+02  0.98560774148E+03  0.10063635536E+04  0.16763551135E+03 0.  0.
        -24    2    5    5    0    0 -0.34099038023E+02  0.67105730492E+01  0.71329692571E+03  0.71857058051E+03  0.79645456623E+02 0.  0.
          5    1    3    3  501    0  0.65364725824E+02  0.97048497864E+01  0.11289235447E+03  0.13089501591E+03  0.47000000000E+01 0. -1.
        -13    1    4    4    0    0 -0.13621449154E+02 -0.74960253105E+01  0.20567031699E+03  0.20625715397E+03  0.00000000000E+00 0.  1.
         14    1    4    4    0    0  0.14856838374E+02 -0.96058395549E+02  0.25950508673E+03  0.27711158590E+03  0.00000000000E+00 0. -1.
         -5    1    5    5    0  502 -0.32501077021E+02  0.87138998024E+02  0.27231081577E+03  0.28779297311E+03  0.47000000000E+01 0.  1.
         11    1    6    6    0    0 -0.28780996707E+02  0.32098731716E+02  0.19883913212E+03  0.20345927065E+03  0.00000000000E+00 0. -1.
        -12    1    6    6    0    0 -0.53180413158E+01 -0.25388158666E+02  0.51445779359E+03  0.51511130986E+03  0.00000000000E+00 0.  1.
</event>
<event>
12    1  0.8226261E-002  0.1794939E+03  0.7818608E-02  0.1168350E+00
         21   -1    0    0  503  502  0.00000000000E+00  0.00000000000E+00  0.49225195339E+02  0.49225195339E+02  0.00000000000E+00 0. -1.
         21   -1    0    0  501  503 -0.00000000000E+00 -0.00000000000E+00 -0.81789361056E+03  0.81789361056E+03  0.00000000000E+00 0. -1.
          6    2    1    2  501    0 -0.37152101796E+02 -0.31535265683E+02 -0.57841962443E+03  0.60556068727E+03  0.17251009357E+03 0.  0.
         24    2    3    3    0    0 -0.10716919694E+02  0.47438788313E+02 -0.24815550195E+03  0.26492569104E+03  0.78988465099E+02 0.  0.
         -6    2    1    2    0  502  0.37152101796E+02  0.31535265683E+02 -0.19024879079E+03  0.26155811864E+03  0.17275212119E+03 0.  0.
        -24    2    5    5    0    0 -0.46271685364E+02  0.70022496236E+01 -0.87584518130E+02  0.12693479219E+03  0.79065120546E+02 0.  0.
          5    1    3    3  501    0 -0.26435182101E+02 -0.78974053997E+02 -0.33026412248E+03  0.34063499623E+03  0.47000000000E+01 0. -1.
        -13    1    4    4    0    0  0.20320945856E+02  0.45605185561E+02 -0.82925009179E+02  0.96795304318E+02  0.00000000000E+00 0.  1.
         14    1    4    4    0    0 -0.31037865550E+02  0.18336027522E+01 -0.16523049277E+03  0.16813038672E+03  0.00000000000E+00 0. -1.
         -5    1    5    5    0  502  0.83423787160E+02  0.24533016060E+02 -0.10266427266E+03  0.13462332644E+03  0.47000000000E+01 0.  1.
         13    1    6    6    0    0  0.90842127899E+01  0.18329312493E+02  0.24871106914E+01  0.20607579627E+02  0.00000000000E+00 0. -1.
        -14    1    6    6    0    0 -0.55355898154E+02 -0.11327062870E+02 -0.90071628821E+02  0.10632721257E+03  0.00000000000E+00 0.  1.
</event>
<event>
12    1  0.8226261E-002  0.1923847E+03  0.7818608E-02  0.1159696E+00
         21   -1    0    0  503  502  0.00000000000E+00  0.00000000000E+00  0.99074170813E+02  0.99074170813E+02  0.00000000000E+00 0. -1.
         21   -1    0    0  501  503 -0.00000000000E+00 -0.00000000000E+00 -0.39289911195E+03  0.39289911195E+03  0.00000000000E+00 0. -1.
          6    2    1    2  501    0  0.44185372243E+02  0.12785543947E+01 -0.56760240251E+02  0.18666760375E+03  0.17224717006E+03 0.  0.
         24    2    3    3    0    0  0.60106424603E+02 -0.84817308731E+01 -0.98740267973E+02  0.14048150406E+03  0.79376888494E+02 0.  0.
         -6    2    1    2    0  502 -0.44185372243E+02 -0.12785543947E+01 -0.23706470089E+03  0.30530567902E+03  0.18723755876E+03 0.  0.
        -24    2    5    5    0    0 -0.84081427467E+02 -0.17210504547E+02 -0.23434121162E+03  0.26200406644E+03  0.79777437005E+02 0.  0.
          5    1    3    3  501    0 -0.15921052360E+02  0.97602852678E+01  0.41980027722E+02  0.46186099687E+02  0.47000000000E+01 0. -1.
        -11    1    4    4    0    0  0.46805943009E+02  0.25681363668E+02 -0.26797586393E+02  0.59736415839E+02  0.00000000000E+00 0.  1.
         12    1    4    4    0    0  0.13300481594E+02 -0.34163094541E+02 -0.71942681580E+02  0.80745088223E+02  0.00000000000E+00 0. -1.
         -5    1    5    5    0  502  0.39896055224E+02  0.15931950152E+02 -0.27234892671E+01  0.43301612578E+02  0.47000000000E+01 0.  1.
         13    1    6    6    0    0 -0.74504435884E+02  0.16941561728E+02 -0.19275471015E+03  0.20734586026E+03  0.00000000000E+00 0. -1.
        -14    1    6    6    0    0 -0.95769915831E+01 -0.34152066275E+02 -0.41586501472E+02  0.54658206185E+02  0.00000000000E+00 0.  1.
</event>
<event>
12    1  0.8226261E-002  0.2127077E+03  0.7818608E-02  0.1139829E+00
         21   -1    0    0  503  502  0.00000000000E+00  0.00000000000E+00  0.15804806294E+03  0.15804806294E+03  0.00000000000E+00 0.  1.
         21   -1    0    0  501  503 -0.00000000000E+00 -0.00000000000E+00 -0.31503418304E+03  0.31503418304E+03  0.00000000000E+00 0. -1.
          6    2    1    2  501    0  0.12137261021E+03  0.97301510759E+01 -0.15287667827E+03  0.26033487965E+03  0.17197960476E+03 0.  0.
         24    2    3    3    0    0  0.12731556338E+02  0.37532279925E+02 -0.10789506614E+03  0.13941642620E+03  0.78897592068E+02 0.  0.
         -6    2    1    2    0  502 -0.12137261021E+03 -0.97301510759E+01 -0.41094418338E+01  0.21274736633E+03  0.17440919706E+03 0.  0.
        -24    2    5    5    0    0 -0.10076116262E+03 -0.70515580156E+02 -0.20047563033E+02  0.14644643219E+03  0.76937596668E+02 0.  0.
          5    1    3    3  501    0  0.10864105387E+03 -0.27802128849E+02 -0.44981612130E+02  0.12091845345E+03  0.47000000000E+01 0. -1.
        -11    1    4    4    0    0 -0.20816209947E+02 -0.88831930413E+01 -0.75135812836E+01  0.23847004400E+02  0.00000000000E+00 0.  1.
         12    1    4    4    0    0  0.33547766285E+02  0.46415472966E+02 -0.10038148486E+03  0.11556942180E+03  0.00000000000E+00 0. -1.
         -5    1    5    5    0  502 -0.20611447585E+02  0.60785429080E+02  0.15938121199E+02  0.66300934136E+02  0.47000000000E+01 0.  1.
         11    1    6    6    0    0 -0.43129342567E+02 -0.57665186966E+02 -0.42102526673E+02  0.83414847182E+02  0.00000000000E+00 0. -1.
        -12    1    6    6    0    0 -0.57631820054E+02 -0.12850393190E+02  0.22054963640E+02  0.63031585011E+02  0.00000000000E+00 0.  1.
</event>
<event>
12    1  0.8226261E-002  0.1818578E+03  0.7818608E-02  0.1167526E+00
         21   -1    0    0  501  502  0.00000000000E+00  0.00000000000E+00  0.24950300971E+03  0.24950300971E+03  0.00000000000E+00 0. -1.
         21   -1    0    0  502  503 -0.00000000000E+00 -0.00000000000E+00 -0.12808791268E+03  0.12808791268E+03  0.00000000000E+00 0. -1.
         -6    2    1    2    0  503  0.52246461355E+02  0.22168952094E+02  0.63990509825E+02  0.19278755037E+03  0.17277470610E+03 0.  0.
        -24    2    3    3    0    0  0.90680385346E+02 -0.74968152116E+01  0.74851770133E+02  0.14281474538E+03  0.80710157235E+02 0.  0.
          6    2    1    2  501    0 -0.52246461355E+02 -0.22168952094E+02  0.57424587204E+02  0.18480337203E+03  0.16623341402E+03 0.  0.
         24    2    5    5    0    0 -0.26435976127E+02 -0.78960104221E+02  0.23159661783E+02  0.11347601948E+03  0.73531477408E+02 0.  0.
          5    1    5    5  501    0 -0.25810485228E+02  0.56791152127E+02  0.34264925421E+02  0.71327352550E+02  0.47000000000E+01 0. -1.
        -13    1    6    6    0    0  0.24371896664E+02 -0.12411822967E+02  0.63831778825E+01  0.28085363737E+02  0.00000000000E+00 0.  1.
         14    1    6    6    0    0 -0.50807872791E+02 -0.66548281254E+02  0.16776483900E+02  0.85390655739E+02  0.00000000000E+00 0. -1.
         -5    1    3    3    0  503 -0.38433923990E+02  0.29665767306E+02 -0.10861260308E+02  0.49972804990E+02  0.47000000000E+01 0.  1.
         13    1    4    4    0    0  0.99138352314E+02 -0.13187221758E+02  0.42096848471E+02  0.10851018555E+03  0.00000000000E+00 0. -1.
        -14    1    4    4    0    0 -0.84579669679E+01  0.56904065463E+01  0.32754921662E+02  0.34304559828E+02  0.00000000000E+00 0.  1.
</event>
<event>
12    1  0.8226261E-002  0.3216406E+03  0.7818608E-02  0.1074951E+00
         21   -1    0    0  503  502  0.00000000000E+00  0.00000000000E+00  0.95968232889E+03  0.95968232889E+03  0.00000000000E+00 0.  1.
         21   -1    0    0  501  503 -0.00000000000E+00 -0.00000000000E+00 -0.10764517357E+03  0.10764517357E+03  0.00000000000E+00 0. -1.
          6    2    1    2  501    0  0.26465749781E+03  0.59178709892E+02  0.43010075459E+03  0.53706548213E+03  0.17293629506E+03 0.  0.
         24    2    3    3    0    0  0.14957100286E+03  0.22854689910E+02  0.13292652909E+03  0.21628682628E+03  0.78846099091E+02 0.  0.
         -6    2    1    2    0  502 -0.26465749781E+03 -0.59178709892E+02  0.42193640073E+03  0.53026202033E+03  0.17205165819E+03 0.  0.
        -24    2    5    5    0    0 -0.21369468754E+03 -0.79547463378E+02  0.40717979613E+03  0.47323622329E+03  0.78510624994E+02 0.  0.
          5    1    3    3  501    0  0.11508649496E+03  0.36324019982E+02  0.29717422550E+03  0.32077865585E+03  0.47000000000E+01 0. -1.
        -11    1    4    4    0    0  0.44327615566E+02  0.37279474412E+02  0.20065560894E+02  0.61297010108E+02  0.00000000000E+00 0.  1.
         12    1    4    4    0    0  0.10524338729E+03 -0.14424784501E+02  0.11286096820E+03  0.15498981618E+03  0.00000000000E+00 0. -1.
         -5    1    5    5    0  502 -0.50962810266E+02  0.20368753486E+02  0.14756604602E+02  0.57025797041E+02  0.47000000000E+01 0.  1.
         11    1    6    6    0    0 -0.31439038444E+02  0.57458384355E+01  0.22439927643E+02  0.39050968621E+02  0.00000000000E+00 0. -1.
        -12    1    6    6    0    0 -0.18225564910E+03 -0.85293301814E+02  0.38473986849E+03  0.43418525466E+03  0.00000000000E+00 0.  1.
</event>
<event>
12    1  0.8226261E-002  0.2114959E+03  0.7818608E-02  0.1140634E+00
         21   -1    0    0  503  502  0.00000000000E+00  0.00000000000E+00  0.65652934119E+02  0.65652934119E+02  0.00000000000E+00 0. -1.
         21   -1    0    0  501  503 -0.00000000000E+00 -0.00000000000E+00 -0.23389144848E+04  0.23389144848E+04  0.00000000000E+00 0. -1.
          6    2    1    2  501    0  0.66104383855E+01 -0.12135128716E+03 -0.21490189890E+04  0.21592783132E+04  0.17155286652E+03 0.  0.
         24    2    3    3    0    0  0.54988517270E+02 -0.65205221081E+02 -0.17164856246E+04  0.17204161246E+04  0.78951152639E+02 0.  0.
         -6    2    1    2    0  502 -0.66104383855E+01  0.12135128716E+03 -0.12424256174E+03  0.24528910577E+03  0.17309158983E+03 0.  0.
        -24    2    5    5    0    0  0.11412730226E+01 -0.84608504697E+01 -0.56815122468E+02  0.98729119168E+02  0.80290674028E+02 0.  0.
          5    1    3    3  501    0 -0.48378078884E+02 -0.56146066080E+02 -0.43253336437E+03  0.43886218856E+03  0.47000000000E+01 0. -1.
        -13    1    4    4    0    0  0.19670886267E+02 -0.31349500059E+02 -0.21706261021E+03  0.22019516723E+03  0.00000000000E+00 0.  1.
         14    1    4    4    0    0  0.35317631002E+02 -0.33855721023E+02 -0.14994230144E+04  0.15002209574E+04  0.00000000000E+00 0. -1.
         -5    1    5    5    0  502 -0.77517114081E+01  0.12981213763E+03 -0.67427439271E+02  0.14655998660E+03  0.47000000000E+01 0.  1.
         11    1    6    6    0    0  0.46789464601E+01 -0.38194087332E+01  0.20409418327E+02  0.21284378767E+02  0.00000000000E+00 0. -1.
        -12    1    6    6    0    0 -0.35376734375E+01 -0.46414417365E+01 -0.77224540795E+02  0.77444740401E+02  0.00000000000E+00 0.  1.
</event>
<event>
12    1  0.8226261E-002  0.1872782E+03  0.7818608E-02  0.1161640E+00
         21   -1    0    0  501  502  0.00000000000E+00  0.00000000000E+00  0.18310854584E+02  0.18310854584E+02  0.00000000000E+00 0. -1.
         21   -1    0    0  502  503 -0.00000000000E+00 -0.00000000000E+00 -0.21594729165E+04  0.21594729165E+04  0.00000000000E+00 0. -1.
         -6    2    1    2    0  503 -0.62754627184E+01  0.64389145211E+02 -0.14666180979E+04  0.14785268943E+04  0.17574922132E+03 0.  0.
        -24    2    3    3    0    0 -0.23570331722E+02  0.86994638872E+00 -0.12314715129E+04  0.12342937935E+04  0.80017274752E+02 0.  0.
          6    2    1    2  501    0  0.62754627184E+01 -0.64389145211E+02 -0.67454396410E+03  0.69925687681E+03  0.17252616268E+03 0.  0.
         24    2    5    5    0    0  0.68958915164E+02 -0.34915716936E+02 -0.38724377637E+03  0.40368728085E+03  0.83852484252E+02 0.  0.
          5    1    5    5  501    0 -0.62683452445E+02 -0.29473428275E+02 -0.28730018773E+03  0.29556959595E+03  0.47000000000E+01 0. -1.
        -13    1    6    6    0    0  0.84258672088E+01 -0.44873050236E+02 -0.23777744762E+03  0.24212125159E+03  0.00000000000E+00 0.  1.
         14    1    6    6    0    0  0.60533047955E+02  0.99573332997E+01 -0.14946632875E+03  0.16156602926E+03  0.00000000000E+00 0. -1.
         -5    1    3    3    0  503  0.17294869003E+02  0.63519198823E+02 -0.23514658493E+03  0.24423310078E+03  0.47000000000E+01 0.  1.
         13    1    4    4    0    0 -0.35951103137E+02 -0.28287684043E+02 -0.48561657231E+03  0.48776647096E+03  0.00000000000E+00 0. -1.
        -14    1    4    4    0    0  0.12380771416E+02  0.29157630431E+02 -0.74585494062E+03  0.74652732258E+03  0.00000000000E+00 0.  1.
</event>
<event>
12    1  0.8226261E-002  0.1812761E+03  0.7818608E-02  0.1166749E+00
         21   -1    0    0  501  502  0.00000000000E+00  0.00000000000E+00  0.29954264666E+03  0.29954264666E+03  0.00000000000E+00 0. -1.
         21   -1    0    0  502  503 -0.00000000000E+00 -0.00000000000E+00 -0.11461405144E+03  0.11461405144E+03  0.00000000000E+00 0.  1.
         -6    2    1    2    0  503 -0.25163294153E+02  0.48410378026E+02  0.47894717849E+02  0.18749649584E+03  0.17287069122E+03 0.  0.
        -24    2    3    3    0    0  0.22720896801E+02  0.16270263990E+02  0.84282272513E+02  0.11914426978E+03  0.79441141227E+02 0.  0.
          6    2    1    2  501    0  0.25163294153E+02 -0.48410378026E+02  0.13703387737E+03  0.22666020226E+03  0.17210406058E+03 0.  0.
         24    2    5    5    0    0  0.45461375373E+02 -0.80909130834E+02  0.14142511374E+03  0.18780722307E+03  0.81593297141E+02 0.  0.
          5    1    5    5  501    0 -0.20298081220E+02  0.32498752808E+02 -0.43912363675E+01  0.38852979192E+02  0.47000000000E+01 0. -1.
        -13    1    6    6    0    0 -0.14734245202E+02  0.75655928398E+01  0.19000635924E+02  0.25206355195E+02  0.00000000000E+00 0.  1.
         14    1    6    6    0    0  0.60195620576E+02 -0.88474723673E+02  0.12242447781E+03  0.16260086788E+03  0.00000000000E+00 0. -1.
         -5    1    3    3    0  503 -0.47884190954E+02  0.32140114036E+02 -0.36387554664E+02  0.68352226065E+02  0.47000000000E+01 0.  1.
         11    1    4    4    0    0 -0.23461796045E+02  0.14010852459E+01  0.60916766914E+02  0.65293731742E+02  0.00000000000E+00 0. -1.
        -12    1    4    4    0    0  0.46182692846E+02  0.14869178744E+02  0.23365505600E+02  0.53850538037E+02  0.00000000000E+00 0.  1.
</event>
<event>
12    1  0.8226261E-002  0.1772315E+03  0.7818608E-02  0.1171648E+00
         21   -1    0    0  501  502  0.00000000000E+00  0.00000000000E+00  0.11381491360E+03  0.11381491360E+03  0.00000000000E+00 0.  1.
         21   -1    0    0  502  503 -0.00000000000E+00 -0.00000000000E+00 -0.28246191201E+03  0.28246191201E+03  0.00000000000E+00 0.  1.
         -6    2    1    2    0  503 -0.12817635865E+02  0.18867306075E+02 -0.39948109603E+02  0.17724622108E+03  0.17117273264E+03 0.  0.
        -24    2    3    3    0    0  0.55117603667E+02 -0.11011672737E+02 -0.20926258097E+02  0.10048769726E+03  0.80626682008E+02 0.  0.
          6    2    1    2  501    0  0.12817635865E+02 -0.18867306075E+02 -0.12869888880E+03  0.21903060453E+03  0.17575760215E+03 0.  0.
         24    2    5    5    0    0  0.65137416671E+01 -0.79868293756E+02 -0.98880675362E+02  0.15067802277E+03  0.80654233665E+02 0.  0.
          5    1    5    5  501    0  0.63038941979E+01  0.61000987681E+02 -0.29818213440E+02  0.68352581758E+02  0.47000000000E+01 0. -1.
        -11    1    6    6    0    0  0.35300455521E+02 -0.38705594538E+02 -0.17852794816E+02  0.55344082712E+02  0.00000000000E+00 0.  1.
         12    1    6    6    0    0 -0.28786713854E+02 -0.41162699218E+02 -0.81027880546E+02  0.95333940059E+02  0.00000000000E+00 0. -1.
         -5    1    3    3    0  503 -0.67935239532E+02  0.29878978812E+02 -0.19021851506E+02  0.76758523825E+02  0.47000000000E+01 0.  1.
         11    1    4    4    0    0  0.23823061034E+02  0.30896293311E+02 -0.27558033552E+02  0.47765724014E+02  0.00000000000E+00 0. -1.
        -12    1    4    4    0    0  0.31294542633E+02 -0.41907966048E+02  0.66317754550E+01  0.52721973243E+02  0.00000000000E+00 0.  1.
</event>
<event>
12    1  0.8226261E-002  0.1912381E+03  0.7818608E-02  0.1158311E+00
         21   -1    0    0  501  502  0.00000000000E+00  0.00000000000E+00  0.17650347127E+03  0.17650347127E+03  0.00000000000E+00 0.  1.
         21   -1    0    0  502  503 -0.00000000000E+00 -0.00000000000E+00 -0.25812444846E+03  0.25812444846E+03  0.00000000000E+00 0.  1.
         -6    2    1    2    0  503  0.72110578911E+02 -0.71525854414E+01 -0.14193261576E+03  0.23815306765E+03  0.17697717691E+03 0.  0.
        -24    2    3    3    0    0  0.52329272388E+02  0.27114011022E+02 -0.88645390777E+01  0.99247694278E+02  0.79359954789E+02 0.  0.
          6    2    1    2  501    0 -0.72110578911E+02  0.71525854414E+01  0.60311638571E+02  0.19647485207E+03  0.17237685077E+03 0.  0.
         24    2    5    5    0    0 -0.87567439956E+02  0.40063521288E+02  0.85448383292E+02  0.15202274091E+03  0.80847667055E+02 0.  0.
          5    1    5    5  501    0  0.15456861045E+02 -0.32910935847E+02 -0.25136744721E+02  0.44452111163E+02  0.47000000000E+01 0. -1.
        -13    1    6    6    0    0 -0.57992902232E+02 -0.17014269050E+02  0.31798907807E+02  0.68292258700E+02  0.00000000000E+00 0.  1.
         14    1    6    6    0    0 -0.29574537724E+02  0.57077790338E+02  0.53649475484E+02  0.83730482211E+02  0.00000000000E+00 0. -1.
         -5    1    3    3    0  503  0.19781306523E+02 -0.34266596463E+02 -0.13306807668E+03  0.13890537337E+03  0.47000000000E+01 0.  1.
         13    1    4    4    0    0  0.56540726411E+02 -0.12982678876E+02 -0.21229358126E+00  0.58012487987E+02  0.00000000000E+00 0. -1.
        -14    1    4    4    0    0 -0.42114540229E+01  0.40096689898E+02 -0.86522454965E+01  0.41235206291E+02  0.00000000000E+00 0.  1.
</event>
<event>
12    1  0.8226261E-002  0.2090665E+03  0.7818608E-02  0.1142374E+00
         21   -1    0    0  501  502  0.00000000000E+00  0.00000000000E+00  0.29131235399E+03  0.29131235399E+03  0.00000000000E+00 0. -1.
         21   -1    0    0  502  503 -0.00000000000E+00 -0.00000000000E+00 -0.16786770920E+03  0.16786770920E+03  0.00000000000E+00 0.  1.
         -6    2    1    2    0  503 -0.11274577769E+03  0.32032523230E+02 -0.13639514896E+02  0.20917831466E+03  0.17271895677E+03 0.  0.
        -24    2    3    3    0    0 -0.46887337854E+01  0.56175165658E+02  0.45792283798E+01  0.96869790823E+02  0.78645747376E+02 0.  0.
          6    2    1    2  501    0  0.11274577769E+03 -0.32032523230E+02  0.13708415969E+03  0.25000174853E+03  0.17312167541E+03 0.  0.
         24    2    5    5    0    0  0.98960606524E+02  0.42166795567E+02  0.84967451906E+02  0.15816596528E+03  0.78903513215E+02 0.  0.
          5    1    5    5  501    0  0.13785171166E+02 -0.74199318796E+02  0.52116707785E+02  0.91835783245E+02  0.47000000000E+01 0. -1.
        -11    1    6    6    0    0 -0.13456656342E+02  0.25997222903E+01  0.13310041362E+02  0.19104904003E+02  0.00000000000E+00 0.  1.
         12    1    6    6    0    0  0.11241726287E+03  0.39567073276E+02  0.71657410544E+02  0.13906106128E+03  0.00000000000E+00 0. -1.
         -5    1    3    3    0  503 -0.10805704390E+03 -0.24142642428E+02 -0.18218743276E+02  0.11230852384E+03  0.47000000000E+01 0.  1.
         11    1    4    4    0    0 -0.66334062713E+01 -0.19494547869E+02  0.49305731576E+01  0.21174277485E+02  0.00000000000E+00 0. -1.
        -12    1    4    4    0    0  0.19446724859E+01  0.75669713527E+02 -0.35134477781E+00  0.75695513337E+02  0.00000000000E+00 0.  1.
</event>
<event>
12    1  0.8226261E-002  0.3250016E+03  0.7818608E-02  0.1073749E+00
         21   -1    0    0  503  502  0.00000000000E+00  0.00000000000E+00  0.10422343923E+03  0.10422343923E+03  0.00000000000E+00 0. -1.
         21   -1    0    0  501  503 -0.00000000000E+00 -0.00000000000E+00 -0.14065212414E+04  0.14065212414E+04  0.00000000000E+00 0.  1.
          6    2    1    2  501    0  0.20902370317E+02  0.27123514164E+03 -0.10581056082E+04  0.11068936446E+04  0.17782196476E+03 0.  0.
         24    2    3    3    0    0 -0.10758204993E+01  0.20004783208E+03 -0.95855261524E+03  0.98246068142E+03  0.79909835710E+02 0.  0.
         -6    2    1    2    0  502 -0.20902370317E+02 -0.27123514164E+03 -0.24419219390E+03  0.40385103599E+03  0.17164038151E+03 0.  0.
        -24    2    5    5    0    0  0.43727781519E+02 -0.19501021588E+03 -0.20311949908E+03  0.29570136150E+03  0.78997855102E+02 0.  0.
          5    1    3    3  501    0  0.21978190816E+02  0.71187309562E+02 -0.99552993012E+02  0.12443296320E+03  0.47000000000E+01 0. -1.
        -11    1    4    4    0    0 -0.17695533011E+02  0.14582031072E+03 -0.52319232419E+03  0.54342147823E+03  0.00000000000E+00 0.  1.
         12    1    4    4    0    0  0.16619712512E+02  0.54227521355E+02 -0.43536029104E+03  0.43903920319E+03  0.00000000000E+00 0. -1.
         -5    1    5    5    0  502 -0.64630151836E+02 -0.76224925759E+02 -0.41072694822E+02  0.10814967449E+03  0.47000000000E+01 0.  1.
         13    1    6    6    0    0  0.66264255561E+02 -0.16068522726E+03 -0.16251303656E+03  0.23795205584E+03  0.00000000000E+00 0. -1.
        -14    1    6    6    0    0 -0.22536474042E+02 -0.34324988625E+02 -0.40606462516E+02  0.57749305662E+02  0.00000000000E+00 0.  1.
</event>
<event>
12    1  0.8226261E-002  0.2418227E+03  0.7818608E-02  0.1119696E+00
         21   -1    0    0  501  502  0.00000000000E+00  0.00000000000E+00  0.40338688656E+02  0.40338688656E+02  0.00000000000E+00 0. -1.
         21   -1    0    0  502  503 -0.00000000000E+00 -0.00000000000E+00 -0.14393804616E+04  0.14393804616E+04  0.00000000000E+00 0.  1.
         -6    2    1    2    0  503  0.15749454597E+03 -0.54898476274E+02 -0.58457370270E+03  0.63010956207E+03  0.16581095146E+03 0.  0.
        -24    2    3    3    0    0  0.47291285642E+02  0.16484005279E+02 -0.16252822926E+03  0.18808615895E+03  0.80329258394E+02 0.  0.
          6    2    1    2  501    0 -0.15749454597E+03  0.54898476274E+02 -0.81446807021E+03  0.84960958815E+03  0.17509951505E+03 0.  0.
         24    2    5    5    0    0 -0.78099319771E+02 -0.37461383447E+02 -0.38597341977E+03  0.40411693828E+03  0.82656881354E+02 0.  0.
          5    1    5    5  501    0 -0.79395226202E+02  0.92359859721E+02 -0.42849465044E+03  0.44549264987E+03  0.47000000000E+01 0. -1.
        -13    1    6    6    0    0 -0.79801048763E+02  0.19824737916E+01 -0.27376007165E+03  0.28516085709E+03  0.00000000000E+00 0.  1.
         14    1    6    6    0    0  0.17017289913E+01 -0.39443857239E+02 -0.11221334813E+03  0.11895608120E+03  0.00000000000E+00 0. -1.
         -5    1    3    3    0  503  0.11020326033E+03 -0.71382481554E+02 -0.42204547344E+03  0.44202340313E+03  0.47000000000E+01 0.  1.
         13    1    4    4    0    0  0.68676085152E+02  0.11996636169E+02 -0.10043095033E+03  0.12225669607E+03  0.00000000000E+00 0. -1.
        -14    1    4    4    0    0 -0.21384799510E+02  0.44873691104E+01 -0.62097278931E+02  0.65829462873E+02  0.00000000000E+00 0.  1.
</event>
<event>
12    1  0.8226261E-002  0.1809424E+03  0.7818608E-02  0.1167274E+00
         21   -1    0    0  503  502  0.00000000000E+00  0.00000000000E+00  0.42864747449E+03  0.42864747449E+03  0.00000000000E+00 0.  1.
         21   -1    0    0  501  503 -0.00000000000E+00 -0.00000000000E+00 -0.14458257400E+03  0.14458257400E+03  0.00000000000E+00 0.  1.
          6    2    1    2  501    0 -0.28132365910E+02 -0.43087025021E+02 -0.55448677304E+02  0.18924778507E+03  0.17347116937E+03 0.  0.
         24    2    3    3    0    0 -0.81296330462E+01  0.43797036666E+02 -0.19974825134E+02  0.93177843438E+02  0.79365266423E+02 0.  0.
         -6    2    1    2    0  502  0.28132365910E+02  0.43087025021E+02  0.33951357779E+03  0.38398226342E+03  0.17182836606E+03 0.  0.
        -24    2    5    5    0    0  0.19116393354E+01  0.18171305669E+02  0.11055399990E+03  0.15213555139E+03  0.10290378218E+03 0.  0.
          5    1    3    3  501    0 -0.20002732864E+02 -0.86884061686E+02 -0.35473852171E+02  0.96069941631E+02  0.47000000000E+01 0. -1.
        -11    1    4    4    0    0 -0.24817672301E+02  0.18518419594E+01  0.20732832974E+02  0.32391303466E+02  0.00000000000E+00 0.  1.
         12    1    4    4    0    0  0.16688039255E+02  0.41945194706E+02 -0.40707658108E+02  0.60786539972E+02  0.00000000000E+00 0. -1.
         -5    1    5    5    0  502  0.26220726575E+02  0.24915719352E+02  0.22895957789E+03  0.23184671204E+03  0.47000000000E+01 0.  1.
         11    1    6    6    0    0 -0.35318632093E+02  0.36268024051E+02  0.95499489437E+02  0.10808759329E+03  0.00000000000E+00 0. -1.
        -12    1    6    6    0    0  0.37230271429E+02 -0.18096718382E+02  0.15054510459E+02  0.44047958091E+02  0.00000000000E+00 0.  1.
</event>
<event>
12    1  0.8226261E-002  0.2082290E+03  0.7818608E-02  0.1143360E+00
         21   -1    0    0  503  502  0.00000000000E+00  0.00000000000E+00  0.17498134782E+03  0.17498134782E+03  0.00000000000E+00 0.  1.
         21   -1    0    0  501  503 -0.00000000000E+00 -0.00000000000E+00 -0.31901928367E+03  0.31901928367E+03  0.00000000000E+00 0. -1.
          6    2    1    2  501    0 -0.56569611303E+02  0.10123319729E+03 -0.19031594907E+03  0.28069110162E+03  0.17064305699E+03 0.  0.
         24    2    3    3    0    0 -0.38927285283E+02  0.10298446743E+03 -0.53738699059E+02  0.14288778586E+03  0.73538680288E+02 0.  0.
         -6    2    1    2    0  502  0.56569611303E+02 -0.10123319729E+03  0.46278013220E+02  0.21330952986E+03  0.17294802649E+03 0.  0.
        -24    2    5    5    0    0  0.32839525959E+02 -0.13759970763E+03  0.46482621326E+02  0.16963148173E+03  0.81253255341E+02 0.  0.
          5    1    3    3  501    0 -0.17642326021E+02 -0.17512701371E+01 -0.13657725001E+03  0.13780331577E+03  0.47000000000E+01 0. -1.
        -11    1    4    4    0    0 -0.57604420075E+02  0.66156705132E+02 -0.51079669978E+02  0.10150916969E+03  0.00000000000E+00 0.  1.
         12    1    4    4    0    0  0.18677134793E+02  0.36827762300E+02 -0.26590290811E+01  0.41378616166E+02  0.00000000000E+00 0. -1.
         -5    1    5    5    0  502  0.23730085344E+02  0.36366510334E+02 -0.20460810559E+00  0.43678048134E+02  0.47000000000E+01 0.  1.
         11    1    6    6    0    0  0.52142577388E+02 -0.66940567387E+02  0.39809032341E+01  0.84945485632E+02  0.00000000000E+00 0. -1.
        -12    1    6    6    0    0 -0.19303051429E+02 -0.70659140242E+02  0.42501718092E+02  0.84685996097E+02  0.00000000000E+00 0.  1.
</event>
<event>
12    1  0.8226261E-002  0.1766996E+03  0.7818608E-02  0.1171278E+00
         21   -1    0    0  503  502  0.00000000000E+00  0.00000000000E+00  0.39346602981E+03  0.39346602981E+03  0.00000000000E+00 0.  1.
         21   -1    0    0  501  503 -0.00000000000E+00 -0.00000000000E+00 -0.79683773125E+02  0.79683773125E+02  0.00000000000E+00 0.  1.
          6    2    1    2  501    0 -0.31830044038E+02 -0.22251240181E+02  0.13410499721E+03  0.22182631836E+03  0.17237893099E+03 0.  0.
         24    2    3    3    0    0 -0.74532746131E+02  0.36619668147E+01  0.13165734346E+03  0.17159588862E+03  0.80888519943E+02 0.  0.
         -6    2    1    2    0  502  0.31830044038E+02  0.22251240181E+02  0.17967725948E+03  0.25132348457E+03  0.17138059089E+03 0.  0.
        -24    2    5    5    0    0 -0.44105446783E+02 -0.11534045833E+02  0.89241708514E+02  0.12840756536E+03  0.80287580953E+02 0.  0.
          5    1    3    3  501    0  0.42702702094E+02 -0.25913206995E+02  0.24476537496E+01  0.50230429739E+02  0.47000000000E+01 0. -1.
        -13    1    4    4    0    0 -0.35786886413E+02 -0.26815803748E+02  0.18929319927E+02  0.48560351344E+02  0.00000000000E+00 0.  1.
         14    1    4    4    0    0 -0.38745859718E+02  0.30477770563E+02  0.11272802354E+03  0.12303553728E+03  0.00000000000E+00 0. -1.
         -5    1    5    5    0  502  0.75935490820E+02  0.33785286013E+02  0.90435550962E+02  0.12291591921E+03  0.47000000000E+01 0.  1.
         11    1    6    6    0    0 -0.43300633390E+02 -0.40874584555E+02  0.42285433454E+02  0.73032420177E+02  0.00000000000E+00 0. -1.
        -12    1    6    6    0    0 -0.80481339282E+00  0.29340538722E+02  0.46956275060E+02  0.55375145188E+02  0.00000000000E+00 0.  1.
</event>
<event>
12    1  0.8226261E-002  0.2308096E+03  0.7818608E-02  0.1126412E+00
         21   -1    0    0  501  502  0.00000000000E+00  0.00000000000E+00  0.14210734130E+03  0.14210734130E+03  0.00000000000E+00 0. -1.
         21   -1    0    0  502  503 -0.00000000000E+00 -0.00000000000E+00 -0.49435094052E+03  0.49435094052E+03  0.00000000000E+00 0. -1.
         -6    2    1    2    0  503 -0.77586101657E+02 -0.13222781897E+03 -0.18195324702E+02  0.23152568075E+03  0.17253774001E+03 0.  0.
        -24    2    3    3    0    0 -0.28892431400E+02 -0.11116809270E+02 -0.54256224914E+02  0.96021331310E+02  0.72924632903E+02 0.  0.
          6    2    1    2  501    0  0.77586101657E+02  0.13222781897E+03 -0.33404827452E+03  0.40493260107E+03  0.16993634815E+03 0.  0.
         24    2    5    5    0    0  0.64791088742E+02  0.97470100549E+02 -0.10866027006E+03  0.17647329638E+03  0.75083049784E+02 0.  0.
          5    1    5    5  501    0  0.12795012914E+02  0.34757718416E+02 -0.22538800446E+03  0.22845930469E+03  0.47000000000E+01 0. -1.
        -11    1    6    6    0    0  0.64253788084E+02  0.37891628437E+02 -0.36960151123E+02  0.83248889240E+02  0.00000000000E+00 0.  1.
         12    1    6    6    0    0  0.53730065834E+00  0.59578472112E+02 -0.71700118937E+02  0.93224407141E+02  0.00000000000E+00 0. -1.
         -5    1    3    3    0  503 -0.48693670257E+02 -0.12111100970E+03  0.36060900212E+02  0.13550434944E+03  0.47000000000E+01 0.  1.
         11    1    4    4    0    0 -0.21116775980E+02 -0.10475112107E+02  0.13936456627E+02  0.27383773019E+02  0.00000000000E+00 0. -1.
        -12    1    4    4    0    0 -0.77756554201E+01 -0.64169716302E+00 -0.68192681541E+02  0.68637558291E+02  0.00000000000E+00 0.  1.
</event>
<event>
12    1  0.8226261E-002  0.2043738E+03  0.7818608E-02  0.1146351E+00
         21   -1    0    0  503  502  0.00000000000E+00  0.00000000000E+00  0.26445278507E+02  0.26445278507E+02  0.00000000000E+00 0. -1.
         21   -1    0    0  501  503 -0.00000000000E+00 -0.00000000000E+00 -0.18257205382E+04  0.18257205382E+04  0.00000000000E+00 0.  1.
          6    2    1    2  501    0 -0.75375993189E+02  0.81014468668E+02 -0.12485269180E+04  0.12651435154E+04  0.17182480898E+03 0.  0.
         24    2    3    3    0    0  0.38667796898E+01  0.93558780998E+02 -0.68680239284E+03  0.69769897269E+03  0.79486679384E+02 0.  0.
         -6    2    1    2    0  502  0.75375993189E+02 -0.81014468668E+02 -0.55074834169E+03  0.58702230136E+03  0.17037183432E+03 0.  0.
        -24    2    5    5    0    0  0.11461886258E+03 -0.61800078332E+02 -0.37668257707E+03  0.40749465444E+03  0.84884605131E+02 0.  0.
          5    1    3    3  501    0 -0.79242772879E+02 -0.12544312330E+02 -0.56172452519E+03  0.56744454269E+03  0.47000000000E+01 0. -1.
        -11    1    4    4    0    0 -0.28002484633E+02  0.39562103185E+02 -0.45472641719E+03  0.45730232193E+03  0.00000000000E+00 0.  1.
         12    1    4    4    0    0  0.31869264323E+02  0.53996677813E+02 -0.23207597565E+03  0.24039665076E+03  0.00000000000E+00 0. -1.
         -5    1    5    5    0  502 -0.39242869391E+02 -0.19214390335E+02 -0.17406576462E+03  0.17952764691E+03  0.47000000000E+01 0.  1.
         13    1    6    6    0    0  0.62360206673E+02 -0.59581893983E+02 -0.31512993670E+03  0.32671956549E+03  0.00000000000E+00 0. -1.
        -14    1    6    6    0    0  0.52258655907E+02 -0.22181843493E+01 -0.61552640371E+02  0.80775088955E+02  0.00000000000E+00 0.  1.
</event>
<event>
12    1  0.8226261E-002  0.2061481E+03  0.7818608E-02  0.1145557E+00
         21   -1    0    0  501  502  0.00000000000E+00  0.00000000000E+00  0.12039702089E+03  0.12039702089E+03  0.00000000000E+00 0. -1.
         21   -1    0    0  502  503 -0.00000000000E+00 -0.00000000000E+00 -0.53871019341E+03  0.53871019341E+03  0.00000000000E+00 0. -1.
         -6    2    1    2    0  503  0.10045286467E+03 -0.38790667244E+02 -0.40507844489E+03  0.45253467665E+03  0.17059775254E+03 0.  0.
        -24    2    3    3    0    0  0.11990874797E+03 -0.71148130386E+02 -0.28665563347E+03  0.32814983400E+03  0.77914678067E+02 0.  0.
          6    2    1    2  501    0 -0.10045286467E+03  0.38790667244E+02 -0.13234727624E+02  0.20657253765E+03  0.17578839953E+03 0.  0.
         24    2    5    5    0    0 -0.16969083844E+02  0.57900873277E+02 -0.58328933252E+02  0.10966887922E+03  0.70601258367E+02 0.  0.
          5    1    5    5  501    0 -0.83483780821E+02 -0.19110206033E+02  0.45094205628E+02  0.96903658424E+02  0.47000000000E+01 0. -1.
        -11    1    6    6    0    0 -0.19702657923E+02  0.40909719613E+02 -0.73719265432E+02  0.86581348937E+02  0.00000000000E+00 0.  1.
         12    1    6    6    0    0  0.27335740785E+01  0.16991153665E+02  0.15390332180E+02  0.23087530286E+02  0.00000000000E+00 0. -1.
         -5    1    3    3    0  503 -0.19455883302E+02  0.32357463141E+02 -0.11842281142E+03  0.12438484265E+03  0.47000000000E+01 0.  1.
         13    1    4    4    0    0 -0.18991758787E+01 -0.25320194731E+02 -0.79962211701E+02  0.83896808225E+02  0.00000000000E+00 0. -1.
        -14    1    4    4    0    0  0.12180792385E+03 -0.45827935654E+02 -0.20669342177E+03  0.24425302577E+03  0.00000000000E+00 0.  1.
</event>
<event>
12    1  0.8226261E-002  0.1933868E+03  0.7818608E-02  0.1155560E+00
         21   -1    0    0  501  502  0.00000000000E+00  0.00000000000E+00  0.10345068963E+04  0.10345068963E+04  0.00000000000E+00 0. -1.
         21   -1    0    0  502  503 -0.00000000000E+00 -0.00000000000E+00 -0.37691194153E+02  0.37691194153E+02  0.00000000000E+00 0. -1.
         -6    2    1    2    0  503  0.13002437163E+02  0.87910674707E+02  0.38723238562E+03  0.43283642467E+03  0.17175884243E+03 0.  0.
        -24    2    3    3    0    0  0.48679320549E+02  0.11374272624E+03  0.32053454690E+03  0.35276878712E+03  0.79977105388E+02 0.  0.
          6    2    1    2  501    0 -0.13002437163E+02 -0.87910674707E+02  0.60958331656E+03  0.63936166581E+03  0.17115539658E+03 0.  0.
         24    2    5    5    0    0  0.47120652017E+02 -0.90149562744E+02  0.50208656638E+03  0.51608376928E+03  0.62483896095E+02 0.  0.
          5    1    5    5  501    0 -0.60123089180E+02  0.22388880366E+01  0.10749675018E+03  0.12327789652E+03  0.47000000000E+01 0. -1.
        -11    1    6    6    0    0 -0.43377200624E+01 -0.31811977310E+02  0.69487063769E+02  0.76545866948E+02  0.00000000000E+00 0.  1.
         12    1    6    6    0    0  0.51458372079E+02 -0.58337585434E+02  0.43259950261E+03  0.43953790233E+03  0.00000000000E+00 0. -1.
         -5    1    3    3    0  503 -0.35676883386E+02 -0.25832051528E+02  0.66697838714E+02  0.80067637554E+02  0.47000000000E+01 0.  1.
         13    1    4    4    0    0  0.39014752947E+02  0.11693359500E+02  0.57477026082E+02  0.70444972362E+02  0.00000000000E+00 0. -1.
        -14    1    4    4    0    0  0.96645676016E+01  0.10204936674E+03  0.26305752082E+03  0.28232381476E+03  0.00000000000E+00 0.  1.
</event>
<event>
12    1  0.8226261E-002  0.2243430E+03  0.7818608E-02  0.1130726E+00
         21   -1    0    0  501  502  0.00000000000E+00  0.00000000000E+00  0.35411287701E+03  0.35411287701E+03  0.00000000000E+00 0.  1.
         21   -1    0    0  502  503 -0.00000000000E+00 -0.00000000000E+00 -0.41724644000E+03  0.41724644000E+03  0.00000000000E+00 0.  1.
         -6    2    1    2    0  503 -0.97604093588E+02  0.10433567229E+03 -0.34481828912E+03  0.41125368927E+03  0.17267730838E+03 0.  0.
        -24    2    3    3    0    0 -0.74039593396E+02  0.11668154271E+03 -0.16497351730E+03  0.22939127386E+03  0.79420723461E+02 0.  0.
          6    2    1    2  501    0  0.97604093588E+02 -0.10433567229E+03  0.28168472613E+03  0.36010562774E+03  0.17296614292E+03 0.  0.
         24    2    5    5    0    0  0.11803546374E+03 -0.33219303092E+02  0.16175865616E+03  0.21911154591E+03  0.82511295644E+02 0.  0.
          5    1    5    5  501    0 -0.20431370149E+02 -0.71116369199E+02  0.11992606997E+03  0.14099408183E+03  0.47000000000E+01 0. -1.
        -13    1    6    6    0    0  0.13917233690E+02  0.24269302062E+02  0.40840811000E+02  0.49504143860E+02  0.00000000000E+00 0.  1.
         14    1    6    6    0    0  0.10411823005E+03 -0.57488605153E+02  0.12091784516E+03  0.16960740205E+03  0.00000000000E+00 0. -1.
         -5    1    3    3    0  503 -0.23564500192E+02 -0.12345870420E+02 -0.17984477182E+03  0.18186241541E+03  0.47000000000E+01 0.  1.
         13    1    4    4    0    0 -0.45798316089E+02  0.86773066618E+02 -0.16036363088E+03  0.18799878978E+03  0.00000000000E+00 0. -1.
        -14    1    4    4    0    0 -0.28241277307E+02  0.29908476093E+02 -0.46098864142E+01  0.41392484087E+02  0.00000000000E+00 0.  1.
</event>
<event>
12    1  0.8226261E-002  0.1766733E+03  0.7818608E-02  0.1171615E+00
         21   -1    0    0  501  502  0.00000000000E+00  0.00000000000E+00  0.94761222733E+02  0.94761222733E+02  0.00000000000E+00 0.  1.
         21   -1    0    0  502  503 -0.00000000000E+00 -0.00000000000E+00 -0.34791226266E+03  0.34791226266E+03  0.00000000000E+00 0.  1.
         -6    2    1    2    0  503 -0.24157486577E+02  0.15109187651E+02 -0.18377920780E+03  0.25492791272E+03  0.17436046500E+03 0.  0.
        -24    2    3    3    0    0  0.24616143403E+02  0.60233484441E+02 -0.14286356860E+03  0.17675343688E+03  0.81226541547E+02 0.  0.
          6    2    1    2  501    0  0.24157486577E+02 -0.15109187651E+02 -0.69371832123E+02  0.18774557267E+03  0.17211646422E+03 0.  0.
         24    2    5    5    0    0 -0.25247840092E+02 -0.48681742668E+02 -0.39588634567E+01  0.99038474735E+02  0.82374640391E+02 0.  0.
          5    1    5    5  501    0  0.49405326669E+02  0.33572555016E+02 -0.65412968666E+02  0.88707097931E+02  0.47000000000E+01 0. -1.
        -11    1    6    6    0    0 -0.18140778405E+02  0.21226851292E+02  0.44257420189E+01  0.28271085040E+02  0.00000000000E+00 0.  1.
         12    1    6    6    0    0 -0.71070616869E+01 -0.69908593960E+02 -0.83846054756E+01  0.70767389695E+02  0.00000000000E+00 0. -1.
         -5    1    3    3    0  503 -0.48773629981E+02 -0.45124296790E+02 -0.40915639203E+02  0.78174475845E+02  0.47000000000E+01 0.  1.
         11    1    4    4    0    0  0.54454899778E+02  0.33053447957E+02 -0.86126625492E+02  0.10712451704E+03  0.00000000000E+00 0. -1.
        -12    1    4    4    0    0 -0.29838756375E+02  0.27180036484E+02 -0.56736943107E+02  0.69628919842E+02  0.00000000000E+00 0.  1.
</event>
<event>
12    1  0.8226261E-002  0.2471943E+03  0.7818608E-02  0.1115338E+00
         21   -1    0    0  501  502  0.00000000000E+00  0.00000000000E+00  0.79822373448E+02  0.79822373448E+02  0.00000000000E+00 0. -1.
         21   -1    0    0  502  503 -0.00000000000E+00 -0.00000000000E+00 -0.11067264064E+04  0.11067264064E+04  0.00000000000E+00 0. -1.
         -6    2    1    2    0  503  0.11897384424E+02  0.17599215370E+03 -0.84405418954E+03  0.87907671695E+03  0.17097840063E+03 0.  0.
        -24    2    3    3    0    0  0.51539351376E+02  0.17988931846E+03 -0.74430661479E+03  0.77156698667E+03  0.79415404394E+02 0.  0.
          6    2    1    2  501    0 -0.11897384424E+02 -0.17599215370E+03 -0.18284984338E+03  0.30747206286E+03  0.17317684112E+03 0.  0.
         24    2    5    5    0    0 -0.45523793247E+01 -0.53453886244E+02 -0.12032846415E+02  0.97067422847E+02  0.79995331571E+02 0.  0.
          5    1    5    5  501    0 -0.73450050998E+01 -0.12253826745E+03 -0.17081699696E+03  0.21040464002E+03  0.47000000000E+01 0. -1.
        -11    1    6    6    0    0 -0.35783146504E+02 -0.11351646899E+02  0.11983505449E+02  0.39406825093E+02  0.00000000000E+00 0.  1.
         12    1    6    6    0    0  0.31230767180E+02 -0.42102239345E+02 -0.24016351864E+02  0.57660597754E+02  0.00000000000E+00 0. -1.
         -5    1    3    3    0  503 -0.39641966952E+02 -0.38971647659E+01 -0.99747574746E+02  0.10750973028E+03  0.47000000000E+01 0.  1.
         13    1    4    4    0    0  0.15577891640E+02  0.10429023217E+03 -0.54962292165E+03  0.55964674504E+03  0.00000000000E+00 0. -1.
        -14    1    4    4    0    0  0.35961459736E+02  0.75599086297E+02 -0.19468369314E+03  0.21192024163E+03  0.00000000000E+00 0.  1.
</event>
<event>
12    1  0.8226261E-002  0.1803508E+03  0.7818608E-02  0.1168335E+00
         21   -1    0    0  501  502  0.00000000000E+00  0.00000000000E+00  0.71825155057E+02  0.71825155057E+02  0.00000000000E+00 0. -1.
         21   -1    0    0  502  503 -0.00000000000E+00 -0.00000000000E+00 -0.51443878196E+03  0.51443878196E+03  0.00000000000E+00 0. -1.
         -6    2    1    2    0  503  0.22005706216E+02 -0.39506926334E+02 -0.32791229310E+03  0.37252857490E+03  0.17089768522E+03 0.  0.
        -24    2    3    3    0    0  0.47533740905E+02 -0.26332888068E+02 -0.33023526908E+03  0.34332716985E+03  0.76585475744E+02 0.  0.
          6    2    1    2  501    0 -0.22005706216E+02  0.39506926334E+02 -0.11470133381E+03  0.21373536212E+03  0.17458911968E+03 0.  0.
         24    2    5    5    0    0  0.51248744864E+01  0.73825664990E+02 -0.12774866073E+03  0.16784236732E+03  0.79842637721E+02 0.  0.
          5    1    5    5  501    0 -0.27130580703E+02 -0.34318738656E+02  0.13047326927E+02  0.45892994804E+02  0.47000000000E+01 0. -1.
        -13    1    6    6    0    0  0.25700598170E+02  0.94039235748E+01 -0.51777279657E+01  0.27852529360E+02  0.00000000000E+00 0.  1.
         14    1    6    6    0    0 -0.20575723683E+02  0.64421741415E+02 -0.12257093277E+03  0.13998983796E+03  0.00000000000E+00 0. -1.
         -5    1    3    3    0  503 -0.25528034688E+02 -0.13174038266E+02  0.23229759801E+01  0.29201405047E+02  0.47000000000E+01 0.  1.
         13    1    4    4    0    0  0.56376025440E+02 -0.20386054880E+00 -0.13720353565E+03  0.14833444643E+03  0.00000000000E+00 0. -1.
        -14    1    4    4    0    0 -0.88422845359E+01 -0.26129027519E+02 -0.19303173343E+03  0.19499272342E+03  0.00000000000E+00 0.  1.
</event>
<event>
12    1  0.8226261E-002  0.2230098E+03  0.7818608E-02  0.1131705E+00
         21   -1    0    0  501  502  0.00000000000E+00  0.00000000000E+00  0.33964525111E+03  0.33964525111E+03  0.00000000000E+00 0.  1.
         21   -1    0    0  502  503 -0.00000000000E+00 -0.00000000000E+00 -0.16869159171E+03  0.16869159171E+03  0.00000000000E+00 0. -1.
         -6    2    1    2    0  503  0.13834959445E+03  0.26969320832E+02 -0.71616842008E+01  0.22312472149E+03  0.17281607873E+03 0.  0.
        -24    2    3    3    0    0  0.85732316449E+01  0.22542256120E+02 -0.33063439857E+02  0.90631347349E+02  0.80865298214E+02 0.  0.
          6    2    1    2  501    0 -0.13834959445E+03 -0.26969320832E+02  0.17811534360E+03  0.28521212133E+03  0.17249035909E+03 0.  0.
         24    2    5    5    0    0 -0.13697038476E+03  0.28436120389E+02  0.16064344121E+03  0.22691098490E+03  0.78184273485E+02 0.  0.
          5    1    5    5  501    0 -0.13792096984E+01 -0.55405441220E+02  0.17471902383E+02  0.58301136431E+02  0.47000000000E+01 0. -1.
        -13    1    6    6    0    0 -0.13147732467E+03  0.15359960680E+02  0.16549443038E+03  0.21192126316E+03  0.00000000000E+00 0.  1.
         14    1    6    6    0    0 -0.54930600830E+01  0.13076159709E+02 -0.48509891651E+01  0.14989721735E+02  0.00000000000E+00 0. -1.
         -5    1    3    3    0  503  0.12977636281E+03  0.44270647118E+01  0.25901755656E+02  0.13249337414E+03  0.47000000000E+01 0.  1.
         11    1    4    4    0    0 -0.11884377985E+02  0.19301363965E+02 -0.55587651013E+02  0.60031392089E+02  0.00000000000E+00 0. -1.
        -12    1    4    4    0    0  0.20457609630E+02  0.32408921554E+01  0.22524211156E+02  0.30599955260E+02  0.00000000000E+00 0.  1.
</event>
<event>
12    1  0.8226261E-002  0.2054680E+03  0.7818608E-02  0.1146094E+00
         21   -1    0    0  503  502  0.00000000000E+00  0.00000000000E+00  0.32128775223E+03  0.32128775223E+03  0.00000000000E+00 0.  1.
         21   -1    0    0  501  503 -0.00000000000E+00 -0.00000000000E+00 -0.15026743047E+03  0.15026743047E+03  0.00000000000E+00 0.  1.
          6    2    1    2  501    0 -0.49912994837E+02  0.10474874292E+03 -0.46730179399E+01  0.20121232399E+03  0.16431967633E+03 0.  0.
         24    2    3    3    0    0 -0.59838477520E+02  0.56817926478E+02 -0.59592841702E+02  0.12749559988E+03  0.76778258935E+02 0.  0.
         -6    2    1    2    0  502  0.49912994837E+02 -0.10474874292E+03  0.17569333970E+03  0.27034285871E+03  0.16956858625E+03 0.  0.
        -24    2    5    5    0    0 -0.19442679897E+02 -0.11835029057E+02  0.33449861679E+02  0.86771442410E+02  0.76761346115E+02 0.  0.
          5    1    3    3  501    0  0.99254826829E+01  0.47930816440E+02  0.54919823762E+02  0.73716724107E+02  0.47000000000E+01 0. -1.
        -13    1    4    4    0    0 -0.61895490979E+02  0.63824975637E+01 -0.32049471708E+02  0.69992547571E+02  0.00000000000E+00 0.  1.
         14    1    4    4    0    0  0.20570134584E+01  0.50435428914E+02 -0.27543369993E+02  0.57503052308E+02  0.00000000000E+00 0. -1.
         -5    1    5    5    0  502  0.69355674734E+02 -0.92913713861E+02  0.14224347803E+03  0.18357141630E+03  0.47000000000E+01 0.  1.
         13    1    6    6    0    0 -0.17687864567E+02 -0.19858450632E+02 -0.19633858106E+02  0.33056118928E+02  0.00000000000E+00 0. -1.
        -14    1    6    6    0    0 -0.17548153301E+01  0.80234215753E+01  0.53083719785E+02  0.53715323482E+02  0.00000000000E+00 0.  1.
</event>
<event>
12    1  0.8226261E-002  0.1774590E+03  0.7818608E-02  0.1170328E+00
         21   -1    0    0  503  502  0.00000000000E+00  0.00000000000E+00  0.51967195347E+03  0.51967195347E+03  0.00000000000E+00 0.  1.
         21   -1    0    0  501  503 -0.00000000000E+00 -0.00000000000E+00 -0.99800410866E+02  0.99800410866E+02  0.00000000000E+00 0.  1.
          6    2    1    2  501    0  0.40246407232E+02 -0.20745513572E+02  0.15602858304E+02  0.17796938540E+03  0.17140450205E+03 0.  0.
         24    2    3    3    0    0  0.66614366300E+02 -0.14990990970E+02 -0.42880615258E+02  0.11338772798E+03  0.79723434966E+02 0.  0.
         -6    2    1    2    0  502 -0.40246407232E+02  0.20745513572E+02  0.40426868430E+03  0.44150297893E+03  0.17158543550E+03 0.  0.
        -24    2    5    5    0    0 -0.38763232334E+02  0.26327734063E+01  0.90321527364E+02  0.12699514356E+03  0.80375795524E+02 0.  0.
          5    1    3    3  501    0 -0.26367959068E+02 -0.57545226017E+01  0.58483473561E+02  0.64581657424E+02  0.47000000000E+01 0. -1.
        -11    1    4    4    0    0  0.32877839362E+02  0.18380192800E+02 -0.52849590000E+02  0.64898867260E+02  0.00000000000E+00 0.  1.
         12    1    4    4    0    0  0.33736526938E+02 -0.33371183770E+02  0.99689747428E+01  0.48488860715E+02  0.00000000000E+00 0. -1.
         -5    1    5    5    0  502 -0.14831748982E+01  0.18112740166E+02  0.31394715693E+03  0.31450783537E+03  0.47000000000E+01 0.  1.
         11    1    6    6    0    0 -0.41482063879E+02  0.12119819390E+02  0.10254821772E+03  0.11128247213E+03  0.00000000000E+00 0. -1.
        -12    1    6    6    0    0  0.27188315452E+01 -0.94870459841E+01 -0.12226690356E+02  0.15712671432E+02  0.00000000000E+00 0.  1.
</event>
<event>
12    1  0.8226261E-002  0.1823608E+03  0.7818608E-02  0.1165693E+00
         21   -1    0    0  501  502  0.00000000000E+00  0.00000000000E+00  0.54862557401E+03  0.54862557401E+03  0.00000000000E+00 0.  1.
         21   -1    0    0  502  503 -0.00000000000E+00 -0.00000000000E+00 -0.67158115117E+02  0.67158115117E+02  0.00000000000E+00 0.  1.
         -6    2    1    2    0  503  0.58967247578E+02  0.71802031587E+00  0.14267711039E+03  0.23103136459E+03  0.17187519238E+03 0.  0.
        -24    2    3    3    0    0  0.86606456445E+02  0.13294250893E+00  0.15609923471E+03  0.19994259485E+03  0.90052063753E+02 0.  0.
          6    2    1    2  501    0 -0.58967247578E+02 -0.71802031587E+00  0.33879034850E+03  0.38475232454E+03  0.17256245002E+03 0.  0.
         24    2    5    5    0    0 -0.89215489633E+02  0.25415703410E+02  0.16072540755E+03  0.20219509827E+03  0.80279758122E+02 0.  0.
          5    1    5    5  501    0  0.30248242056E+02 -0.26133723726E+02  0.17806494096E+03  0.18255722626E+03  0.47000000000E+01 0. -1.
        -11    1    6    6    0    0 -0.25034359285E+02  0.48216413966E+02  0.65067182545E+02  0.84766030725E+02  0.00000000000E+00 0.  1.
         12    1    6    6    0    0 -0.64181130349E+02 -0.22800710555E+02  0.95658225002E+02  0.11742906755E+03  0.00000000000E+00 0. -1.
         -5    1    3    3    0  503 -0.27639208867E+02  0.58507780694E+00 -0.13422124319E+02  0.31088769742E+02  0.47000000000E+01 0.  1.
         11    1    4    4    0    0  0.22394005528E+02  0.42478574471E+02  0.59422874487E+02  0.76400253828E+02  0.00000000000E+00 0. -1.
        -12    1    4    4    0    0  0.64212450917E+02 -0.42345631962E+02  0.96676360220E+02  0.12354234102E+03  0.00000000000E+00 0.  1.
</event>
<event>
12    1  0.8226261E-002  0.1734180E+03  0.7818608E-02  0.1174875E+00
         21   -1    0    0  503  502  0.00000000000E+00  0.00000000000E+00  0.95553687787E+03  0.95553687787E+03  0.00000000000E+00 0. -1.
         21   -1    0    0  501  503 -0.00000000000E+00 -0.00000000000E+00 -0.31227030170E+02  0.31227030170E+02  0.00000000000E+00 0. -1.
          6    2    1    2  501    0  0.15639772764E+02 -0.44989043639E+01  0.49799212356E+03  0.52732340491E+03  0.17265276021E+03 0.  0.
         24    2    3    3    0    0 -0.29300066709E+02  0.21321439401E+02  0.13434002518E+03  0.15996633341E+03  0.78923303103E+02 0.  0.
         -6    2    1    2    0  502 -0.15639772764E+02  0.44989043639E+01  0.42631772414E+03  0.45944050313E+03  0.17051079545E+03 0.  0.
        -24    2    5    5    0    0  0.12163747204E+02 -0.48639568876E+02  0.16172050816E+03  0.18809107938E+03  0.81920491810E+02 0.  0.
          5    1    3    3  501    0  0.44939839473E+02 -0.25820343765E+02  0.36365209838E+03  0.36735707150E+03  0.47000000000E+01 0. -1.
        -13    1    4    4    0    0 -0.12985782985E+02  0.67622133412E+00  0.13298405485E+03  0.13361828722E+03  0.00000000000E+00 0.  1.
         14    1    4    4    0    0 -0.16314283724E+02  0.20645218067E+02  0.13559703256E+01  0.26348046189E+02  0.00000000000E+00 0. -1.
         -5    1    5    5    0  502 -0.27803519968E+02  0.53138473240E+02  0.26459721598E+03  0.27134942375E+03  0.47000000000E+01 0.  1.
         13    1    6    6    0    0 -0.59208102803E+01  0.21139286356E+02  0.55856371018E+02  0.60015494711E+02  0.00000000000E+00 0. -1.
        -14    1    6    6    0    0  0.18084557485E+02 -0.69778855233E+02  0.10586413714E+03  0.12807558467E+03  0.00000000000E+00 0.  1.
</event>
<event>
12    1  0.8226261E-002  0.2314578E+03  0.7818608E-02  0.1125770E+00
         21   -1    0    0  501  502  0.00000000000E+00  0.00000000000E+00  0.13188521932E+04  0.13188521932E+04  0.00000000000E+00 0.  1.
         21   -1    0    0  502  503 -0.00000000000E+00 -0.00000000000E+00 -0.43299437931E+02  0.43299437931E+02  0.00000000000E+00 0.  1.
         -6    2    1    2    0  503  0.14691283232E+03  0.47411595782E+02  0.81082194169E+03  0.84297203959E+03  0.17128455475E+03 0.  0.
        -24    2    3    3    0    0  0.81870110180E+02  0.33848432959E+02  0.72319303744E+03  0.73290192580E+03  0.79300895930E+02 0.  0.
          6    2    1    2  501    0 -0.14691283232E+03 -0.47411595782E+02  0.46473081358E+03  0.51917959154E+03  0.17245718154E+03 0.  0.
         24    2    5    5    0    0 -0.76142959067E+02 -0.31946599041E+02  0.41638775673E+03  0.43196329587E+03  0.79969929462E+02 0.  0.
          5    1    5    5  501    0 -0.70769873251E+02 -0.15464996741E+02  0.48343056845E+02  0.87216295664E+02  0.47000000000E+01 0. -1.
        -11    1    6    6    0    0 -0.26548025183E+02 -0.86464147023E+01  0.27345653646E+02  0.39081234648E+02  0.00000000000E+00 0.  1.
         12    1    6    6    0    0 -0.49594933884E+02 -0.23300184339E+02  0.38904210309E+03  0.39288206122E+03  0.00000000000E+00 0. -1.
         -5    1    3    3    0  503  0.65042722137E+02  0.13563162823E+02  0.87628904249E+02  0.11007011379E+03  0.47000000000E+01 0.  1.
         11    1    4    4    0    0  0.22151240289E+02  0.95635010897E+01  0.50007947110E+03  0.50066117826E+03  0.00000000000E+00 0. -1.
        -12    1    4    4    0    0  0.59718869891E+02  0.24284931870E+02  0.22311356634E+03  0.23224074755E+03  0.00000000000E+00 0.  1.
</event>
<event>
12    1  0.8226261E-002  0.1882257E+03  0.7818608E-02  0.1160176E+00
         21   -1    0    0  501  502  0.00000000000E+00  0.00000000000E+00  0.32144638086E+03  0.32144638086E+03  0.00000000000E+00 0.  1.
         21   -1    0    0  502  503 -0.00000000000E+00 -0.00000000000E+00 -0.11402300192E+03  0.11402300192E+03  0.00000000000E+00 0.  1.
         -6    2    1    2    0  503 -0.23203902425E+02  0.72524701216E+02  0.62676587445E+02  0.19838669702E+03  0.17213562550E+03 0.  0.
        -24    2    3    3    0    0 -0.17841166928E+02 -0.20846259727E+02  0.72758136386E+02  0.10420271266E+03  0.69365590416E+02 0.  0.
          6    2    1    2  501    0  0.23203902425E+02 -0.72524701216E+02  0.14474679150E+03  0.23708268576E+03  0.17163424153E+03 0.  0.
         24    2    5    5    0    0  0.30780716743E+02  0.49337554975E+01  0.13121593371E+03  0.15794739184E+03  0.82206829785E+02 0.  0.
          5    1    5    5  501    0 -0.75768143186E+01 -0.77458456714E+02  0.13530857792E+02  0.79135293923E+02  0.47000000000E+01 0. -1.
        -11    1    6    6    0    0 -0.41076415061E+01 -0.34079107168E+02  0.65377774988E+02  0.73841124900E+02  0.00000000000E+00 0.  1.
         12    1    6    6    0    0  0.34888358249E+02  0.39012862666E+02  0.65838158719E+02  0.84106266938E+02  0.00000000000E+00 0. -1.
         -5    1    3    3    0  503 -0.53627354964E+01  0.93370960944E+02 -0.10081548941E+02  0.94183984353E+02  0.47000000000E+01 0.  1.
         11    1    4    4    0    0 -0.19869374568E+02 -0.42597321438E+02  0.28825043188E+02  0.55138071731E+02  0.00000000000E+00 0. -1.
        -12    1    4    4    0    0  0.20282076398E+01  0.21751061710E+02  0.43933093198E+02  0.49064640931E+02  0.00000000000E+00 0.  1.
</event>
<event>
12    1  0.8226261E-002  0.1823042E+03  0.7818608E-02  0.1166208E+00
         21   -1    0    0  501  502  0.00000000000E+00  0.00000000000E+00  0.73992493697E+02  0.73992493697E+02  0.00000000000E+00 0. -1.
         21   -1    0    0  502  503 -0.00000000000E+00 -0.00000000000E+00 -0.45253898351E+03  0.45253898351E+03  0.00000000000E+00 0. -1.
         -6    2    1    2    0  503 -0.24357756757E+02 -0.43224240154E+02 -0.14943316722E+03  0.23373845637E+03  0.17274767516E+03 0.  0.
        -24    2    3    3    0    0 -0.19314495967E+02 -0.42639853266E+02 -0.86529527733E+01  0.92788341915E+02  0.79646694612E+02 0.  0.
          6    2    1    2  501    0  0.24357756757E+02  0.43224240154E+02 -0.22911332260E+03  0.29279302083E+03  0.17542292668E+03 0.  0.
         24    2    5    5    0    0  0.75386556085E+02  0.13580599358E+02 -0.94639829086E+02  0.14586482661E+03  0.80326115776E+02 0.  0.
          5    1    5    5  501    0 -0.51028799328E+02  0.29643640796E+02 -0.13447349351E+03  0.14692819422E+03  0.47000000000E+01 0. -1.
        -13    1    6    6    0    0  0.34847362043E+02 -0.31027913211E+02 -0.61120398185E+02  0.76894558415E+02  0.00000000000E+00 0.  1.
         14    1    6    6    0    0  0.40539194042E+02  0.44608512569E+02 -0.33519430901E+02  0.68970268196E+02  0.00000000000E+00 0. -1.
         -5    1    3    3    0  503 -0.50432607898E+01 -0.58438688882E+00 -0.14078021444E+03  0.14095011446E+03  0.47000000000E+01 0.  1.
         11    1    4    4    0    0  0.99167330405E+01 -0.55413763941E+02  0.79054212965E+01  0.56846481986E+02  0.00000000000E+00 0. -1.
        -12    1    4    4    0    0 -0.29231229008E+02  0.12773910676E+02 -0.16558374070E+02  0.35941859928E+02  0.00000000000E+00 0.  1.
</event>
<event>
12    1  0.8226261E-002  0.1771634E+03  0.7818608E-02  0.1170710E+00
         21   -1    0    0  501  502  0.00000000000E+00  0.00000000000E+00  0.72204128742E+03  0.72204128742E+03  0.00000000000E+00 0. -1.
         21   -1    0    0  502  503 -0.00000000000E+00 -0.00000000000E+00 -0.91279588000E+02  0.91279588000E+02  0.00000000000E+00 0. -1.
         -6    2    1    2    0  503  0.44680438410E+02  0.19057431495E+01  0.20435760066E+02  0.17780169257E+03  0.17086792607E+03 0.  0.
        -24    2    3    3    0    0 -0.25145968218E+02  0.10184545450E+02  0.50781793425E+02  0.10107335771E+03  0.83072187958E+02 0.  0.
          6    2    1    2  501    0 -0.44680438410E+02 -0.19057431495E+01  0.61032593936E+03  0.63551918285E+03  0.17142609510E+03 0.  0.
         24    2    5    5    0    0 -0.18531098069E+02  0.63559220544E+02  0.28977970891E+03  0.30727929294E+03  0.77878803680E+02 0.  0.
          5    1    5    5  501    0 -0.26149340341E+02 -0.65464963693E+02  0.32054623045E+03  0.32823988991E+03  0.47000000000E+01 0. -1.
        -13    1    6    6    0    0  0.27962731031E+02  0.71403259392E+01  0.72662010860E+02  0.78183543048E+02  0.00000000000E+00 0.  1.
         14    1    6    6    0    0 -0.46493829100E+02  0.56418894604E+02  0.21711769805E+03  0.22909574989E+03  0.00000000000E+00 0. -1.
         -5    1    3    3    0  503  0.69826406628E+02 -0.82788023005E+01 -0.30346033359E+02  0.76728334863E+02  0.47000000000E+01 0.  1.
         13    1    4    4    0    0 -0.15336854221E+02 -0.27700640072E+02  0.53150849337E+02  0.61867255823E+02  0.00000000000E+00 0. -1.
        -14    1    4    4    0    0 -0.98091139978E+01  0.37885185522E+02 -0.23690559115E+01  0.39206101890E+02  0.00000000000E+00 0.  1.
</event>
<event>
12    1  0.8226261E-002  0.3128635E+03  0.7818608E-02  0.1079405E+00
         21   -1    0    0  503  502  0.00000000000E+00  0.00000000000E+00  0.21010642149E+03  0.21010642149E+03  0.00000000000E+00 0.  1.
         21   -1    0    0  501  503 -0.00000000000E+00 -0.00000000000E+00 -0.46739989370E+03  0.46739989370E+03  0.00000000000E+00 0. -1.
          6    2    1    2  501    0  0.23475178444E+03 -0.11431729138E+03 -0.16877760448E+03  0.35236228636E+03  0.16582055864E+03 0.  0.
         24    2    3    3    0    0  0.22041333246E+02  0.10218418292E+02 -0.25147842963E+02  0.67044082552E+02  0.57203658588E+02 0.  0.
         -6    2    1    2    0  502 -0.23475178444E+03  0.11431729138E+03 -0.88515867722E+02  0.32514402883E+03  0.17235642501E+03 0.  0.
        -24    2    5    5    0    0 -0.10910055856E+03  0.27884228042E+02  0.17679142317E+02  0.13924519839E+03  0.79976316179E+02 0.  0.
          5    1    3    3  501    0  0.21271045119E+03 -0.12453570967E+03 -0.14362976152E+03  0.28531820381E+03  0.47000000000E+01 0. -1.
        -13    1    4    4    0    0  0.25222302964E+02 -0.55720419810E+01  0.10533350986E+02  0.27895585702E+02  0.00000000000E+00 0.  1.
         14    1    4    4    0    0 -0.31809697180E+01  0.15790460273E+02 -0.35681193949E+02  0.39148496850E+02  0.00000000000E+00 0. -1.
         -5    1    5    5    0  502 -0.12565122587E+03  0.86433063339E+02 -0.10619501004E+03  0.18589883044E+03  0.47000000000E+01 0.  1.
         13    1    6    6    0    0 -0.79568636064E+02  0.46897777534E+02 -0.12159930796E+02  0.93158109146E+02  0.00000000000E+00 0. -1.
        -14    1    6    6    0    0 -0.29531922500E+02 -0.19013549492E+02  0.29839073113E+02  0.46087089245E+02  0.00000000000E+00 0.  1.
</event>
<event>
12    1  0.8226261E-002  0.1945942E+03  0.7818608E-02  0.1154527E+00
         21   -1    0    0  501  502  0.00000000000E+00  0.00000000000E+00  0.25086568727E+03  0.25086568727E+03  0.00000000000E+00 0.  1.
         21   -1    0    0  502  503 -0.00000000000E+00 -0.00000000000E+00 -0.15882551619E+03  0.15882551619E+03  0.00000000000E+00 0.  1.
         -6    2    1    2    0  503  0.85595307951E+02  0.31227630261E+02 -0.11495799865E+01  0.19393382051E+03  0.17119370190E+03 0.  0.
        -24    2    3    3    0    0  0.39753917584E+02  0.42745360111E+02 -0.61756994923E+02  0.11693096396E+03  0.80320508814E+02 0.  0.
          6    2    1    2  501    0 -0.85595307951E+02 -0.31227630261E+02  0.93189751063E+02  0.21575738295E+03  0.17194533130E+03 0.  0.
         24    2    5    5    0    0 -0.56582621947E+02 -0.99943152309E+01 -0.16316178551E+02  0.10040475733E+03  0.80705750528E+02 0.  0.
          5    1    5    5  501    0 -0.29012686004E+02 -0.21233315030E+02  0.10950592961E+03  0.11535262562E+03  0.47000000000E+01 0. -1.
        -13    1    6    6    0    0 -0.76629338254E+02 -0.79796083637E+01 -0.20720281060E+02  0.79781324118E+02  0.00000000000E+00 0.  1.
         14    1    6    6    0    0  0.20046716307E+02 -0.20147068673E+01  0.44041025091E+01  0.20623433210E+02  0.00000000000E+00 0. -1.
         -5    1    3    3    0  503  0.45841390367E+02 -0.11517729851E+02  0.60607414937E+02  0.77002856551E+02  0.47000000000E+01 0.  1.
         11    1    4    4    0    0  0.56997063210E+01  0.21117219279E+02  0.17490505973E+02  0.28006095790E+02  0.00000000000E+00 0. -1.
        -12    1    4    4    0    0  0.34054211263E+02  0.21628140832E+02 -0.79247500896E+02  0.88924868169E+02  0.00000000000E+00 0.  1.
</event>
<event>
12    1  0.8226261E-002  0.2576256E+03  0.7818608E-02  0.1108735E+00
         21   -1    0    0  501  502  0.00000000000E+00  0.00000000000E+00  0.38523101858E+04  0.38523101858E+04  0.00000000000E+00 0. -1.
         21   -1    0    0  502  503 -0.00000000000E+00 -0.00000000000E+00 -0.22046468391E+02  0.22046468391E+02  0.00000000000E+00 0. -1.
         -6    2    1    2    0  503 -0.82372473862E+02 -0.17367746769E+03  0.10061319331E+04  0.10385915594E+04  0.17152805375E+03 0.  0.
        -24    2    3    3    0    0 -0.41644309033E+02 -0.18981883058E+03  0.75281705482E+03  0.78147321201E+03  0.78749134263E+02 0.  0.
          6    2    1    2  501    0  0.82372473862E+02  0.17367746769E+03  0.28241317844E+04  0.28357650948E+04  0.16998308873E+03 0.  0.
         24    2    5    5    0    0 -0.23943485965E+00  0.65178524151E+02  0.17438426848E+04  0.17468925693E+04  0.79987761991E+02 0.  0.
          5    1    5    5  501    0  0.82611908721E+02  0.10849894353E+03  0.10802890995E+04  0.10888725255E+04  0.47000000000E+01 0. -1.
        -13    1    6    6    0    0  0.50841757200E+01 -0.17072507821E+02  0.17999454356E+03  0.18087386511E+03  0.00000000000E+00 0.  1.
         14    1    6    6    0    0 -0.53236105796E+01  0.82251031972E+02  0.15638481413E+04  0.15660187042E+04  0.00000000000E+00 0. -1.
         -5    1    3    3    0  503 -0.40728164828E+02  0.16141362890E+02  0.25331487827E+03  0.25711834738E+03  0.47000000000E+01 0.  1.
         13    1    4    4    0    0  0.14096862921E+02 -0.34050265758E+02  0.23491488197E+03  0.23778802306E+03  0.00000000000E+00 0. -1.
        -14    1    4    4    0    0 -0.55741171954E+02 -0.15576856482E+03  0.51790217285E+03  0.54368518894E+03  0.00000000000E+00 0.  1.
</event>
<event>
12    1  0.8226261E-002  0.3382942E+03  0.7818608E-02  0.1067545E+00
         21   -1    0    0  501  502  0.00000000000E+00  0.00000000000E+00  0.60481765758E+03  0.60481765758E+03  0.00000000000E+00 0. -1.
         21   -1    0    0  502  503 -0.00000000000E+00 -0.00000000000E+00 -0.31216454612E+03  0.31216454612E+03  0.00000000000E+00 0.  1.
         -6    2    1    2    0  503 -0.10422130975E+03  0.27214030697E+03 -0.14155677586E+03  0.36654493362E+03  0.17144806644E+03 0.  0.
        -24    2    3    3    0    0 -0.10862096076E+03  0.10456849638E+03 -0.75487380351E+02  0.18630364074E+03  0.79231423121E+02 0.  0.
          6    2    1    2  501    0  0.10422130975E+03 -0.27214030697E+03  0.43420988732E+03  0.55043727008E+03  0.17181540664E+03 0.  0.
         24    2    5    5    0    0  0.51959326174E+02 -0.96287447908E+02  0.10271583450E+03  0.17153630673E+03  0.83085002673E+02 0.  0.
          5    1    5    5  501    0  0.52261983577E+02 -0.17585285907E+03  0.33149405282E+03  0.37890096335E+03  0.47000000000E+01 0. -1.
        -11    1    6    6    0    0 -0.14599504935E+02 -0.36703631175E+02  0.61644933483E+02  0.73214751997E+02  0.00000000000E+00 0.  1.
         12    1    6    6    0    0  0.66558831109E+02 -0.59583816733E+02  0.41070901013E+02  0.98321554733E+02  0.00000000000E+00 0. -1.
         -5    1    3    3    0  503  0.43996510122E+01  0.16757181060E+03 -0.66069395511E+02  0.18024129288E+03  0.47000000000E+01 0.  1.
         13    1    4    4    0    0 -0.16923303678E+02  0.22370838660E+02  0.16545511515E+02  0.32566955354E+02  0.00000000000E+00 0. -1.
        -14    1    4    4    0    0 -0.91697657085E+02  0.82197657718E+02 -0.92032891865E+02  0.15373668539E+03  0.00000000000E+00 0.  1.
</event>
<event>
12    1  0.8226261E-002  0.1829417E+03  0.7818608E-02  0.1165145E+00
         21   -1    0    0  503  502  0.00000000000E+00  0.00000000000E+00  0.55244796123E+02  0.55244796123E+02  0.00000000000E+00 0.  1.
         21   -1    0    0  501  503 -0.00000000000E+00 -0.00000000000E+00 -0.11489777691E+04  0.11489777691E+04  0.00000000000E+00 0.  1.
          6    2    1    2  501    0  0.56618284890E+02  0.18693736809E+02 -0.96222271658E+03  0.97945914266E+03  0.17295250754E+03 0.  0.
         24    2    3    3    0    0 -0.14188065216E+01  0.62211420041E+02 -0.39853614531E+03  0.41110473443E+03  0.79396282995E+02 0.  0.
         -6    2    1    2    0  502 -0.56618284890E+02 -0.18693736809E+02 -0.13151025636E+03  0.22476342252E+03  0.17224564609E+03 0.  0.
        -24    2    5    5    0    0 -0.32400268464E+02  0.55517183199E+02 -0.86072838887E+02  0.13431773786E+03  0.80627452409E+02 0.  0.
          5    1    3    3  501    0  0.58037091411E+02 -0.43517683232E+02 -0.56368657127E+03  0.56835440824E+03  0.47000000000E+01 0. -1.
        -11    1    4    4    0    0 -0.35669183124E+01  0.51393370958E+02 -0.39656926551E+03  0.39990146765E+03  0.00000000000E+00 0.  1.
         12    1    4    4    0    0  0.21481117908E+01  0.10818049083E+02 -0.19668798005E+01  0.11203266772E+02  0.00000000000E+00 0. -1.
         -5    1    5    5    0  502 -0.24218016426E+02 -0.74210920008E+02 -0.45437417472E+02  0.90445684666E+02  0.47000000000E+01 0.  1.
         13    1    6    6    0    0  0.12849063693E+02  0.31607767868E+01 -0.58249191371E+02  0.59733217250E+02  0.00000000000E+00 0. -1.
        -14    1    6    6    0    0 -0.45249332157E+02  0.52356406413E+02 -0.27823647516E+02  0.74584520607E+02  0.00000000000E+00 0.  1.
</event>
<event>
12    1  0.8226261E-002  0.2626150E+03  0.7818608E-02  0.1105588E+00
         21   -1    0    0  503  502  0.00000000000E+00  0.00000000000E+00  0.13755971728E+03  0.13755971728E+03  0.00000000000E+00 0. -1.
         21   -1    0    0  501  503 -0.00000000000E+00 -0.00000000000E+00 -0.10563839486E+04  0.10563839486E+04  0.00000000000E+00 0.  1.
          6    2    1    2  501    0 -0.14525214226E+02  0.19815939549E+03 -0.89217096151E+03  0.93001916683E+03  0.17172215418E+03 0.  0.
         24    2    3    3    0    0  0.56250657742E+02  0.14083757951E+03 -0.55270339086E+03  0.57851477687E+03  0.78733401334E+02 0.  0.
         -6    2    1    2    0  502  0.14525214226E+02 -0.19815939549E+03 -0.26653269791E+02  0.26392449904E+03  0.17166134257E+03 0.  0.
        -24    2    5    5    0    0 -0.16946588941E+02 -0.74793449586E+02  0.43660062472E+02  0.11840582086E+03  0.78946123285E+02 0.  0.
          5    1    3    3  501    0 -0.70775871967E+02  0.57321815984E+02 -0.33946757065E+03  0.35150438996E+03  0.47000000000E+01 0. -1.
        -13    1    4    4    0    0 -0.19687856360E+02  0.22869568987E+02 -0.11383946924E+03  0.11777119186E+03  0.00000000000E+00 0.  1.
         14    1    4    4    0    0  0.75938514101E+02  0.11796801052E+03 -0.43886392162E+03  0.46074358501E+03  0.00000000000E+00 0. -1.
         -5    1    5    5    0  502  0.31471803166E+02 -0.12336594591E+03 -0.70313332263E+02  0.14551867818E+03  0.47000000000E+01 0.  1.
         11    1    6    6    0    0 -0.26228022612E+02 -0.84127763520E+02  0.18547179763E+02  0.90052138465E+02  0.00000000000E+00 0. -1.
        -12    1    6    6    0    0  0.92814336711E+01  0.93343139341E+01  0.25112882709E+02  0.28353682399E+02  0.00000000000E+00 0.  1.
</event>
<event>
12    1  0.8226261E-002  0.2424445E+03  0.7818608E-02  0.1118398E+00
         21   -1    0    0  503  502  0.00000000000E+00  0.00000000000E+00  0.12884677275E+04  0.12884677275E+04  0.00000000000E+00 0.  1.
         21   -1    0    0  501  503 -0.00000000000E+00 -0.00000000000E+00 -0.72712609169E+02  0.72712609169E+02  0.00000000000E+00 0. -1.
          6    2    1    2  501    0  0.16687950448E+03 -0.34298865648E+02  0.19155269944E+03  0.30898506967E+03  0.17249392862E+03 0.  0.
         24    2    3    3    0    0  0.13718339942E+03  0.37861707399E+02  0.11510242240E+03  0.19964275481E+03  0.79723697489E+02 0.  0.
         -6    2    1    2    0  502 -0.16687950448E+03  0.34298865648E+02  0.10242024189E+04  0.10521952670E+04  0.17058459440E+03 0.  0.
        -24    2    5    5    0    0 -0.11851727184E+03  0.26023054541E+02  0.39140997973E+03  0.41748607718E+03  0.79807952690E+02 0.  0.
          5    1    3    3  501    0  0.29696105064E+02 -0.72160573046E+02  0.76450277041E+02  0.10934231486E+03  0.47000000000E+01 0. -1.
        -11    1    4    4    0    0  0.56344945520E+02  0.40967443395E+02  0.92211600571E+02  0.11556843680E+03  0.00000000000E+00 0.  1.
         12    1    4    4    0    0  0.80838453900E+02 -0.31057359965E+01  0.22890821831E+02  0.84074318012E+02  0.00000000000E+00 0. -1.
         -5    1    5    5    0  502 -0.48362232648E+02  0.82758111072E+01  0.63279243912E+03  0.63470918979E+03  0.47000000000E+01 0.  1.
         13    1    6    6    0    0 -0.81777516716E+02  0.44955625670E+02  0.18761541269E+03  0.20954262955E+03  0.00000000000E+00 0. -1.
        -14    1    6    6    0    0 -0.36739755120E+02 -0.18932571129E+02  0.20379456704E+03  0.20794344763E+03  0.00000000000E+00 0.  1.
</event>
<event>
12    1  0.8226261E-002  0.1778339E+03  0.7818608E-02  0.1170414E+00
         21   -1    0    0  503  502  0.00000000000E+00  0.00000000000E+00  0.82649442077E+02  0.82649442077E+02  0.00000000000E+00 0. -1.
         21   -1    0    0  501  503 -0.00000000000E+00 -0.00000000000E+00 -0.54716820329E+03  0.54716820329E+03  0.00000000000E+00 0. -1.
          6    2    1    2  501    0  0.35597705646E+02  0.86666215329E+01 -0.40810483554E+03  0.44516788971E+03  0.17401892501E+03 0.  0.
         24    2    3    3    0    0 -0.17905423595E+02 -0.15422484703E+01 -0.36654825573E+03  0.37649587801E+03  0.84074607685E+02 0.  0.
         -6    2    1    2    0  502 -0.35597705646E+02 -0.86666215329E+01 -0.56413925677E+02  0.18464975566E+03  0.17196131623E+03 0.  0.
        -24    2    5    5    0    0  0.36737807186E+02  0.26836647465E+02 -0.11104746487E+02  0.92086694749E+02  0.79289165913E+02 0.  0.
          5    1    3    3  501    0  0.53503129240E+02  0.10208870003E+02 -0.41556579811E+02  0.68672011700E+02  0.47000000000E+01 0. -1.
        -13    1    4    4    0    0 -0.48748887523E+02 -0.11640115560E+02 -0.16814215594E+03  0.17545293080E+03  0.00000000000E+00 0.  1.
         14    1    4    4    0    0  0.30843463928E+02  0.10097867090E+02 -0.19840609979E+03  0.20104294721E+03  0.00000000000E+00 0. -1.
         -5    1    5    5    0  502 -0.72335512832E+02 -0.35503268998E+02 -0.45309179190E+02  0.92563060910E+02  0.47000000000E+01 0.  1.
         11    1    6    6    0    0  0.20564299558E+02  0.12439617164E+01  0.32813341665E+02  0.38744718973E+02  0.00000000000E+00 0. -1.
        -12    1    6    6    0    0  0.16173507628E+02  0.25592685749E+02 -0.43918088151E+02  0.53341975776E+02  0.00000000000E+00 0.  1.
</event>
<event>
12    1  0.8226261E-002  0.2060644E+03  0.7818608E-02  0.1144775E+00
         21   -1    0    0  501  502  0.00000000000E+00  0.00000000000E+00  0.67399204482E+02  0.67399204482E+02  0.00000000000E+00 0. -1.
         21   -1    0    0  502  503 -0.00000000000E+00 -0.00000000000E+00 -0.76094043768E+03  0.76094043768E+03  0.00000000000E+00 0. -1.
         -6    2    1    2    0  503 -0.84465743602E+02  0.74347264376E+02 -0.51891321662E+03  0.55823320591E+03  0.17231195037E+03 0.  0.
        -24    2    3    3    0    0 -0.73447218042E+02  0.29984416794E+02 -0.49041850464E+03  0.50416372504E+03  0.85890586592E+02 0.  0.
          6    2    1    2  501    0  0.84465743602E+02 -0.74347264376E+02 -0.17462801658E+03  0.27010643625E+03  0.17262840197E+03 0.  0.
         24    2    5    5    0    0  0.49281354718E+02  0.12355696698E+02 -0.13975058319E+03  0.17013709075E+03  0.82674596956E+02 0.  0.
          5    1    5    5  501    0  0.35184388884E+02 -0.86702961075E+02 -0.34877433387E+02  0.99969345501E+02  0.47000000000E+01 0. -1.
        -13    1    6    6    0    0 -0.12511408679E+02  0.23960312900E+02 -0.75715799534E+02  0.80395983982E+02  0.00000000000E+00 0.  1.
         14    1    6    6    0    0  0.61792763396E+02 -0.11604616201E+02 -0.64034783657E+02  0.89741106765E+02  0.00000000000E+00 0. -1.
         -5    1    3    3    0  503 -0.11018525560E+02  0.44362847582E+02 -0.28494711982E+02  0.54069480875E+02  0.47000000000E+01 0.  1.
         13    1    4    4    0    0 -0.89573153891E+02  0.39794238249E+02 -0.41545671747E+03  0.42686205663E+03  0.00000000000E+00 0. -1.
        -14    1    4    4    0    0  0.16125935850E+02 -0.98098214547E+01 -0.74961787163E+02  0.77301668408E+02  0.00000000000E+00 0.  1.
</event>
<event>
12    1  0.8226261E-002  0.2141947E+03  0.7818608E-02  0.1138312E+00
         21   -1    0    0  503  502  0.00000000000E+00  0.00000000000E+00  0.29596046263E+03  0.29596046263E+03  0.00000000000E+00 0.  1.
         21   -1    0    0  501  503 -0.00000000000E+00 -0.00000000000E+00 -0.15815768134E+03  0.15815768134E+03  0.00000000000E+00 0.  1.
          6    2    1    2  501    0  0.11755203732E+03 -0.50295026480E+02  0.10134481175E+03  0.23684288398E+03  0.17168491389E+03 0.  0.
         24    2    3    3    0    0  0.13274216686E+03 -0.12865070485E+02  0.11371952424E+03  0.19433447128E+03  0.83950959699E+02 0.  0.
         -6    2    1    2    0  502 -0.11755203732E+03  0.50295026480E+02  0.36457969535E+02  0.21727525999E+03  0.17184668717E+03 0.  0.
        -24    2    5    5    0    0 -0.24787895302E+02  0.40888474256E+02  0.69934943431E+02  0.11809629522E+03  0.82277163007E+02 0.  0.
          5    1    3    3  501    0 -0.15190129533E+02 -0.37429955995E+02 -0.12374712490E+02  0.42508412700E+02  0.47000000000E+01 0. -1.
        -11    1    4    4    0    0  0.99144757153E+02  0.38992300243E+01  0.31755040457E+02  0.10417902601E+03  0.00000000000E+00 0.  1.
         12    1    4    4    0    0  0.33597409704E+02 -0.16764300509E+02  0.81964483785E+02  0.90155445273E+02  0.00000000000E+00 0. -1.
         -5    1    5    5    0  502 -0.92764142022E+02  0.94065522242E+01 -0.33476973896E+02  0.99178964761E+02  0.47000000000E+01 0.  1.
         11    1    6    6    0    0  0.55399763372E+01  0.56350851333E+02  0.25446440835E+02  0.62077621853E+02  0.00000000000E+00 0. -1.
        -12    1    6    6    0    0 -0.30327871639E+02 -0.15462377077E+02  0.44488502597E+02  0.56018673372E+02  0.00000000000E+00 0.  1.
</event>
<event>
12    1  0.8226261E-002  0.1984048E+03  0.7818608E-02  0.1151241E+00
         21   -1    0    0  501  502  0.00000000000E+00  0.00000000000E+00  0.61925738034E+02  0.61925738034E+02  0.00000000000E+00 0. -1.
         21   -1    0    0  502  503 -0.00000000000E+00 -0.00000000000E+00 -0.63383114783E+03  0.63383114783E+03  0.00000000000E+00 0. -1.
         -6    2    1    2    0  503  0.97631196999E+02  0.14578282754E+02 -0.29418218603E+03  0.35444373868E+03  0.17129748496E+03 0.  0.
        -24    2    3    3    0    0 -0.16895952648E+00  0.29329199861E+02 -0.64018218652E+02  0.10388436038E+03  0.76376681655E+02 0.  0.
          6    2    1    2  501    0 -0.97631196999E+02 -0.14578282754E+02 -0.27772322377E+03  0.34131314719E+03  0.17210490542E+03 0.  0.
         24    2    5    5    0    0 -0.43332343974E+02  0.56191877023E+02 -0.13519650027E+03  0.17310869462E+03  0.81567808535E+02 0.  0.
          5    1    5    5  501    0 -0.54298853025E+02 -0.70770159777E+02 -0.14252672349E+03  0.16820445257E+03  0.47000000000E+01 0. -1.
        -11    1    6    6    0    0 -0.50840954076E+02  0.33032047565E+02 -0.13583716224E+03  0.14875366693E+03  0.00000000000E+00 0.  1.
         12    1    6    6    0    0  0.75086101027E+01  0.23159829458E+02  0.64066196953E+00  0.24355027694E+02  0.00000000000E+00 0. -1.
         -5    1    3    3    0  503  0.97800156525E+02 -0.14750917107E+02 -0.23016396738E+03  0.25055937829E+03  0.47000000000E+01 0.  1.
         11    1    4    4    0    0 -0.10956725227E+02  0.19374858293E+02 -0.79495822229E+02  0.82553138725E+02  0.00000000000E+00 0. -1.
        -12    1    4    4    0    0  0.10787765700E+02  0.99543415679E+01  0.15477603577E+02  0.21331221656E+02  0.00000000000E+00 0.  1.
</event>
<event>
12    1  0.8226261E-002  0.2010540E+03  0.7818608E-02  0.1149315E+00
         21   -1    0    0  501  502  0.00000000000E+00  0.00000000000E+00  0.21015908374E+03  0.21015908374E+03  0.00000000000E+00 0.  1.
         21   -1    0    0  502  503 -0.00000000000E+00 -0.00000000000E+00 -0.21049688889E+03  0.21049688889E+03  0.00000000000E+00 0.  1.
         -6    2    1    2    0  503  0.14525013672E+02 -0.99760133188E+02 -0.65399959353E+02  0.20933681593E+03  0.17141087371E+03 0.  0.
        -24    2    3    3    0    0  0.18175773275E+02  0.93362282612E+01 -0.33901406032E+01  0.83707791626E+02  0.81104731263E+02 0.  0.
          6    2    1    2  501    0 -0.14525013672E+02  0.99760133188E+02  0.65062154201E+02  0.21131915670E+03  0.17395298757E+03 0.  0.
         24    2    5    5    0    0  0.39268925044E+02  0.59151815652E+02  0.91031421150E+02  0.13893603628E+03  0.77301466818E+02 0.  0.
          5    1    5    5  501    0 -0.53793938716E+02  0.40608317536E+02 -0.25969266949E+02  0.72383120419E+02  0.47000000000E+01 0. -1.
        -13    1    6    6    0    0  0.83347317388E+01 -0.74676296178E+01  0.56814192468E+02  0.57905834862E+02  0.00000000000E+00 0.  1.
         14    1    6    6    0    0  0.30934193305E+02  0.66619445270E+02  0.34217228682E+02  0.81030201420E+02  0.00000000000E+00 0. -1.
         -5    1    3    3    0  503 -0.36507596026E+01 -0.10909636145E+03 -0.62009818749E+02  0.12562902431E+03  0.47000000000E+01 0.  1.
         11    1    4    4    0    0 -0.29880102801E+02 -0.13744535853E+01  0.11841793744E+02  0.32170448320E+02  0.00000000000E+00 0. -1.
        -12    1    4    4    0    0  0.48055876076E+02  0.10710681847E+02 -0.15231934347E+02  0.51537343306E+02  0.00000000000E+00 0.  1.
</event>
<event>
12    1  0.8226261E-002  0.1802467E+03  0.7818608E-02  0.1168700E+00
         21   -1    0    0  501  502  0.00000000000E+00  0.00000000000E+00  0.38431283392E+03  0.38431283392E+03  0.00000000000E+00 0.  1.
         21   -1    0    0  502  503 -0.00000000000E+00 -0.00000000000E+00 -0.14965624527E+03  0.14965624527E+03  0.00000000000E+00 0.  1.
         -6    2    1    2    0  503  0.30929184388E+02 -0.44728489399E+02 -0.62515088276E+02  0.18640632653E+03  0.16697883128E+03 0.  0.
        -24    2    3    3    0    0 -0.39385346800E+01  0.34470694087E+02 -0.41813001410E+02  0.97305625642E+02  0.80723707103E+02 0.  0.
          6    2    1    2  501    0 -0.30929184388E+02  0.44728489399E+02  0.29717167693E+03  0.34756275266E+03  0.17184763383E+03 0.  0.
         24    2    5    5    0    0 -0.37053850976E+02 -0.33238057452E+02  0.11453171653E+03  0.14882740325E+03  0.80958789094E+02 0.  0.
          5    1    5    5  501    0  0.61246665876E+01  0.77966546851E+02  0.18263996040E+03  0.19873534941E+03  0.47000000000E+01 0. -1.
        -13    1    6    6    0    0 -0.34008991384E+02 -0.35770199822E+02  0.12673007372E+03  0.13600231717E+03  0.00000000000E+00 0.  1.
         14    1    6    6    0    0 -0.30448595911E+01  0.25321423701E+01 -0.12198357188E+02  0.12825086082E+02  0.00000000000E+00 0. -1.
         -5    1    3    3    0  503  0.34867719068E+02 -0.79199183486E+02 -0.20702086867E+02  0.89100700887E+02  0.47000000000E+01 0.  1.
         13    1    4    4    0    0 -0.12587584179E+02  0.37064991380E+02  0.13388523816E+02  0.41370441519E+02  0.00000000000E+00 0. -1.
        -14    1    4    4    0    0  0.86490494993E+01 -0.25942972929E+01 -0.55201525225E+02  0.55935184123E+02  0.00000000000E+00 0.  1.
</event>
<event>
12    1  0.8226261E-002  0.2551986E+03  0.7818608E-02  0.1110241E+00
         21   -1    0    0  503  502  0.00000000000E+00  0.00000000000E+00  0.60672273659E+03  0.60672273659E+03  0.00000000000E+00 0.  1.
         21   -1    0    0  501  503 -0.00000000000E+00 -0.00000000000E+00 -0.10820437994E+03  0.10820437994E+03  0.00000000000E+00 0.  1.
          6    2    1    2  501    0 -0.18264126840E+03 -0.39074129126E+02  0.20879081046E+03  0.32883338953E+03  0.17220097284E+03 0.  0.
         24    2    3    3    0    0 -0.16569897050E+03  0.26110755383E+02  0.16245265415E+03  0.24694672788E+03  0.80336176151E+02 0.  0.
         -6    2    1    2    0  502  0.18264126840E+03  0.39074129126E+02  0.28972754619E+03  0.38609372700E+03  0.17390139309E+03 0.  0.
        -24    2    5    5    0    0  0.64747735433E+02  0.77985537226E+02  0.17483347540E+03  0.21687280543E+03  0.78695974188E+02 0.  0.
          5    1    3    3  501    0 -0.16942297905E+02 -0.65184884509E+02  0.46338156316E+02  0.81886661658E+02  0.47000000000E+01 0. -1.
        -11    1    4    4    0    0 -0.12897492483E+03  0.39049817454E+02  0.15814535096E+03  0.20777240314E+03  0.00000000000E+00 0.  1.
         12    1    4    4    0    0 -0.36724045666E+02 -0.12939062071E+02  0.43073031873E+01  0.39174324731E+02  0.00000000000E+00 0. -1.
         -5    1    5    5    0  502  0.11789353297E+03 -0.38911408100E+02  0.11489407079E+03  0.16922092158E+03  0.47000000000E+01 0.  1.
         11    1    6    6    0    0  0.80650425433E+02  0.74094718900E+02  0.13521325562E+03  0.17400328441E+03  0.00000000000E+00 0. -1.
        -12    1    6    6    0    0 -0.15902690000E+02  0.38908183261E+01  0.39620219784E+02  0.42869521017E+02  0.00000000000E+00 0.  1.
</event>
<event>
12    1  0.8226261E-002  0.1778823E+03  0.7818608E-02  0.1170140E+00
         21   -1    0    0  503  502  0.00000000000E+00  0.00000000000E+00  0.91714464497E+02  0.91714464497E+02  0.00000000000E+00 0.  1.
         21   -1    0    0  501  503 -0.00000000000E+00 -0.00000000000E+00 -0.35088083532E+03  0.35088083532E+03  0.00000000000E+00 0.  1.
          6    2    1    2  501    0  0.44401459787E+02  0.16332322502E+01 -0.16262023243E+03  0.24020142050E+03  0.17110588924E+03 0.  0.
         24    2    3    3    0    0 -0.34744015244E+02 -0.24701498610E+02 -0.77191417092E+02  0.12071210400E+03  0.82435347693E+02 0.  0.
         -6    2    1    2    0  502 -0.44401459787E+02 -0.16332322502E+01 -0.96546138392E+02  0.20239387932E+03  0.17224392143E+03 0.  0.
        -24    2    5    5    0    0  0.21369728831E+02  0.29288802265E+02 -0.55907313285E+02  0.11899348618E+03  0.98586625996E+02 0.  0.
          5    1    3    3  501    0  0.79145475031E+02  0.26334730861E+02 -0.85428815342E+02  0.11948931650E+03  0.47000000000E+01 0. -1.
        -13    1    4    4    0    0  0.20138248800E+02 -0.74723025036E+00 -0.51960624548E+02  0.55731624067E+02  0.00000000000E+00 0.  1.
         14    1    4    4    0    0 -0.54882264044E+02 -0.23954268360E+02 -0.25230792545E+02  0.64980479928E+02  0.00000000000E+00 0. -1.
         -5    1    5    5    0  502 -0.65771188618E+02 -0.30922034515E+02 -0.40638825107E+02  0.83400393146E+02  0.47000000000E+01 0.  1.
         11    1    6    6    0    0  0.23718064450E+02 -0.33175754940E+02 -0.32853123193E+02  0.52368931635E+02  0.00000000000E+00 0. -1.
        -12    1    6    6    0    0 -0.23483356183E+01  0.62464557206E+02 -0.23054190093E+02  0.66624554542E+02  0.00000000000E+00 0.  1.
</event>
<event>
12    1  0.8226261E-002  0.1890593E+03  0.7818608E-02  0.1159492E+00
         21   -1    0    0  503  502  0.00000000000E+00  0.00000000000E+00  0.34309975503E+02  0.34309975503E+02  0.00000000000E+00 0.  1.
         21   -1    0    0  501  503 -0.00000000000E+00 -0.00000000000E+00 -0.12005450953E+04  0.12005450953E+04  0.00000000000E+00 0.  1.
          6    2    1    2  501    0  0.68510237451E+01  0.74334654344E+02 -0.81175794964E+03  0.83348329079E+03  0.17369758159E+03 0.  0.
         24    2    3    3    0    0 -0.65667760036E+01  0.53201087463E+02 -0.20133308522E+03  0.22252726119E+03  0.78165801430E+02 0.  0.
         -6    2    1    2    0  502 -0.68510237451E+01 -0.74334654344E+02 -0.35447717015E+03  0.40137178001E+03  0.17283710328E+03 0.  0.
        -24    2    5    5    0    0  0.14001555815E+01 -0.11641311365E+02 -0.31858542672E+03  0.32850996243E+03  0.79275726016E+02 0.  0.
          5    1    3    3  501    0  0.13417799749E+02  0.21133566881E+02 -0.61042486442E+03  0.61095602960E+03  0.47000000000E+01 0. -1.
        -11    1    4    4    0    0  0.13500593455E+02  0.22166916914E+02 -0.17556666432E+03  0.17747476398E+03  0.00000000000E+00 0.  1.
         12    1    4    4    0    0 -0.20067369458E+02  0.31034170549E+02 -0.25766420897E+02  0.45052497205E+02  0.00000000000E+00 0. -1.
         -5    1    5    5    0  502 -0.82511793266E+01 -0.62693342979E+02 -0.35891743433E+02  0.72861817578E+02  0.47000000000E+01 0.  1.
         13    1    6    6    0    0  0.39876500055E+02 -0.97487342230E+01 -0.18373282886E+03  0.18826291583E+03  0.00000000000E+00 0. -1.
        -14    1    6    6    0    0 -0.38476344474E+02 -0.18925771423E+01 -0.13485259786E+03  0.14024704661E+03  0.00000000000E+00 0.  1.
</event>
<event>
12    1  0.8226261E-002  0.1755006E+03  0.7818608E-02  0.1172314E+00
         21   -1    0    0  501  502  0.00000000000E+00  0.00000000000E+00  0.10674189524E+04  0.10674189524E+04  0.00000000000E+00 0. -1.
         21   -1    0    0  502  503 -0.00000000000E+00 -0.00000000000E+00 -0.81629593015E+02  0.81629593015E+02  0.00000000000E+00 0. -1.
         -6    2    1    2    0  503 -0.49030790266E+01  0.37338654438E+02  0.30535487511E+02  0.17780685870E+03  0.17106913136E+03 0.  0.
        -24    2    3    3    0    0 -0.65543587992E+02  0.33746004307E+02 -0.14946223607E+01  0.10897230051E+03  0.80236984301E+02 0.  0.
          6    2    1    2  501    0  0.49030790266E+01 -0.37338654438E+02  0.95525387185E+03  0.97124168669E+03  0.17141248198E+03 0.  0.
         24    2    5    5    0    0  0.50969003613E+02 -0.16229464696E+01  0.35591732901E+03  0.36905893803E+03  0.83227888130E+02 0.  0.
          5    1    5    5  501    0 -0.46065924586E+02 -0.35715707968E+02  0.59933654284E+03  0.60218274867E+03  0.47000000000E+01 0. -1.
        -13    1    6    6    0    0  0.83623305036E+01 -0.24735090914E+02  0.30932860271E+02  0.40479564455E+02  0.00000000000E+00 0.  1.
         14    1    6    6    0    0  0.42606673109E+02  0.23112144444E+02  0.32498446874E+03  0.32857937357E+03  0.00000000000E+00 0. -1.
         -5    1    3    3    0  503  0.60640508965E+02  0.35926501303E+01  0.32030109871E+02  0.68834558188E+02  0.47000000000E+01 0.  1.
         13    1    4    4    0    0  0.35554943559E+01  0.26483733611E+02 -0.24022172664E+02  0.35931802983E+02  0.00000000000E+00 0. -1.
        -14    1    4    4    0    0 -0.69099082348E+02  0.72622706962E+01  0.22527550303E+02  0.73040497531E+02  0.00000000000E+00 0.  1.
</event>
<event>
12    1  0.8226261E-002  0.2119548E+03  0.7818608E-02  0.1140251E+00
         21   -1    0    0  501  502  0.00000000000E+00  0.00000000000E+00  0.25025947629E+03  0.25025947629E+03  0.00000000000E+00 0.  1.
         21   -1    0    0  502  503 -0.00000000000E+00 -0.00000000000E+00 -0.19010761073E+03  0.19010761073E+03  0.00000000000E+00 0.  1.
         -6    2    1    2    0  503 -0.10167661064E+03 -0.69100163528E+02  0.84441805463E+02  0.22815623468E+03  0.17266118025E+03 0.  0.
        -24    2    3    3    0    0 -0.22805535857E+02 -0.25980215082E+02 -0.20789688983E+02  0.89679760815E+02  0.80094845592E+02 0.  0.
          6    2    1    2  501    0  0.10167661064E+03  0.69100163528E+02 -0.24289939901E+02  0.21221085234E+03  0.17126143442E+03 0.  0.
         24    2    5    5    0    0  0.31423550797E+02  0.37972839061E+02 -0.74969667588E+02  0.12004292112E+03  0.79752591194E+02 0.  0.
          5    1    5    5  501    0  0.70253059846E+02  0.31127324467E+02  0.50679727688E+02  0.92167931217E+02  0.47000000000E+01 0. -1.
        -13    1    6    6    0    0  0.52413612921E+01 -0.10592954404E+02 -0.62329030530E+02  0.63439661081E+02  0.00000000000E+00 0.  1.
         14    1    6    6    0    0  0.26182189504E+02  0.48565793465E+02 -0.12640637058E+02  0.56603260041E+02  0.00000000000E+00 0. -1.
         -5    1    3    3    0  503 -0.78871074786E+02 -0.43119948446E+02  0.10523149445E+03  0.13847647387E+03  0.47000000000E+01 0.  1.
         11    1    4    4    0    0  0.28716591181E+02 -0.10777643913E+02 -0.18694832804E+02  0.35920704210E+02  0.00000000000E+00 0. -1.
        -12    1    4    4    0    0 -0.51522127038E+02 -0.15202571169E+02 -0.20948561782E+01  0.53759056605E+02  0.00000000000E+00 0.  1.
</event>
<event>
12    1  0.8226261E-002  0.2095329E+03  0.7818608E-02  0.1141999E+00
         21   -1    0    0  501  502  0.00000000000E+00  0.00000000000E+00  0.41632112768E+03  0.41632112768E+03  0.00000000000E+00 0.  1.
         21   -1    0    0  502  503 -0.00000000000E+00 -0.00000000000E+00 -0.14728550482E+03  0.14728550482E+03  0.00000000000E+00 0.  1.
         -6    2    1    2    0  503 -0.10746397549E+03  0.50058502941E+02 -0.15870479333E+02  0.21013306014E+03  0.17277057360E+03 0.  0.
        -24    2    3    3    0    0 -0.14416649655E+03  0.33651771255E+02 -0.20271780038E+02  0.16941798499E+03  0.79844149032E+02 0.  0.
          6    2    1    2  501    0  0.10746397549E+03 -0.50058502941E+02  0.28490610219E+03  0.35347357236E+03  0.17238828134E+03 0.  0.
         24    2    5    5    0    0  0.92243327942E+02 -0.69270956745E+02  0.10672583331E+03  0.17355391053E+03  0.73642782176E+02 0.  0.
          5    1    5    5  501    0  0.15220647550E+02  0.19212453804E+02  0.17818026888E+03  0.17991966183E+03  0.47000000000E+01 0. -1.
        -13    1    6    6    0    0  0.82047300704E+02 -0.29621586940E+02  0.98901034298E+02  0.13187347175E+03  0.00000000000E+00 0.  1.
         14    1    6    6    0    0  0.10196027238E+02 -0.39649369806E+02  0.78247990085E+01  0.41680438781E+02  0.00000000000E+00 0. -1.
         -5    1    3    3    0  503  0.36702521059E+02  0.16406731686E+02  0.44013007052E+01  0.40715075152E+02  0.47000000000E+01 0.  1.
         11    1    4    4    0    0 -0.11050592655E+03 -0.10574763678E+02 -0.24013458349E+01  0.11103671415E+03  0.00000000000E+00 0. -1.
        -12    1    4    4    0    0 -0.33660570006E+02  0.44226534934E+02 -0.17870434203E+02  0.58381270832E+02  0.00000000000E+00 0.  1.
</event>
<event>
12    1  0.8226261E-002  0.4756559E+03  0.7818608E-02  0.1020381E+00
         21   -1    0    0  503  502  0.00000000000E+00  0.00000000000E+00  0.27987502121E+03  0.27987502121E+03  0.00000000000E+00 0. -1.
         21   -1    0    0  501  503 -0.00000000000E+00 -0.00000000000E+00 -0.11861019386E+04  0.11861019386E+04  0.00000000000E+00 0.  1.
          6    2    1    2  501    0  0.17951973651E+03 -0.40475099757E+03 -0.86714327049E+03  0.98871805331E+03  0.17197450845E+03 0.  0.
         24    2    3    3    0    0  0.20560426750E+03 -0.37229935608E+03 -0.80162103063E+03  0.91094424211E+03  0.79644272506E+02 0.  0.
         -6    2    1    2    0  502 -0.17951973651E+03  0.40475099757E+03 -0.39083646894E+02  0.47725890648E+03  0.17377521841E+03 0.  0.
        -24    2    5    5    0    0 -0.18427557010E+03  0.41013717798E+03 -0.54237228746E+02  0.45984196257E+03  0.79642721312E+02 0.  0.
          5    1    3    3  501    0 -0.26084530983E+02 -0.32451641492E+02 -0.65522239859E+02  0.77773811198E+02  0.47000000000E+01 0. -1.
        -11    1    4    4    0    0  0.62539498113E+02 -0.51146395814E+02 -0.13640565790E+03  0.15853594588E+03  0.00000000000E+00 0.  1.
         12    1    4    4    0    0  0.14306476938E+03 -0.32115296026E+03 -0.66521537273E+03  0.75240829623E+03  0.00000000000E+00 0. -1.
         -5    1    5    5    0  502  0.47558335888E+01 -0.53861804078E+01  0.15153581852E+02  0.17416943918E+02  0.47000000000E+01 0.  1.
         11    1    6    6    0    0 -0.25822127878E+02  0.14521816165E+03 -0.80495561566E+01  0.14771557844E+03  0.00000000000E+00 0. -1.
        -12    1    6    6    0    0 -0.15845344223E+03  0.26491901633E+03 -0.46187672590E+02  0.31212638412E+03  0.00000000000E+00 0.  1.
</event>
<event>
12    1  0.8226261E-002  0.2271508E+03  0.7818608E-02  0.1128746E+00
         21   -1    0    0  503  502  0.00000000000E+00  0.00000000000E+00  0.13330996574E+03  0.13330996574E+03  0.00000000000E+00 0. -1.
         21   -1    0    0  501  503 -0.00000000000E+00 -0.00000000000E+00 -0.42997435403E+03  0.42997435403E+03  0.00000000000E+00 0.  1.
          6    2    1    2  501    0  0.46417445473E+02 -0.13970377321E+03 -0.23829490705E+03  0.32921413569E+03  0.17299063825E+03 0.  0.
         24    2    3    3    0    0  0.82497397790E+02 -0.55584196413E+02 -0.96224297157E+02  0.16014605960E+03  0.80574322889E+02 0.  0.
         -6    2    1    2    0  502 -0.46417445473E+02  0.13970377321E+03 -0.58369481241E+02  0.23407018408E+03  0.17236627060E+03 0.  0.
        -24    2    5    5    0    0 -0.24848184759E+02  0.16922781862E+03 -0.38374876612E+02  0.19213241495E+03  0.78655876074E+02 0.  0.
          5    1    3    3  501    0 -0.36079952317E+02 -0.84119576799E+02 -0.14207060989E+03  0.16906807609E+03  0.47000000000E+01 0. -1.
        -11    1    4    4    0    0  0.13587262306E+02 -0.47914174125E+02 -0.70232531871E+02  0.86098724218E+02  0.00000000000E+00 0.  1.
         12    1    4    4    0    0  0.68910135485E+02 -0.76700222882E+01 -0.25991765286E+02  0.74047335381E+02  0.00000000000E+00 0. -1.
         -5    1    5    5    0  502 -0.21569260714E+02 -0.29524045405E+02 -0.19994604629E+02  0.41937769124E+02  0.47000000000E+01 0.  1.
         13    1    6    6    0    0 -0.16535506949E+02  0.87203674030E+02  0.20164159567E+02  0.91019212727E+02  0.00000000000E+00 0. -1.
        -14    1    6    6    0    0 -0.83126778100E+01  0.82024144587E+02 -0.58539036179E+02  0.10111320223E+03  0.00000000000E+00 0.  1.
</event>
<event>
12    1  0.8226261E-002  0.2708317E+03  0.7818608E-02  0.1100836E+00
         21   -1    0    0  501  502  0.00000000000E+00  0.00000000000E+00  0.21608249467E+03  0.21608249467E+03  0.00000000000E+00 0. -1.
         21   -1    0    0  502  503 -0.00000000000E+00 -0.00000000000E+00 -0.62879539207E+03  0.62879539207E+03  0.00000000000E+00 0.  1.
         -6    2    1    2    0  503 -0.13484269041E+03  0.15922352008E+03 -0.49300787506E+03  0.56239409275E+03  0.17232431687E+03 0.  0.
        -24    2    3    3    0    0 -0.13378633160E+03  0.18497147161E+03 -0.46442466799E+03  0.52362345143E+03  0.79862499407E+02 0.  0.
          6    2    1    2  501    0  0.13484269041E+03 -0.15922352008E+03  0.80294977659E+02  0.28248379400E+03  0.17267058212E+03 0.  0.
         24    2    5    5    0    0  0.50432376071E+01 -0.98789314617E+02  0.47624638613E+02  0.13554968567E+03  0.79503761882E+02 0.  0.
          5    1    5    5  501    0  0.12979945280E+03 -0.60434205460E+02  0.32670339046E+02  0.14693410833E+03  0.47000000000E+01 0. -1.
        -11    1    6    6    0    0  0.16280603197E+01  0.12113697770E+02  0.16078413500E+02  0.20196723367E+02  0.00000000000E+00 0.  1.
         12    1    6    6    0    0  0.34151772874E+01 -0.11090301239E+03  0.31546225113E+02  0.11535296230E+03  0.00000000000E+00 0. -1.
         -5    1    3    3    0  503 -0.10563588059E+01 -0.25747951534E+02 -0.28583207067E+02  0.38770641320E+02  0.47000000000E+01 0.  1.
         11    1    4    4    0    0 -0.24907453347E+02  0.76403561215E+02 -0.10142430143E+03  0.12940160092E+03  0.00000000000E+00 0. -1.
        -12    1    4    4    0    0 -0.10887887826E+03  0.10856791040E+03 -0.36300036656E+03  0.39422185051E+03  0.00000000000E+00 0.  1.
</event>
<event>
12    1  0.8226261E-002  0.3153966E+03  0.7818608E-02  0.1077877E+00
         21   -1    0    0  501  502  0.00000000000E+00  0.00000000000E+00  0.90247878670E+03  0.90247878670E+03  0.00000000000E+00 0. -1.
         21   -1    0    0  502  503 -0.00000000000E+00 -0.00000000000E+00 -0.18010947073E+03  0.18010947073E+03  0.00000000000E+00 0.  1.
         -6    2    1    2    0  503  0.26196037542E+03 -0.28785886976E+02  0.23633480891E+02  0.31628082369E+03  0.17327190320E+03 0.  0.
        -24    2    3    3    0    0  0.19728126280E+03  0.44110786715E+02  0.21910974669E+02  0.21869819372E+03  0.80518016427E+02 0.  0.
          6    2    1    2  501    0 -0.26196037542E+03  0.28785886976E+02  0.69873583508E+03  0.76630743374E+03  0.17188208229E+03 0.  0.
         24    2    5    5    0    0 -0.26278671240E+03  0.34334847058E+02  0.53630363475E+03  0.60371043656E+03  0.81295538793E+02 0.  0.
          5    1    5    5  501    0  0.82633698002E+00 -0.55489600820E+01  0.16243220033E+03  0.16259699718E+03  0.47000000000E+01 0. -1.
        -11    1    6    6    0    0  0.20403425223E+00 -0.10259281533E+02  0.15850917372E+02  0.18882427521E+02  0.00000000000E+00 0.  1.
         12    1    6    6    0    0 -0.26299074665E+03  0.44594128591E+02  0.52045271738E+03  0.58482800904E+03  0.00000000000E+00 0. -1.
         -5    1    3    3    0  503  0.64679112619E+02 -0.72896673691E+02  0.17225062224E+01  0.97582629971E+02  0.47000000000E+01 0.  1.
         11    1    4    4    0    0  0.98448830364E+02  0.61251729042E+02  0.23832222806E+02  0.11837196186E+03  0.00000000000E+00 0. -1.
        -12    1    4    4    0    0  0.98832432433E+02 -0.17140942327E+02 -0.19212481376E+01  0.10032623186E+03  0.00000000000E+00 0.  1.
</event>
<event>
12    1  0.8226261E-002  0.2531938E+03  0.7818608E-02  0.1112359E+00
         21   -1    0    0  501  502  0.00000000000E+00  0.00000000000E+00  0.99067385288E+02  0.99067385288E+02  0.00000000000E+00 0.  1.
         21   -1    0    0  502  503 -0.00000000000E+00 -0.00000000000E+00 -0.86869793677E+03  0.86869793677E+03  0.00000000000E+00 0.  1.
         -6    2    1    2    0  503  0.12523020187E+03 -0.12289273586E+03 -0.63465077622E+03  0.68083910168E+03  0.17313303161E+03 0.  0.
        -24    2    3    3    0    0  0.88672729606E+02 -0.37483516398E+02 -0.19934337421E+03  0.23570338329E+03  0.80934770485E+02 0.  0.
          6    2    1    2  501    0 -0.12523020187E+03  0.12289273586E+03 -0.13497977526E+03  0.28692622038E+03  0.18254283942E+03 0.  0.
         24    2    5    5    0    0 -0.14643183592E+03  0.14547426984E+03 -0.12336266056E+03  0.25351241609E+03  0.80281712337E+02 0.  0.
          5    1    5    5  501    0  0.21201634049E+02 -0.22581533978E+02 -0.11617114708E+02  0.33413804292E+02  0.47000000000E+01 0. -1.
        -13    1    6    6    0    0 -0.12615008840E+03  0.72478298833E+02 -0.86477988499E+02  0.16924949365E+03  0.00000000000E+00 0.  1.
         14    1    6    6    0    0 -0.20281747517E+02  0.72995971005E+02 -0.36884672057E+02  0.84262922439E+02  0.00000000000E+00 0. -1.
         -5    1    3    3    0  503  0.36557472262E+02 -0.85409219462E+02 -0.43530740200E+03  0.44513571839E+03  0.47000000000E+01 0.  1.
         13    1    4    4    0    0  0.31279925006E+02 -0.94451100476E+01 -0.75261933157E+01  0.33530395137E+02  0.00000000000E+00 0. -1.
        -14    1    4    4    0    0  0.57392804600E+02 -0.28038406350E+02 -0.19181718090E+03  0.20217298815E+03  0.00000000000E+00 0.  1.
</event>
<event>
12    1  0.8226261E-002  0.1790917E+03  0.7818608E-02  0.1169205E+00
         21   -1    0    0  501  502  0.00000000000E+00  0.00000000000E+00  0.27815066984E+03  0.27815066984E+03  0.00000000000E+00 0. -1.
         21   -1    0    0  502  503 -0.00000000000E+00 -0.00000000000E+00 -0.12284173962E+03  0.12284173962E+03  0.00000000000E+00 0. -1.
         -6    2    1    2    0  503 -0.38923020409E+02 -0.20944417109E+02  0.23279959578E+02  0.17849411233E+03  0.17136079333E+03 0.  0.
        -24    2    3    3    0    0 -0.71916075818E+01  0.14589016134E+02  0.71725728857E+02  0.11038691741E+03  0.82317268813E+02 0.  0.
          6    2    1    2  501    0  0.38923020409E+02  0.20944417109E+02  0.13202897064E+03  0.22249829714E+03  0.17355164365E+03 0.  0.
         24    2    5    5    0    0  0.23210617785E+02  0.26523048070E+02  0.18790377517E+02  0.10794232963E+03  0.10028092232E+03 0.  0.
          5    1    5    5  501    0  0.15712402624E+02 -0.55786309614E+01  0.11323859313E+03  0.11455596751E+03  0.47000000000E+01 0. -1.
        -13    1    6    6    0    0 -0.15027793963E+02  0.51415986889E+02 -0.92900226272E+01  0.54366743691E+02  0.00000000000E+00 0.  1.
         14    1    6    6    0    0  0.38238411748E+02 -0.24892938819E+02  0.28080400144E+02  0.53575585935E+02  0.00000000000E+00 0. -1.
         -5    1    3    3    0  503 -0.31731412827E+02 -0.35533433243E+02 -0.48445769279E+02  0.68107194914E+02  0.47000000000E+01 0.  1.
         11    1    4    4    0    0 -0.36998423376E+02 -0.12803912215E+02  0.52713751193E+02  0.65662493595E+02  0.00000000000E+00 0. -1.
        -12    1    4    4    0    0  0.29806815794E+02  0.27392928348E+02  0.19011977664E+02  0.44724423819E+02  0.00000000000E+00 0.  1.
</event>
<event>
12    1  0.8226261E-002  0.1810440E+03  0.7818608E-02  0.1166968E+00
         21   -1    0    0  501  502  0.00000000000E+00  0.00000000000E+00  0.85153234393E+03  0.85153234393E+03  0.00000000000E+00 0. -1.
         21   -1    0    0  502  503 -0.00000000000E+00 -0.00000000000E+00 -0.40583345123E+02  0.40583345123E+02  0.00000000000E+00 0. -1.
         -6    2    1    2    0  503  0.38014071381E+02  0.37003813433E+02  0.29985452120E+03  0.34990308926E+03  0.17235163520E+03 0.  0.
        -24    2    3    3    0    0  0.36712362581E+02 -0.29973912295E+02  0.88029844007E+02  0.12768811663E+03  0.79427757800E+02 0.  0.
          6    2    1    2  501    0 -0.38014071381E+02 -0.37003813433E+02  0.51109447761E+03  0.54221259980E+03  0.17309704361E+03 0.  0.
         24    2    5    5    0    0 -0.78340450206E+02  0.14462070964E+02  0.36783478975E+03  0.38466774190E+03  0.79501329991E+02 0.  0.
          5    1    5    5  501    0  0.40326378825E+02 -0.51465884397E+02  0.14325968786E+03  0.15754485790E+03  0.47000000000E+01 0. -1.
        -11    1    6    6    0    0 -0.28761276352E+02 -0.29597023276E+02  0.89773800805E+02  0.98805516623E+02  0.00000000000E+00 0.  1.
         12    1    6    6    0    0 -0.49579173855E+02  0.44059094240E+02  0.27806098894E+03  0.28586222527E+03  0.00000000000E+00 0. -1.
         -5    1    3    3    0  503  0.13017088002E+01  0.66977725727E+02  0.21182467719E+03  0.22221497262E+03  0.47000000000E+01 0.  1.
         13    1    4    4    0    0 -0.17508052246E+02 -0.17662585615E+02  0.60980840802E+02  0.65857131497E+02  0.00000000000E+00 0. -1.
        -14    1    4    4    0    0  0.54220414827E+02 -0.12311326679E+02  0.27049003205E+02  0.61830985137E+02  0.00000000000E+00 0.  1.
</event>
<event>
12    1  0.8226261E-002  0.2512221E+03  0.7818608E-02  0.1112958E+00
         21   -1    0    0  501  502  0.00000000000E+00  0.00000000000E+00  0.32846534097E+03  0.32846534097E+03  0.00000000000E+00 0.  1.
         21   -1    0    0  502  503 -0.00000000000E+00 -0.00000000000E+00 -0.11441025515E+04  0.11441025515E+04  0.00000000000E+00 0.  1.
         -6    2    1    2    0  503  0.79927075897E+02  0.16281080471E+03 -0.10805186283E+04  0.11093390118E+04  0.17382992113E+03 0.  0.
        -24    2    3    3    0    0 -0.11742115825E+02  0.11377619148E+03 -0.48482466866E+03  0.50462336166E+03  0.80665226497E+02 0.  0.
          6    2    1    2  501    0 -0.79927075897E+02 -0.16281080471E+03  0.26488141777E+03  0.36322888065E+03  0.16993339478E+03 0.  0.
         24    2    5    5    0    0 -0.14915898505E+02 -0.16388977224E+03  0.20207749908E+03  0.27270794627E+03  0.80324136182E+02 0.  0.
          5    1    5    5  501    0 -0.65011177392E+02  0.10789675276E+01  0.62803918693E+02  0.90520934375E+02  0.47000000000E+01 0. -1.
        -13    1    6    6    0    0 -0.38255407724E+02 -0.15002071280E+03  0.16008663614E+03  0.22270478567E+03  0.00000000000E+00 0.  1.
         14    1    6    6    0    0  0.23339509219E+02 -0.13869059446E+02  0.41990862934E+02  0.50003160605E+02  0.00000000000E+00 0. -1.
         -5    1    3    3    0  503  0.91669191722E+02  0.49034613231E+02 -0.59569395965E+03  0.60471565018E+03  0.47000000000E+01 0.  1.
         11    1    4    4    0    0  0.24802009669E+02  0.75433542690E+01 -0.63739583226E+02  0.68809711139E+02  0.00000000000E+00 0. -1.
        -12    1    4    4    0    0 -0.36544125495E+02  0.10623283721E+03 -0.42108508543E+03  0.43581365053E+03  0.00000000000E+00 0.  1.
</event>
<event>
12    1  0.8226261E-002  0.1983758E+03  0.7818608E-02  0.1151204E+00
         21   -1    0    0  501  502  0.00000000000E+00  0.00000000000E+00  0.40705798532E+03  0.40705798532E+03  0.00000000000E+00 0.  1.
         21   -1    0    0  502  503 -0.00000000000E+00 -0.00000000000E+00 -0.15310996726E+03  0.15310996726E+03  0.00000000000E+00 0.  1.
         -6    2    1    2    0  503 -0.73320597291E+02  0.67774294105E+02 -0.43286031320E+02  0.20304341882E+03  0.17141669841E+03 0.  0.
        -24    2    3    3    0    0  0.11695982194E+02 -0.93561990498E+01 -0.30683197376E+02  0.87467239683E+02  0.80527789964E+02 0.  0.
          6    2    1    2  501    0  0.73320597291E+02 -0.67774294105E+02  0.29723404939E+03  0.35712453376E+03  0.17094030410E+03 0.  0.
         24    2    5    5    0    0 -0.49192106711E+01  0.12579406156E+02  0.16495965531E+03  0.18364026927E+03  0.79558912289E+02 0.  0.
          5    1    5    5  501    0  0.78239807962E+02 -0.80353700261E+02  0.13227439408E+03  0.17348426448E+03  0.47000000000E+01 0. -1.
        -11    1    6    6    0    0 -0.15352561470E+02 -0.20364128747E+02  0.13653252743E+03  0.13889395210E+03  0.00000000000E+00 0.  1.
         12    1    6    6    0    0  0.10433350799E+02  0.32943534904E+02  0.28427127881E+02  0.44746317171E+02  0.00000000000E+00 0. -1.
         -5    1    3    3    0  503 -0.85016579484E+02  0.77130493155E+02 -0.12602833943E+02  0.11557617914E+03  0.47000000000E+01 0.  1.
         11    1    4    4    0    0 -0.12068115958E+02 -0.13352000952E+02  0.22657532432E+02  0.28935775920E+02  0.00000000000E+00 0. -1.
        -12    1    4    4    0    0  0.23764098151E+02  0.39958019026E+01 -0.53340729808E+02  0.58531463763E+02  0.00000000000E+00 0.  1.
</event>
<event>
12    1  0.8226261E-002  0.2432091E+03  0.7818608E-02  0.1117756E+00
         21   -1    0    0  501  502  0.00000000000E+00  0.00000000000E+00  0.80472365340E+03  0.80472365340E+03  0.00000000000E+00 0.  1.
         21   -1    0    0  502  503 -0.00000000000E+00 -0.00000000000E+00 -0.93120975531E+02  0.93120975531E+02  0.00000000000E+00 0. -1.
         -6    2    1    2    0  503 -0.26936697460E+02 -0.17036075257E+03  0.14924656290E+03  0.28535103341E+03  0.17147100060E+03 0.  0.
        -24    2    3    3    0    0  0.28163100670E+02 -0.12130321513E+03  0.15040773074E+03  0.21141817168E+03  0.81040283864E+02 0.  0.
          6    2    1    2  501    0  0.26936697460E+02  0.17036075257E+03  0.56235611497E+03  0.61249359552E+03  0.17075020592E+03 0.  0.
         24    2    5    5    0    0  0.55361194400E+02  0.17562769881E+03  0.40285764490E+03  0.45032841829E+03  0.81187756684E+02 0.  0.
          5    1    5    5  501    0 -0.28424496940E+02 -0.52669462417E+01  0.15949847007E+03  0.16216517722E+03  0.47000000000E+01 0. -1.
        -11    1    6    6    0    0 -0.18157279718E+01  0.65570709141E+02  0.21851638653E+03  0.22814956925E+03  0.00000000000E+00 0.  1.
         12    1    6    6    0    0  0.57176922372E+02  0.11005698967E+03  0.18434125837E+03  0.22217884905E+03  0.00000000000E+00 0. -1.
         -5    1    3    3    0  503 -0.55099798130E+02 -0.49057537442E+02 -0.11611678378E+01  0.73932861737E+02  0.47000000000E+01 0.  1.
         11    1    4    4    0    0  0.14422444429E+02 -0.62238768662E+02  0.18936594083E+02  0.66635319638E+02  0.00000000000E+00 0. -1.
        -12    1    4    4    0    0  0.13740656241E+02 -0.59064446468E+02  0.13147113666E+03  0.14478285204E+03  0.00000000000E+00 0.  1.
</event>
<event>
12    1  0.8226261E-002  0.1820241E+03  0.7818608E-02  0.1167496E+00
         21   -1    0    0  503  502  0.00000000000E+00  0.00000000000E+00  0.95815047912E+02  0.95815047912E+02  0.00000000000E+00 0. -1.
         21   -1    0    0  501  503 -0.00000000000E+00 -0.00000000000E+00 -0.62676308157E+03  0.62676308157E+03  0.00000000000E+00 0. -1.
          6    2    1    2  501    0 -0.27417081776E+02 -0.54786347505E+02 -0.51539610366E+03  0.54659482739E+03  0.17140455484E+03 0.  0.
         24    2    3    3    0    0  0.38555333132E+02  0.99869191170E+00 -0.18715120132E+03  0.20713770777E+03  0.79955904886E+02 0.  0.
         -6    2    1    2    0  502  0.27417081776E+02  0.54786347505E+02 -0.15551930005E+02  0.17598330209E+03  0.16424073747E+03 0.  0.
        -24    2    5    5    0    0 -0.21560129981E+02  0.47689999601E+02  0.42932135379E+02  0.99226534777E+02  0.72550407917E+02 0.  0.
          5    1    3    3  501    0 -0.65972414907E+02 -0.55785039417E+02 -0.32824490233E+03  0.33945711962E+03  0.47000000000E+01 0. -1.
        -11    1    4    4    0    0  0.99612201463E+01 -0.20256101757E+02 -0.71999906207E+01  0.23693362576E+02  0.00000000000E+00 0.  1.
         12    1    4    4    0    0  0.28594112985E+02  0.21254793669E+02 -0.17995121070E+03  0.18344434520E+03  0.00000000000E+00 0. -1.
         -5    1    5    5    0  502  0.48977211757E+02  0.70963479039E+01 -0.58484065385E+02  0.76756767317E+02  0.47000000000E+01 0.  1.
         13    1    6    6    0    0  0.11814639280E+02  0.52299309717E+02  0.15594090983E+02  0.55838867931E+02  0.00000000000E+00 0. -1.
        -14    1    6    6    0    0 -0.33374769261E+02 -0.46093101162E+01  0.27338044397E+02  0.43387666847E+02  0.00000000000E+00 0.  1.
</event>
<event>
12    1  0.8226261E-002  0.2427546E+03  0.7818608E-02  0.1118095E+00
         21   -1    0    0  501  502  0.00000000000E+00  0.00000000000E+00  0.51409556037E+02  0.51409556037E+02  0.00000000000E+00 0. -1.
         21   -1    0    0  502  503 -0.00000000000E+00 -0.00000000000E+00 -0.11454805726E+04  0.11454805726E+04  0.00000000000E+00 0.  1.
         -6    2    1    2    0  503  0.16456583112E+03 -0.44983961686E+02 -0.51685469784E+03  0.57070446114E+03  0.17163721541E+03 0.  0.
        -24    2    3    3    0    0  0.14981570082E+02  0.11963229120E+01 -0.12747371452E+03  0.15100491384E+03  0.79542802822E+02 0.  0.
          6    2    1    2  501    0 -0.16456583112E+03  0.44983961686E+02 -0.57721631871E+03  0.62618566747E+03  0.17269725529E+03 0.  0.
         24    2    5    5    0    0 -0.14807772216E+03  0.38703640137E+02 -0.28308154419E+03  0.33148470759E+03  0.79510798915E+02 0.  0.
          5    1    5    5  501    0 -0.16488108958E+02  0.62803215493E+01 -0.29413477452E+03  0.29470095989E+03  0.47000000000E+01 0. -1.
        -13    1    6    6    0    0 -0.93407960253E+02  0.78915473434E+01 -0.23314994897E+03  0.25128912086E+03  0.00000000000E+00 0.  1.
         14    1    6    6    0    0 -0.54669761910E+02  0.30812092793E+02 -0.49931595217E+02  0.80195586727E+02  0.00000000000E+00 0. -1.
         -5    1    3    3    0  503  0.14958426104E+03 -0.46180284598E+02 -0.38938098332E+03  0.41969954730E+03  0.47000000000E+01 0.  1.
         11    1    4    4    0    0  0.36960553973E+02  0.19607038025E+02 -0.36173042737E+02  0.55308295138E+02  0.00000000000E+00 0. -1.
        -12    1    4    4    0    0 -0.21978983892E+02 -0.18410715113E+02 -0.91300671780E+02  0.95696618704E+02  0.00000000000E+00 0.  1.
</event>
<event>
12    1  0.8226261E-002  0.1951122E+03  0.7818608E-02  0.1155070E+00
         21   -1    0    0  501  502  0.00000000000E+00  0.00000000000E+00  0.64413925517E+02  0.64413925517E+02  0.00000000000E+00 0. -1.
         21   -1    0    0  502  503 -0.00000000000E+00 -0.00000000000E+00 -0.60633685297E+03  0.60633685297E+03  0.00000000000E+00 0. -1.
         -6    2    1    2    0  503  0.49406190022E+02 -0.66824598718E+02 -0.34317455996E+03  0.39223743392E+03  0.17080669588E+03 0.  0.
        -24    2    3    3    0    0 -0.31788911398E+02 -0.36609887512E+02 -0.24103065633E+03  0.25821862809E+03  0.78932020435E+02 0.  0.
          6    2    1    2  501    0 -0.49406190022E+02  0.66824598718E+02 -0.19874836749E+03  0.27851334456E+03  0.17652838558E+03 0.  0.
         24    2    5    5    0    0  0.14511836159E+02 -0.22132019991E+02 -0.72334834578E+02  0.11117755823E+03  0.80172947208E+02 0.  0.
          5    1    5    5  501    0 -0.63918026181E+02  0.88956618709E+02 -0.12641353291E+03  0.16733578633E+03  0.47000000000E+01 0. -1.
        -13    1    6    6    0    0 -0.45388043636E+01 -0.39937546861E+02 -0.69582584901E+01  0.40792471800E+02  0.00000000000E+00 0.  1.
         14    1    6    6    0    0  0.19050640523E+02  0.17805526870E+02 -0.65376576088E+02  0.70385086435E+02  0.00000000000E+00 0. -1.
         -5    1    3    3    0  503  0.81195101420E+02 -0.30214711206E+02 -0.10214390364E+03  0.13401880584E+03  0.47000000000E+01 0.  1.
         11    1    4    4    0    0  0.10481497846E+02 -0.16670767020E+02 -0.18134684129E+03  0.18241286444E+03  0.00000000000E+00 0. -1.
        -12    1    4    4    0    0 -0.42270409244E+02 -0.19939120492E+02 -0.59683815042E+02  0.75805763644E+02  0.00000000000E+00 0.  1.
</event>
<event>
12    1  0.8226261E-002  0.2820428E+03  0.7818608E-02  0.1094715E+00
         21   -1    0    0  503  502  0.00000000000E+00  0.00000000000E+00  0.24796242597E+03  0.24796242597E+03  0.00000000000E+00 0.  1.
         21   -1    0    0  501  503 -0.00000000000E+00 -0.00000000000E+00 -0.61682759559E+03  0.61682759559E+03  0.00000000000E+00 0.  1.
          6    2    1    2  501    0 -0.21976786788E+03  0.32496769826E+02 -0.48472332232E+03  0.56080729718E+03  0.17376469597E+03 0.  0.
         24    2    3    3    0    0 -0.17591617271E+03  0.85935078948E+02 -0.38807314956E+03  0.44188728227E+03  0.79575518901E+02 0.  0.
         -6    2    1    2    0  502  0.21976786788E+03 -0.32496769826E+02  0.11585815270E+03  0.30398272438E+03  0.17212910670E+03 0.  0.
        -24    2    5    5    0    0  0.15287202699E+03  0.42723538390E+02  0.97680155946E+02  0.20158312545E+03  0.76806160107E+02 0.  0.
          5    1    3    3  501    0 -0.43851695172E+02 -0.53438309122E+02 -0.96650172757E+02  0.11892001491E+03  0.47000000000E+01 0. -1.
        -11    1    4    4    0    0 -0.75486866544E+02  0.44972950603E+02 -0.25785637380E+03  0.27241648778E+03  0.00000000000E+00 0.  1.
         12    1    4    4    0    0 -0.10042930616E+03  0.40962128345E+02 -0.13021677577E+03  0.16947079449E+03  0.00000000000E+00 0. -1.
         -5    1    5    5    0  502  0.66895840890E+02 -0.75220308215E+02  0.18177996752E+02  0.10239959894E+03  0.47000000000E+01 0.  1.
         13    1    6    6    0    0 -0.32129657943E+01  0.14990535542E+02 -0.85503195421E-01  0.15331230082E+02  0.00000000000E+00 0. -1.
        -14    1    6    6    0    0  0.15608499278E+03  0.27733002848E+02  0.97765659142E+02  0.18625189536E+03  0.00000000000E+00 0.  1.
</event>
<event>
12    1  0.8226261E-002  0.1825378E+03  0.7818608E-02  0.1165718E+00
         21   -1    0    0  501  502  0.00000000000E+00  0.00000000000E+00  0.14698622041E+04  0.14698622041E+04  0.00000000000E+00 0.  1.
         21   -1    0    0  502  503 -0.00000000000E+00 -0.00000000000E+00 -0.33771405031E+02  0.33771405031E+02  0.00000000000E+00 0. -1.
         -6    2    1    2    0  503 -0.53216606227E+02 -0.27828046180E+02  0.11506932300E+04  0.11648536921E+04  0.17082976064E+03 0.  0.
        -24    2    3    3    0    0  0.12638573442E+02  0.55716674875E+01  0.34206420429E+03  0.35284664979E+03  0.85452099981E+02 0.  0.
          6    2    1    2  501    0  0.53216606227E+02  0.27828046180E+02  0.28539756910E+03  0.33877991706E+03  0.17237648453E+03 0.  0.
         24    2    5    5    0    0 -0.20267230143E+02  0.53743821528E+01  0.22326124913E+03  0.23985037902E+03  0.85105665808E+02 0.  0.
          5    1    5    5  501    0  0.73483836371E+02  0.22453664027E+02  0.62136319978E+02  0.98929538038E+02  0.47000000000E+01 0. -1.
        -13    1    6    6    0    0  0.15601125360E+02 -0.31738491571E+02  0.10566061312E+03  0.11142213481E+03  0.00000000000E+00 0.  1.
         14    1    6    6    0    0 -0.35868355503E+02  0.37112873724E+02  0.11760063600E+03  0.12842824421E+03  0.00000000000E+00 0. -1.
         -5    1    3    3    0  503 -0.65855179669E+02 -0.33399713668E+02  0.80862902567E+03  0.81200704228E+03  0.47000000000E+01 0.  1.
         13    1    4    4    0    0  0.52136605213E+01  0.91649122635E+01 -0.13804845425E+00  0.10544995505E+02  0.00000000000E+00 0. -1.
        -14    1    4    4    0    0  0.74249129206E+01 -0.35932447760E+01  0.34220225274E+03  0.34230165428E+03  0.00000000000E+00 0.  1.
</event>
<event>
12    1  0.8226261E-002  0.2064791E+03  0.7818608E-02  0.1146012E+00
         21   -1    0    0  501  502  0.00000000000E+00  0.00000000000E+00  0.12763161169E+04  0.12763161169E+04  0.00000000000E+00 0.  1.
         21   -1    0    0  502  503 -0.00000000000E+00 -0.00000000000E+00 -0.57788996414E+02  0.57788996414E+02  0.00000000000E+00 0. -1.
         -6    2    1    2    0  503  0.80616087195E+02 -0.61105483015E+02  0.15834192470E+03  0.25400036948E+03  0.17091281114E+03 0.  0.
        -24    2    3    3    0    0  0.57669042959E+02 -0.73335843264E+02  0.34781555430E+02  0.12764609213E+03  0.79874300093E+02 0.  0.
          6    2    1    2  501    0 -0.80616087195E+02  0.61105483015E+02  0.10601851958E+04  0.10801047438E+04  0.18000215195E+03 0.  0.
         24    2    5    5    0    0 -0.93487143843E+02  0.10006722515E+03  0.70220305861E+03  0.71974800116E+03  0.78706759808E+02 0.  0.
          5    1    5    5  501    0  0.12871056648E+02 -0.38961742137E+02  0.35798213714E+03  0.36035674264E+03  0.47000000000E+01 0. -1.
        -13    1    6    6    0    0 -0.95350866600E+02  0.71998983002E+02  0.64534065650E+03  0.65630801020E+03  0.00000000000E+00 0.  1.
         14    1    6    6    0    0  0.18637227574E+01  0.28068242150E+02  0.56862402110E+02  0.63439990965E+02  0.00000000000E+00 0. -1.
         -5    1    3    3    0  503  0.22947044236E+02  0.12230360249E+02  0.12356036927E+03  0.12635427735E+03  0.47000000000E+01 0.  1.
         13    1    4    4    0    0  0.31553283856E+02 -0.87187572907E+02  0.21203308894E+02  0.95114998289E+02  0.00000000000E+00 0. -1.
        -14    1    4    4    0    0  0.26115759102E+02  0.13851729643E+02  0.13578246536E+02  0.32531093842E+02  0.00000000000E+00 0.  1.
</event>
<event>
12    1  0.8226261E-002  0.2601051E+03  0.7818608E-02  0.1107686E+00
         21   -1    0    0  501  502  0.00000000000E+00  0.00000000000E+00  0.88637413147E+03  0.88637413147E+03  0.00000000000E+00 0.  1.
         21   -1    0    0  502  503 -0.00000000000E+00 -0.00000000000E+00 -0.13421802528E+03  0.13421802528E+03  0.00000000000E+00 0.  1.
         -6    2    1    2    0  503 -0.15449093283E+03 -0.11754093582E+03  0.39212407791E+02  0.26304424526E+03  0.17312233282E+03 0.  0.
        -24    2    3    3    0    0 -0.57895501943E+02 -0.10570129241E+03  0.71259307518E+02  0.16047744651E+03  0.78424929507E+02 0.  0.
          6    2    1    2  501    0  0.15449093283E+03  0.11754093582E+03  0.71294369840E+03  0.75754791150E+03  0.16705328851E+03 0.  0.
         24    2    5    5    0    0  0.98534464781E+02  0.10722516972E+03  0.32003005832E+03  0.36050791362E+03  0.79626878541E+02 0.  0.
          5    1    5    5  501    0  0.55956468047E+02  0.10315766094E+02  0.39291364008E+03  0.39703999787E+03  0.47000000000E+01 0. -1.
        -11    1    6    6    0    0  0.43707223321E+02  0.58718383045E+02  0.24492073640E+03  0.25562538410E+03  0.00000000000E+00 0.  1.
         12    1    6    6    0    0  0.54827241460E+02  0.48506786680E+02  0.75109321917E+02  0.10488252952E+03  0.00000000000E+00 0. -1.
         -5    1    3    3    0  503 -0.96595430885E+02 -0.11839643413E+02 -0.32046899726E+02  0.10256679875E+03  0.47000000000E+01 0.  1.
         11    1    4    4    0    0 -0.51305487822E+02 -0.20358026717E+02  0.44174695033E+02  0.70697284344E+02  0.00000000000E+00 0. -1.
        -12    1    4    4    0    0 -0.65900141213E+01 -0.85343265689E+02  0.27084612484E+02  0.89780162163E+02  0.00000000000E+00 0.  1.
</event>
<event>
12    1  0.8226261E-002  0.2072464E+03  0.7818608E-02  0.1143885E+00
         21   -1    0    0  503  502  0.00000000000E+00  0.00000000000E+00  0.10818996351E+04  0.10818996351E+04  0.00000000000E+00 0. -1.
         21   -1    0    0  501  503 -0.00000000000E+00 -0.00000000000E+00 -0.39664033379E+02  0.39664033379E+02  0.00000000000E+00 0. -1.
          6    2    1    2  501    0  0.80201960660E+02  0.84030842568E+02  0.49695004836E+03  0.53843331157E+03  0.17163200006E+03 0.  0.
         24    2    3    3    0    0 -0.55745760433E+01 -0.97526424511E+01  0.20456952994E+03  0.21958944090E+03  0.79023034886E+02 0.  0.
         -6    2    1    2    0  502 -0.80201960660E+02 -0.84030842568E+02  0.54528555338E+03  0.58313035692E+03  0.17091267200E+03 0.  0.
        -24    2    5    5    0    0 -0.12201462294E+03 -0.62986398136E+02  0.43806763038E+03  0.46604517263E+03  0.80249608040E+02 0.  0.
          5    1    3    3  501    0  0.85776536703E+02  0.93783485019E+02  0.29238051842E+03  0.31884387067E+03  0.47000000000E+01 0. -1.
        -11    1    4    4    0    0 -0.25005060102E+02  0.26049252680E+02  0.12622047178E+03  0.13128375411E+03  0.00000000000E+00 0.  1.
         12    1    4    4    0    0  0.19430484059E+02 -0.35801895131E+02  0.78349058157E+02  0.88305686792E+02  0.00000000000E+00 0. -1.
         -5    1    5    5    0  502  0.41812662277E+02 -0.21044444433E+02  0.10721792300E+03  0.11708518429E+03  0.47000000000E+01 0.  1.
         13    1    6    6    0    0 -0.78403489840E+01 -0.38102197816E+02  0.15498573380E+03  0.15979307317E+03  0.00000000000E+00 0. -1.
        -14    1    6    6    0    0 -0.11417427395E+03 -0.24884200320E+02  0.28308189658E+03  0.30625209947E+03  0.00000000000E+00 0.  1.
</event>
<event>
12    1  0.8226261E-002  0.2238718E+03  0.7818608E-02  0.1131057E+00
         21   -1    0    0  503  502  0.00000000000E+00  0.00000000000E+00  0.38197248290E+03  0.38197248290E+03  0.00000000000E+00 0. -1.
         21   -1    0    0  501  503 -0.00000000000E+00 -0.00000000000E+00 -0.18978947391E+03  0.18978947391E+03  0.00000000000E+00 0. -1.
          6    2    1    2  501    0 -0.13431089786E+02  0.14388233549E+03 -0.62834517749E+02  0.23252258928E+03  0.17098554696E+03 0.  0.
         24    2    3    3    0    0  0.43412331394E+02  0.99786883615E+02  0.23152567095E+01  0.13535177824E+03  0.80453034744E+02 0.  0.
         -6    2    1    2    0  502  0.13431089786E+02 -0.14388233549E+03  0.25501752674E+03  0.33923936753E+03  0.17078316339E+03 0.  0.
        -24    2    5    5    0    0  0.12758954333E+02 -0.44300462583E+02  0.21211636242E+03  0.23070549688E+03  0.78143158276E+02 0.  0.
          5    1    3    3  501    0 -0.56843421180E+02  0.44095451872E+02 -0.65149774458E+02  0.97170811046E+02  0.47000000000E+01 0. -1.
        -13    1    4    4    0    0  0.45500502159E+02  0.10924564751E+03 -0.11037097460E+02  0.11885589895E+03  0.00000000000E+00 0.  1.
         14    1    4    4    0    0 -0.20881707652E+01 -0.94587638905E+01  0.13352354169E+02  0.16495879284E+02  0.00000000000E+00 0. -1.
         -5    1    5    5    0  502  0.67213545246E+00 -0.99581872904E+02  0.42901164326E+02  0.10853387065E+03  0.47000000000E+01 0.  1.
         11    1    6    6    0    0 -0.34406540157E+01 -0.58335021600E+02  0.94172452068E+02  0.11082988574E+03  0.00000000000E+00 0. -1.
        -12    1    6    6    0    0  0.16199608349E+02  0.14034559017E+02  0.11794391035E+03  0.11987561114E+03  0.00000000000E+00 0.  1.
</event>
<event>
12    1  0.8226261E-002  0.1877856E+03  0.7818608E-02  0.1160624E+00
         21   -1    0    0  503  502  0.00000000000E+00  0.00000000000E+00  0.15718640096E+03  0.15718640096E+03  0.00000000000E+00 0. -1.
         21   -1    0    0  501  503 -0.00000000000E+00 -0.00000000000E+00 -0.34914773589E+03  0.34914773589E+03  0.00000000000E+00 0.  1.
          6    2    1    2  501    0 -0.44727499604E+01  0.74291730680E+02 -0.24771073031E+03  0.31044784820E+03  0.17169156591E+03 0.  0.
         24    2    3    3    0    0 -0.15845306100E+02  0.66471382451E+02 -0.26691495748E+03  0.28633591711E+03  0.77943213219E+02 0.  0.
         -6    2    1    2    0  502  0.44727499604E+01 -0.74291730680E+02  0.55749395372E+02  0.19588628865E+03  0.17240700756E+03 0.  0.
        -24    2    5    5    0    0 -0.47805582347E+02 -0.78136047263E+02  0.70770791808E+02  0.14115480640E+03  0.80780930981E+02 0.  0.
          5    1    3    3  501    0  0.11372556139E+02  0.78203482289E+01  0.19204227178E+02  0.24111931093E+02  0.47000000000E+01 0. -1.
        -11    1    4    4    0    0 -0.45655086016E+02  0.48479713537E+02 -0.14527498223E+03  0.15981079427E+03  0.00000000000E+00 0.  1.
         12    1    4    4    0    0  0.29809779916E+02  0.17991668915E+02 -0.12163997526E+03  0.12652512284E+03  0.00000000000E+00 0. -1.
         -5    1    5    5    0  502  0.52278332307E+02  0.38443165826E+01 -0.15021396436E+02  0.54731482254E+02  0.47000000000E+01 0.  1.
         13    1    6    6    0    0 -0.28198349499E+02 -0.89510110691E+02  0.72253522358E+02  0.11843892233E+03  0.00000000000E+00 0. -1.
        -14    1    6    6    0    0 -0.19607232848E+02  0.11374063428E+02 -0.14827305506E+01  0.22715884062E+02  0.00000000000E+00 0.  1.
</event>
<event>
12    1  0.8226261E-002  0.1864352E+03  0.7818608E-02  0.1165766E+00
         21   -1    0    0  503  502  0.00000000000E+00  0.00000000000E+00  0.27987326113E+03  0.27987326113E+03  0.00000000000E+00 0.  1.
         21   -1    0    0  501  503 -0.00000000000E+00 -0.00000000000E+00 -0.18168081776E+03  0.18168081776E+03  0.00000000000E+00 0.  1.
          6    2    1    2  501    0 -0.76197142255E+02 -0.14744782418E+01 -0.90915680240E+02  0.20742166410E+03  0.17014672272E+03 0.  0.
         24    2    3    3    0    0 -0.27419878642E+02 -0.41207197929E+02 -0.10738038487E+03  0.14222130400E+03  0.79034608551E+02 0.  0.
         -6    2    1    2    0  502  0.76197142255E+02  0.14744782418E+01  0.18910812361E+03  0.25413241479E+03  0.15170109840E+03 0.  0.
        -24    2    5    5    0    0  0.75271397234E+01  0.50463625571E+01  0.16049492937E+03  0.17950579427E+03  0.79884818427E+02 0.  0.
          5    1    3    3  501    0 -0.48777263613E+02  0.39732719687E+02  0.16464704634E+02  0.65200360107E+02  0.47000000000E+01 0. -1.
        -13    1    4    4    0    0 -0.70712586813E+01 -0.28107972776E+02  0.30744729409E+01  0.29146410015E+02  0.00000000000E+00 0.  1.
         14    1    4    4    0    0 -0.20348619961E+02 -0.13099225153E+02 -0.11045485782E+03  0.11307489398E+03  0.00000000000E+00 0. -1.
         -5    1    5    5    0  502  0.68670002532E+02 -0.35718843154E+01  0.28613194234E+02  0.74626620515E+02  0.47000000000E+01 0.  1.
         13    1    6    6    0    0  0.14357651567E+02 -0.26079731367E+02  0.21037126393E+02  0.36453466688E+02  0.00000000000E+00 0. -1.
        -14    1    6    6    0    0 -0.68305118438E+01  0.31126093924E+02  0.13945780298E+03  0.14305232758E+03  0.00000000000E+00 0.  1.
</event>
<event>
12    1  0.8226261E-002  0.1951930E+03  0.7818608E-02  0.1153952E+00
         21   -1    0    0  503  502  0.00000000000E+00  0.00000000000E+00  0.32130219354E+03  0.32130219354E+03  0.00000000000E+00 0.  1.
         21   -1    0    0  501  503 -0.00000000000E+00 -0.00000000000E+00 -0.17484037933E+03  0.17484037933E+03  0.00000000000E+00 0.  1.
          6    2    1    2  501    0 -0.87293752494E+02  0.30704318106E+02 -0.67756718001E+02  0.20661864986E+03  0.17186430479E+03 0.  0.
         24    2    3    3    0    0 -0.10865269037E+03 -0.29781599312E+01 -0.88844710975E+02  0.16125889896E+03  0.79352210203E+02 0.  0.
         -6    2    1    2    0  502  0.87293752494E+02 -0.30704318106E+02  0.21421853222E+03  0.28952392301E+03  0.17138135277E+03 0.  0.
        -24    2    5    5    0    0 -0.12070629672E+01 -0.24853073637E+01  0.16753266412E+03  0.18545487293E+03  0.79490141485E+02 0.  0.
          5    1    3    3  501    0  0.21358937875E+02  0.33682478037E+02  0.21087992974E+02  0.45359750898E+02  0.47000000000E+01 0. -1.
        -11    1    4    4    0    0 -0.16794386144E+02 -0.23825384697E+02 -0.52976536273E+02  0.60466633422E+02  0.00000000000E+00 0.  1.
         12    1    4    4    0    0 -0.91858304225E+02  0.20847224766E+02 -0.35868174702E+02  0.10079226554E+03  0.00000000000E+00 0. -1.
         -5    1    5    5    0  502  0.88500815461E+02 -0.28219010743E+02  0.46685868099E+02  0.10406905008E+03  0.47000000000E+01 0.  1.
         13    1    6    6    0    0  0.10341759391E+02 -0.38485896901E+02  0.10589910779E+03  0.11314918152E+03  0.00000000000E+00 0. -1.
        -14    1    6    6    0    0 -0.11548822358E+02  0.36000589537E+02  0.61633556329E+02  0.72305691413E+02  0.00000000000E+00 0.  1.
</event>
<event>
12    1  0.8226261E-002  0.2662430E+03  0.7818608E-02  0.1103510E+00
         21   -1    0    0  503  502  0.00000000000E+00  0.00000000000E+00  0.43840043827E+03  0.43840043827E+03  0.00000000000E+00 0. -1.
         21   -1    0    0  501  503 -0.00000000000E+00 -0.00000000000E+00 -0.16529866403E+03  0.16529866403E+03  0.00000000000E+00 0.  1.
          6    2    1    2  501    0  0.18830830228E+03  0.76239938343E+02  0.90326963952E+02  0.28075646822E+03  0.17144296172E+03 0.  0.
         24    2    3    3    0    0  0.11788501371E+03  0.83488121092E+02 -0.10361780407E+02  0.15758062250E+03  0.62105903707E+02 0.  0.
         -6    2    1    2    0  502 -0.18830830228E+03 -0.76239938343E+02  0.18277481029E+03  0.32294263408E+03  0.17208360969E+03 0.  0.
        -24    2    5    5    0    0 -0.13928862842E+03 -0.15609811127E+01  0.62658861029E+02  0.17317679570E+03  0.81610728674E+02 0.  0.
          5    1    3    3  501    0  0.70423288571E+02 -0.72481827482E+01  0.10068874436E+03  0.12317584571E+03  0.47000000000E+01 0. -1.
        -11    1    4    4    0    0  0.66902655329E+02  0.10336655145E+02 -0.98872895031E+01  0.68414693037E+02  0.00000000000E+00 0.  1.
         12    1    4    4    0    0  0.50982358378E+02  0.73151465947E+02 -0.47449090433E+00  0.89165929466E+02  0.00000000000E+00 0. -1.
         -5    1    5    5    0  502 -0.49019673861E+02 -0.74678957231E+02  0.12011594926E+03  0.14976583838E+03  0.47000000000E+01 0.  1.
         13    1    6    6    0    0 -0.51266133209E+02  0.13887038215E+01  0.67733693959E+02  0.84958803015E+02  0.00000000000E+00 0. -1.
        -14    1    6    6    0    0 -0.88022495208E+02 -0.29496849342E+01 -0.50748329293E+01  0.88217992684E+02  0.00000000000E+00 0.  1.
</event>
<event>
12    1  0.8226261E-002  0.2255047E+03  0.7818608E-02  0.1130100E+00
         21   -1    0    0  501  502  0.00000000000E+00  0.00000000000E+00  0.33132731321E+02  0.33132731321E+02  0.00000000000E+00 0.  1.
         21   -1    0    0  502  503 -0.00000000000E+00 -0.00000000000E+00 -0.18870571728E+04  0.18870571728E+04  0.00000000000E+00 0. -1.
         -6    2    1    2    0  503  0.51318744316E+02  0.13532478341E+03 -0.13497427748E+04  0.13684509261E+04  0.17293342229E+03 0.  0.
        -24    2    3    3    0    0 -0.26948950509E+02  0.43370166561E+02 -0.80170649712E+03  0.80724923754E+03  0.79440585958E+02 0.  0.
          6    2    1    2  501    0 -0.51318744316E+02 -0.13532478341E+03 -0.50418166666E+03  0.55173897799E+03  0.17108575718E+03 0.  0.
         24    2    5    5    0    0 -0.99108972603E+02 -0.95461184450E+02 -0.31837739148E+03  0.35573303135E+03  0.79034169827E+02 0.  0.
          5    1    5    5  501    0  0.47790228287E+02 -0.39863598956E+02 -0.18580427519E+03  0.19600594664E+03  0.47000000000E+01 0. -1.
        -13    1    6    6    0    0 -0.35770920077E+02 -0.29857966034E+01 -0.31576339530E+02  0.47807310347E+02  0.00000000000E+00 0.  1.
         14    1    6    6    0    0 -0.63338052526E+02 -0.92475387847E+02 -0.28680105195E+03  0.30792572100E+03  0.00000000000E+00 0. -1.
         -5    1    3    3    0  503  0.78267694825E+02  0.91954616845E+02 -0.54803627766E+03  0.56120168856E+03  0.47000000000E+01 0.  1.
         11    1    4    4    0    0 -0.10413212602E+02  0.61712804781E+02 -0.40833987641E+03  0.41310816978E+03  0.00000000000E+00 0. -1.
        -12    1    4    4    0    0 -0.16535737907E+02 -0.18342638220E+02 -0.39336662071E+03  0.39414106776E+03  0.00000000000E+00 0.  1.
</event>
<event>
12    1  0.8226261E-002  0.3039695E+03  0.7818608E-02  0.1083511E+00
         21   -1    0    0  501  502  0.00000000000E+00  0.00000000000E+00  0.24102554758E+03  0.24102554758E+03  0.00000000000E+00 0.  1.
         21   -1    0    0  502  503 -0.00000000000E+00 -0.00000000000E+00 -0.73141759408E+03  0.73141759408E+03  0.00000000000E+00 0. -1.
         -6    2    1    2    0  503 -0.21745522625E+03  0.11949385987E+03 -0.58218496483E+03  0.65676233816E+03  0.17559008393E+03 0.  0.
        -24    2    3    3    0    0 -0.15539566796E+03  0.27712378492E+02 -0.45350512668E+03  0.48689232949E+03  0.80507459557E+02 0.  0.
          6    2    1    2  501    0  0.21745522625E+03 -0.11949385987E+03  0.91792918334E+02  0.31568080351E+03  0.17222912610E+03 0.  0.
         24    2    5    5    0    0  0.69877623623E+02  0.19038668075E+02  0.44521793864E+02  0.10776962222E+03  0.66232531128E+02 0.  0.
          5    1    5    5  501    0  0.14757760262E+03 -0.13853252794E+03  0.47271124470E+02  0.20791118128E+03  0.47000000000E+01 0. -1.
        -13    1    6    6    0    0  0.15956741264E+02 -0.18304045788E+02  0.33321849670E+02  0.41231072620E+02  0.00000000000E+00 0.  1.
         14    1    6    6    0    0  0.53920882359E+02  0.37342713863E+02  0.11199944194E+02  0.66538549601E+02  0.00000000000E+00 0. -1.
         -5    1    3    3    0  503 -0.62059558291E+02  0.91781481376E+02 -0.12867983815E+03  0.16987000867E+03  0.47000000000E+01 0.  1.
         11    1    4    4    0    0 -0.99520140397E+02  0.49107521050E+02 -0.22784050712E+03  0.25343066833E+03  0.00000000000E+00 0. -1.
        -12    1    4    4    0    0 -0.55875527558E+02 -0.21395142558E+02 -0.22566461956E+03  0.23346166115E+03  0.00000000000E+00 0.  1.
</event>
<event>
12    1  0.8226261E-002  0.2014990E+03  0.7818608E-02  0.1149941E+00
         21   -1    0    0  501  502  0.00000000000E+00  0.00000000000E+00  0.31642787967E+02  0.31642787967E+02  0.00000000000E+00 0.  1.
         21   -1    0    0  502  503 -0.00000000000E+00 -0.00000000000E+00 -0.15852569848E+04  0.15852569848E+04  0.00000000000E+00 0.  1.
         -6    2    1    2    0  503  0.97204126102E+02  0.14249653096E+02 -0.11646791573E+04  0.11819811214E+04  0.17592651022E+03 0.  0.
        -24    2    3    3    0    0  0.84439141779E+02  0.15510193980E+02 -0.11622607328E+04  0.11681076731E+04  0.79088496753E+02 0.  0.
          6    2    1    2  501    0 -0.97204126102E+02 -0.14249653096E+02 -0.38893503952E+03  0.43491865142E+03  0.16802402698E+03 0.  0.
         24    2    5    5    0    0 -0.10756447231E+03 -0.44211085755E+02 -0.20496514496E+03  0.24817809256E+03  0.77826211319E+02 0.  0.
          5    1    5    5  501    0  0.10360346212E+02  0.29961432660E+02 -0.18396989456E+03  0.18674055886E+03  0.47000000000E+01 0. -1.
        -13    1    6    6    0    0 -0.26797470054E+02 -0.45995429636E+02 -0.48157165661E+02  0.71782982337E+02  0.00000000000E+00 0.  1.
         14    1    6    6    0    0 -0.80767002260E+02  0.17843438809E+01 -0.15680797930E+03  0.17639511022E+03  0.00000000000E+00 0. -1.
         -5    1    3    3    0  503  0.12764984323E+02 -0.12605408839E+01 -0.24184245473E+01  0.13873448215E+02  0.47000000000E+01 0.  1.
         13    1    4    4    0    0  0.31319196709E+02 -0.29465824992E+02 -0.60320047843E+03  0.60473129910E+03  0.00000000000E+00 0. -1.
        -14    1    4    4    0    0  0.53119945070E+02  0.44976018972E+02 -0.55906025434E+03  0.56337637404E+03  0.00000000000E+00 0.  1.
</event>
<event>
12    1  0.8226261E-002  0.1813017E+03  0.7818608E-02  0.1167810E+00
         21   -1    0    0  503  502  0.00000000000E+00  0.00000000000E+00  0.11818261059E+04  0.11818261059E+04  0.00000000000E+00 0.  1.
         21   -1    0    0  501  503 -0.00000000000E+00 -0.00000000000E+00 -0.35912857446E+02  0.35912857446E+02  0.00000000000E+00 0.  1.
          6    2    1    2  501    0 -0.41118146516E+02 -0.36857106327E+01  0.27631697065E+03  0.33048658022E+03  0.17653901835E+03 0.  0.
         24    2    3    3    0    0  0.29468653462E+02 -0.19704426838E+00  0.93534838267E+02  0.13446090577E+03  0.91992004260E+02 0.  0.
         -6    2    1    2    0  502  0.41118146516E+02  0.36857106327E+01  0.86959627784E+03  0.88725238317E+03  0.17121570770E+03 0.  0.
        -24    2    5    5    0    0  0.33941037790E+02  0.60762802278E+02  0.39151779242E+03  0.40570235097E+03  0.80399649365E+02 0.  0.
          5    1    3    3  501    0 -0.70586799978E+02 -0.34886663643E+01  0.18278213238E+03  0.19602567445E+03  0.47000000000E+01 0. -1.
        -13    1    4    4    0    0 -0.19279058526E+01 -0.97044598635E+01 -0.16720664393E+02  0.19428689610E+02  0.00000000000E+00 0.  1.
         14    1    4    4    0    0  0.31396559314E+02  0.95074155951E+01  0.11025550266E+03  0.11503221616E+03  0.00000000000E+00 0. -1.
         -5    1    5    5    0  502  0.71771087263E+01 -0.57077091645E+02  0.47807848543E+03  0.48155003220E+03  0.47000000000E+01 0.  1.
         11    1    6    6    0    0  0.48755665999E+02  0.40944241669E+02  0.36022878628E+03  0.36581187017E+03  0.00000000000E+00 0. -1.
        -12    1    6    6    0    0 -0.14814628209E+02  0.19818560609E+02  0.31289006142E+02  0.39890480806E+02  0.00000000000E+00 0.  1.
</event>
<event>
12    1  0.8226261E-002  0.2498243E+03  0.7818608E-02  0.1114701E+00
         21   -1    0    0  501  502  0.00000000000E+00  0.00000000000E+00  0.88349165530E+02  0.88349165530E+02  0.00000000000E+00 0. -1.
         21   -1    0    0  502  503 -0.00000000000E+00 -0.00000000000E+00 -0.71964111021E+03  0.71964111021E+03  0.00000000000E+00 0. -1.
         -6    2    1    2    0  503 -0.16774162895E+03  0.32251883196E+02 -0.22090536890E+03  0.32754326361E+03  0.17119570519E+03 0.  0.
        -24    2    3    3    0    0 -0.13017673439E+03  0.39586502477E+01 -0.68120725914E+02  0.16761557537E+03  0.80578500355E+02 0.  0.
          6    2    1    2  501    0  0.16774162895E+03 -0.32251883196E+02 -0.41038657578E+03  0.48044701213E+03  0.18230400937E+03 0.  0.
         24    2    5    5    0    0  0.11391253127E+03 -0.81993797781E+02 -0.19669766139E+03  0.25448933477E+03  0.79848630932E+02 0.  0.
          5    1    5    5  501    0  0.53829097678E+02  0.49741914585E+02 -0.21368891439E+03  0.22595767736E+03  0.47000000000E+01 0. -1.
        -11    1    6    6    0    0  0.36101993362E+02 -0.51294263212E+02 -0.14007845954E+03  0.15348104180E+03  0.00000000000E+00 0.  1.
         12    1    6    6    0    0  0.77810537907E+02 -0.30699534568E+02 -0.56619201851E+02  0.10100829298E+03  0.00000000000E+00 0. -1.
         -5    1    3    3    0  503 -0.37564894559E+02  0.28293232948E+02 -0.15278464299E+03  0.15992768824E+03  0.47000000000E+01 0.  1.
         13    1    4    4    0    0 -0.78367002190E+02  0.40847637093E+02 -0.49750073586E+02  0.10141492154E+03  0.00000000000E+00 0. -1.
        -14    1    4    4    0    0 -0.51809732199E+02 -0.36888986846E+02 -0.18370652328E+02  0.66200653834E+02  0.00000000000E+00 0.  1.
</event>
<event>
12    1  0.8226261E-002  0.1865245E+03  0.7818608E-02  0.1163207E+00
         21   -1    0    0  501  502  0.00000000000E+00  0.00000000000E+00  0.43455036912E+03  0.43455036912E+03  0.00000000000E+00 0. -1.
         21   -1    0    0  502  503 -0.00000000000E+00 -0.00000000000E+00 -0.21752159825E+03  0.21752159825E+03  0.00000000000E+00 0. -1.
         -6    2    1    2    0  503 -0.52153252503E+02  0.47025059994E+01 -0.15401635671E+03  0.23678185528E+03  0.17205386815E+03 0.  0.
        -24    2    3    3    0    0 -0.60985243472E+02 -0.53244216361E+02 -0.12293671493E+03  0.17026974488E+03  0.85581561371E+02 0.  0.
          6    2    1    2  501    0  0.52153252503E+02 -0.47025059994E+01  0.37104512757E+03  0.41529011209E+03  0.17902322530E+03 0.  0.
         24    2    5    5    0    0  0.55271518751E+02 -0.71136941145E+02  0.24364323870E+03  0.27149654809E+03  0.78948987863E+02 0.  0.
          5    1    5    5  501    0 -0.31182662479E+01  0.66434435145E+02  0.12740188887E+03  0.14379356399E+03  0.47000000000E+01 0. -1.
        -13    1    6    6    0    0  0.92623496777E+01 -0.67943789330E+02  0.10521848554E+03  0.12559092057E+03  0.00000000000E+00 0.  1.
         14    1    6    6    0    0  0.46009169073E+02 -0.31931518147E+01  0.13842475316E+03  0.14590562752E+03  0.00000000000E+00 0. -1.
         -5    1    3    3    0  503  0.88319909690E+01  0.57946722361E+02 -0.31079641781E+02  0.66512110401E+02  0.47000000000E+01 0.  1.
         13    1    4    4    0    0 -0.47850409708E+01 -0.55287521500E+02 -0.88085808943E+02  0.10410915612E+03  0.00000000000E+00 0. -1.
        -14    1    4    4    0    0 -0.56200202501E+02  0.20433051386E+01 -0.34850905983E+02  0.66160588758E+02  0.00000000000E+00 0.  1.
</event>
<event>
12    1  0.8226261E-002  0.1804975E+03  0.7818608E-02  0.1169114E+00
         21   -1    0    0  503  502  0.00000000000E+00  0.00000000000E+00  0.10212525506E+04  0.10212525506E+04  0.00000000000E+00 0. -1.
         21   -1    0    0  501  503 -0.00000000000E+00 -0.00000000000E+00 -0.12215482370E+03  0.12215482370E+03  0.00000000000E+00 0. -1.
          6    2    1    2  501    0 -0.27764158974E+02  0.10783701172E+02 -0.42972908159E+02  0.18554254059E+03  0.17802310749E+03 0.  0.
         24    2    3    3    0    0 -0.66861318163E+02 -0.44542525199E+02 -0.19866803247E+02  0.11380997292E+03  0.78125204938E+02 0.  0.
         -6    2    1    2    0  502  0.27764158974E+02 -0.10783701172E+02  0.94207063505E+03  0.95786483370E+03  0.17064823902E+03 0.  0.
        -24    2    5    5    0    0  0.76097899468E+02  0.61537916162E+01  0.46748215401E+03  0.48049773652E+03  0.80683028145E+02 0.  0.
          5    1    3    3  501    0  0.39097159189E+02  0.55326226370E+02 -0.23106104913E+02  0.71732567675E+02  0.47000000000E+01 0. -1.
        -13    1    4    4    0    0  0.10192827343E+02 -0.28156772275E+02  0.66785378775E+01  0.30680619654E+02  0.00000000000E+00 0.  1.
         14    1    4    4    0    0 -0.77054145506E+02 -0.16385752924E+02 -0.26545341124E+02  0.83129353263E+02  0.00000000000E+00 0. -1.
         -5    1    5    5    0  502 -0.48333740495E+02 -0.16937492788E+02  0.47458848104E+03  0.47736709718E+03  0.47000000000E+01 0.  1.
         11    1    6    6    0    0  0.11366736047E+02  0.25381374862E+02  0.27715208784E+03  0.27854388644E+03  0.00000000000E+00 0. -1.
        -12    1    6    6    0    0  0.64731163421E+02 -0.19227583246E+02  0.19033006617E+03  0.20195385008E+03  0.00000000000E+00 0.  1.
</event>
<event>
12    1  0.8226261E-002  0.5577763E+03  0.7818608E-02  0.9997189E-01
         21   -1    0    0  501  502  0.00000000000E+00  0.00000000000E+00  0.11530305204E+04  0.11530305204E+04  0.00000000000E+00 0. -1.
         21   -1    0    0  502  503 -0.00000000000E+00 -0.00000000000E+00 -0.37321862194E+03  0.37321862194E+03  0.00000000000E+00 0.  1.
         -6    2    1    2    0  503 -0.53022393785E+03 -0.88024297422E+01 -0.11947718039E+02  0.55774633032E+03  0.17240450683E+03 0.  0.
        -24    2    3    3    0    0 -0.33358759916E+03 -0.18410823934E+02  0.58798007523E+02  0.34849715202E+03  0.79833667876E+02 0.  0.
          6    2    1    2  501    0  0.53022393785E+03  0.88024297422E+01  0.79175961649E+03  0.96850281201E+03  0.17291471745E+03 0.  0.
         24    2    5    5    0    0  0.12446732903E+03 -0.20242374553E+02  0.17297110636E+03  0.22796021598E+03  0.78389965616E+02 0.  0.
          5    1    5    5  501    0  0.40575660882E+03  0.29044804295E+02  0.61878851013E+03  0.74054259603E+03  0.47000000000E+01 0. -1.
        -13    1    6    6    0    0  0.11213647562E+03 -0.19311389046E+02  0.92772021231E+02  0.14681337417E+03  0.00000000000E+00 0.  1.
         14    1    6    6    0    0  0.12330853409E+02 -0.93098550649E+00  0.80199085127E+02  0.81146841806E+02  0.00000000000E+00 0. -1.
         -5    1    3    3    0  503 -0.19663633870E+03  0.96083941918E+01 -0.70745725562E+02  0.20924917831E+03  0.47000000000E+01 0.  1.
         13    1    4    4    0    0 -0.27394442871E+03  0.14925893254E+02  0.56635121023E+02  0.28013544803E+03  0.00000000000E+00 0. -1.
        -14    1    4    4    0    0 -0.59643170448E+02 -0.33336717188E+02  0.21628865001E+01  0.68361703987E+02  0.00000000000E+00 0.  1.
</event>
<event>
12    1  0.8226261E-002  0.2085495E+03  0.7818608E-02  0.1142832E+00
         21   -1    0    0  503  502  0.00000000000E+00  0.00000000000E+00  0.51442746337E+03  0.51442746337E+03  0.00000000000E+00 0. -1.
         21   -1    0    0  501  503 -0.00000000000E+00 -0.00000000000E+00 -0.11874281168E+03  0.11874281168E+03  0.00000000000E+00 0.  1.
          6    2    1    2  501    0 -0.97228696280E+02 -0.66118305526E+02  0.27197142989E+02  0.20976036802E+03  0.17156537442E+03 0.  0.
         24    2    3    3    0    0 -0.44410493389E+01 -0.77618482769E+02  0.38000773182E+02  0.11552337992E+03  0.76532612381E+02 0.  0.
         -6    2    1    2    0  502  0.97228696280E+02  0.66118305526E+02  0.36848750870E+03  0.42340990704E+03  0.17224359379E+03 0.  0.
        -24    2    5    5    0    0  0.13598726067E+03  0.42213259151E+02  0.28238819730E+03  0.32589652857E+03  0.78682647694E+02 0.  0.
          5    1    3    3  501    0 -0.92787646941E+02  0.11500177244E+02 -0.10803630193E+02  0.94236988104E+02  0.47000000000E+01 0. -1.
        -11    1    4    4    0    0 -0.43990903910E+01 -0.41832192567E+02 -0.20617990593E+02  0.46844272513E+02  0.00000000000E+00 0.  1.
         12    1    4    4    0    0 -0.41958947862E-01 -0.35786290203E+02  0.58618763775E+02  0.68679107402E+02  0.00000000000E+00 0. -1.
         -5    1    5    5    0  502 -0.38758564390E+02  0.23905046375E+02  0.86099311405E+02  0.97513378468E+02  0.47000000000E+01 0.  1.
         13    1    6    6    0    0  0.63912352271E+02 -0.20084753905E+02  0.10518232910E+03  0.12470568739E+03  0.00000000000E+00 0. -1.
        -14    1    6    6    0    0  0.72074908399E+02  0.62298013056E+02  0.17720586820E+03  0.20119084118E+03  0.00000000000E+00 0.  1.
</event>
<event>
12    1  0.8226261E-002  0.1813334E+03  0.7818608E-02  0.1166758E+00
         21   -1    0    0  503  502  0.00000000000E+00  0.00000000000E+00  0.49570968247E+03  0.49570968247E+03  0.00000000000E+00 0.  1.
         21   -1    0    0  501  503 -0.00000000000E+00 -0.00000000000E+00 -0.10292367302E+03  0.10292367302E+03  0.00000000000E+00 0.  1.
          6    2    1    2  501    0  0.48722215333E+02  0.32363320543E+02  0.16696631734E+02  0.18111088672E+03  0.17059055365E+03 0.  0.
         24    2    3    3    0    0  0.88139207581E+02  0.35292964816E+02 -0.20477533617E+02  0.12664722303E+03  0.81277773338E+02 0.  0.
         -6    2    1    2    0  502 -0.48722215333E+02 -0.32363320543E+02  0.37608937771E+03  0.41752246877E+03  0.17164076764E+03 0.  0.
        -24    2    5    5    0    0  0.39246975341E+02 -0.70251372544E+01  0.16446853339E+03  0.18690140774E+03  0.79325658596E+02 0.  0.
          5    1    3    3  501    0 -0.39416992248E+02 -0.29296442733E+01  0.37174165351E+02  0.54463663695E+02  0.47000000000E+01 0. -1.
        -13    1    4    4    0    0  0.99142378665E+02  0.24515464539E+02 -0.14127185346E+01  0.10213821529E+03  0.00000000000E+00 0.  1.
         14    1    4    4    0    0 -0.11003171084E+02  0.10777500277E+02 -0.19064815082E+02  0.24509007737E+02  0.00000000000E+00 0. -1.
         -5    1    5    5    0  502 -0.87969190674E+02 -0.25338183289E+02  0.21162084432E+03  0.23062106103E+03  0.47000000000E+01 0.  1.
         11    1    6    6    0    0  0.24315529170E+02  0.23931973365E-01  0.28960294003E+01  0.24487395080E+02  0.00000000000E+00 0. -1.
        -12    1    6    6    0    0  0.14931446172E+02 -0.70490692278E+01  0.16157250399E+03  0.16241401265E+03  0.00000000000E+00 0.  1.
</event>
<event>
12    1  0.8226261E-002  0.3168981E+03  0.7818608E-02  0.1077419E+00
         21   -1    0    0  503  502  0.00000000000E+00  0.00000000000E+00  0.20690561947E+03  0.20690561947E+03  0.00000000000E+00 0. -1.
         21   -1    0    0  501  503 -0.00000000000E+00 -0.00000000000E+00 -0.65198660137E+03  0.65198660137E+03  0.00000000000E+00 0.  1.
          6    2    1    2  501    0  0.14206635443E+03  0.22486276451E+03 -0.44319317160E+03  0.54483445617E+03  0.17227386729E+03 0.  0.
         24    2    3    3    0    0  0.14256319992E+03  0.20915837749E+03 -0.29924421232E+03  0.39995427290E+03  0.79654434630E+02 0.  0.
         -6    2    1    2    0  502 -0.14206635443E+03 -0.22486276451E+03 -0.18878102967E+01  0.31405776467E+03  0.16698084860E+03 0.  0.
        -24    2    5    5    0    0 -0.11210661839E+03 -0.74570869219E+02 -0.25900409445E+02  0.15886776985E+03  0.80246050786E+02 0.  0.
          5    1    3    3  501    0 -0.49684549523E+00  0.15704387023E+02 -0.14394895928E+03  0.14488018327E+03  0.47000000000E+01 0. -1.
        -11    1    4    4    0    0  0.50205302553E+02  0.74067052831E+02 -0.52097821614E+02  0.10354073467E+03  0.00000000000E+00 0.  1.
         12    1    4    4    0    0  0.92357897368E+02  0.13509132466E+03 -0.24714639071E+03  0.29641353822E+03  0.00000000000E+00 0. -1.
         -5    1    5    5    0  502 -0.29959736040E+02 -0.15029189529E+03  0.24012599149E+02  0.15518999482E+03  0.47000000000E+01 0.  1.
         11    1    6    6    0    0 -0.84511468470E+02 -0.92449941103E+01 -0.60696169399E+01  0.85232027248E+02  0.00000000000E+00 0. -1.
        -12    1    6    6    0    0 -0.27595149915E+02 -0.65325875109E+02 -0.19830792505E+02  0.73635742605E+02  0.00000000000E+00 0.  1.
</event>
<event>
12    1  0.8226261E-002  0.1747629E+03  0.7818608E-02  0.1177110E+00
         21   -1    0    0  503  502  0.00000000000E+00  0.00000000000E+00  0.21276178390E+03  0.21276178390E+03  0.00000000000E+00 0.  1.
         21   -1    0    0  501  503 -0.00000000000E+00 -0.00000000000E+00 -0.14853087513E+03  0.14853087513E+03  0.00000000000E+00 0.  1.
          6    2    1    2  501    0 -0.26607435040E+02 -0.22218385622E+02 -0.28597758010E+02  0.17708730120E+03  0.17129059584E+03 0.  0.
         24    2    3    3    0    0 -0.93999090761E+01 -0.76380664421E+02  0.30834442691E+01  0.11185356781E+03  0.81113185211E+02 0.  0.
         -6    2    1    2    0  502  0.26607435040E+02  0.22218385622E+02  0.92828666783E+02  0.18420535782E+03  0.15528309700E+03 0.  0.
        -24    2    5    5    0    0 -0.38062899892E+02  0.28419262378E+02  0.53140077231E+02  0.10792969176E+03  0.81046355457E+02 0.  0.
          5    1    3    3  501    0 -0.17207525964E+02  0.54162278798E+02 -0.31681202279E+02  0.65233733392E+02  0.47000000000E+01 0. -1.
        -11    1    4    4    0    0  0.24111739811E+02 -0.44536210339E+02 -0.26310795034E+02  0.57071078169E+02  0.00000000000E+00 0.  1.
         12    1    4    4    0    0 -0.33511648887E+02 -0.31844454082E+02  0.29394239303E+02  0.54782489640E+02  0.00000000000E+00 0. -1.
         -5    1    5    5    0  502  0.64670334933E+02 -0.62008767555E+01  0.39688589552E+02  0.76275666064E+02  0.47000000000E+01 0.  1.
         13    1    6    6    0    0  0.17998904299E+02  0.23687715825E+02 -0.11137435774E+01  0.29770939886E+02  0.00000000000E+00 0. -1.
        -14    1    6    6    0    0 -0.56061804191E+02  0.47315465533E+01  0.54253820809E+02  0.78158751873E+02  0.00000000000E+00 0.  1.
</event>
<event>
12    1  0.8226261E-002  0.2861829E+03  0.7818608E-02  0.1092392E+00
         21   -1    0    0  503  502  0.00000000000E+00  0.00000000000E+00  0.38447012620E+03  0.38447012620E+03  0.00000000000E+00 0.  1.
         21   -1    0    0  501  503 -0.00000000000E+00 -0.00000000000E+00 -0.24716383698E+03  0.24716383698E+03  0.00000000000E+00 0.  1.
          6    2    1    2  501    0  0.13209779547E+03  0.18684778032E+03 -0.49012943957E+02  0.29034969036E+03  0.17186841896E+03 0.  0.
         24    2    3    3    0    0  0.46834169890E+02  0.10201659713E+03  0.35479794829E+02  0.14328736209E+03  0.81680026528E+02 0.  0.
         -6    2    1    2    0  502 -0.13209779547E+03 -0.18684778032E+03  0.18631923318E+03  0.34128427281E+03  0.17145896779E+03 0.  0.
        -24    2    5    5    0    0 -0.65419486663E+02 -0.50634992303E+02  0.21513522082E+02  0.11726879813E+03  0.80284043882E+02 0.  0.
          5    1    3    3  501    0  0.85263625582E+02  0.84831183196E+02 -0.84492738787E+02  0.14706232827E+03  0.47000000000E+01 0. -1.
        -11    1    4    4    0    0  0.41315030725E+02  0.11011299232E+03  0.48309302996E+02  0.12714397979E+03  0.00000000000E+00 0.  1.
         12    1    4    4    0    0  0.55191391652E+01 -0.80963951891E+01 -0.12829508166E+02  0.16143382297E+02  0.00000000000E+00 0. -1.
         -5    1    5    5    0  502 -0.66678308809E+02 -0.13621278802E+03  0.16480571110E+03  0.22401547468E+03  0.47000000000E+01 0.  1.
         13    1    6    6    0    0 -0.76087036515E+02 -0.37871503533E+02 -0.59081426716E+01  0.85196209160E+02  0.00000000000E+00 0. -1.
        -14    1    6    6    0    0  0.10667549852E+02 -0.12763488770E+02  0.27421664754E+02  0.32072588971E+02  0.00000000000E+00 0.  1.
</event>
<event>
12    1  0.8226261E-002  0.1878511E+03  0.7818608E-02  0.1160698E+00
         21   -1    0    0  501  502  0.00000000000E+00  0.00000000000E+00  0.14521823780E+03  0.14521823780E+03  0.00000000000E+00 0. -1.
         21   -1    0    0  502  503 -0.00000000000E+00 -0.00000000000E+00 -0.25477882202E+03  0.25477882202E+03  0.00000000000E+00 0. -1.
         -6    2    1    2    0  503  0.51902504786E+02 -0.54146926429E+02 -0.87809474738E+01  0.18681969463E+03  0.17087636940E+03 0.  0.
        -24    2    3    3    0    0  0.73955857893E+02 -0.91495778390E+02 -0.13502310648E+02  0.14293725628E+03  0.80048738022E+02 0.  0.
          6    2    1    2  501    0 -0.51902504786E+02  0.54146926429E+02 -0.10077963675E+03  0.21317736518E+03  0.17222744903E+03 0.  0.
         24    2    5    5    0    0 -0.29231010326E+02 -0.15256679435E+02 -0.11003714570E+03  0.13943017107E+03  0.79027722584E+02 0.  0.
          5    1    5    5  501    0 -0.22671494460E+02  0.69403605864E+02  0.92575089553E+01  0.73747194117E+02  0.47000000000E+01 0. -1.
        -11    1    6    6    0    0  0.24882883897E+02  0.62190878869E+00 -0.15417231488E+02  0.29278587881E+02  0.00000000000E+00 0.  1.
         12    1    6    6    0    0 -0.54113894223E+02 -0.15878588224E+02 -0.94619914215E+02  0.11015158318E+03  0.00000000000E+00 0. -1.
         -5    1    3    3    0  503 -0.22053353108E+02  0.37348851961E+02  0.47213631740E+01  0.43882438358E+02  0.47000000000E+01 0.  1.
         13    1    4    4    0    0  0.67435122839E+02 -0.39293866434E+02 -0.35715999261E+02  0.85832023947E+02  0.00000000000E+00 0. -1.
        -14    1    4    4    0    0  0.65207350545E+01 -0.52201911955E+02  0.22213688614E+02  0.57105232328E+02  0.00000000000E+00 0.  1.
</event>
<event>
12    1  0.8226261E-002  0.1785409E+03  0.7818608E-02  0.1170512E+00
         21   -1    0    0  503  502  0.00000000000E+00  0.00000000000E+00  0.36801356514E+03  0.36801356514E+03  0.00000000000E+00 0.  1.
         21   -1    0    0  501  503 -0.00000000000E+00 -0.00000000000E+00 -0.17720647377E+03  0.17720647377E+03  0.00000000000E+00 0. -1.
          6    2    1    2  501    0 -0.35461938910E+02 -0.32213662323E+02 -0.10283541520E+03  0.20155918216E+03  0.16660045661E+03 0.  0.
         24    2    3    3    0    0 -0.10172140237E+02 -0.75172491011E+02 -0.27517581881E+02  0.11111637761E+03  0.76388848780E+02 0.  0.
         -6    2    1    2    0  502  0.35461938910E+02  0.32213662323E+02  0.29364250657E+03  0.34366085676E+03  0.17199300465E+03 0.  0.
        -24    2    5    5    0    0 -0.33733886887E+02  0.59257684437E+02  0.17122372700E+03  0.20038528650E+03  0.78659074934E+02 0.  0.
          5    1    3    3  501    0 -0.25289798673E+02  0.42958828689E+02 -0.75317833320E+02  0.90442804552E+02  0.47000000000E+01 0. -1.
        -11    1    4    4    0    0 -0.85327101529E+01 -0.24352788056E+02  0.26461627373E+02  0.36960562115E+02  0.00000000000E+00 0.  1.
         12    1    4    4    0    0 -0.16394300843E+01 -0.50819702956E+02 -0.53979209254E+02  0.74155815491E+02  0.00000000000E+00 0. -1.
         -5    1    5    5    0  502  0.69195825797E+02 -0.27044022114E+02  0.12241877957E+03  0.14327557025E+03  0.47000000000E+01 0.  1.
         13    1    6    6    0    0 -0.35873664565E+02 -0.38713380080E+01  0.35185024342E+02  0.50397351173E+02  0.00000000000E+00 0. -1.
        -14    1    6    6    0    0  0.21397776782E+01  0.63129022445E+02  0.13603870266E+03  0.14998793533E+03  0.00000000000E+00 0.  1.
</event>
<event>
12    1  0.8226261E-002  0.1726571E+03  0.7818608E-02  0.1175388E+00
         21   -1    0    0  501  502  0.00000000000E+00  0.00000000000E+00  0.17982232639E+04  0.17982232639E+04  0.00000000000E+00 0. -1.
         21   -1    0    0  502  503 -0.00000000000E+00 -0.00000000000E+00 -0.27869558616E+02  0.27869558616E+02  0.00000000000E+00 0. -1.
         -6    2    1    2    0  503 -0.44577213863E+01  0.23747428721E+01  0.29959664793E+03  0.34523604235E+03  0.17147671215E+03 0.  0.
        -24    2    3    3    0    0  0.22456138245E+01  0.68432593845E+02  0.19058215244E+03  0.21750654457E+03  0.79369247322E+02 0.  0.
          6    2    1    2  501    0  0.44577213863E+01 -0.23747428721E+01  0.14707570574E+04  0.14808567802E+04  0.17258322891E+03 0.  0.
         24    2    5    5    0    0  0.50404235995E+02 -0.32460624329E+02  0.12083365210E+04  0.12127096743E+04  0.83626114803E+02 0.  0.
          5    1    5    5  501    0 -0.45946514608E+02  0.30085881457E+02  0.26242053638E+03  0.26814710586E+03  0.47000000000E+01 0. -1.
        -11    1    6    6    0    0  0.22184674392E+02  0.22250195368E+02  0.19593579802E+03  0.19843907861E+03  0.00000000000E+00 0.  1.
         12    1    6    6    0    0  0.28219561602E+02 -0.54710819697E+02  0.10124007230E+04  0.10142705957E+04  0.00000000000E+00 0. -1.
         -5    1    3    3    0  503 -0.67033352108E+01 -0.66057850973E+02  0.10901449549E+03  0.12772949779E+03  0.47000000000E+01 0.  1.
         13    1    4    4    0    0  0.16775332299E+02  0.10193769906E+02  0.13262058506E+03  0.13406544783E+03  0.00000000000E+00 0. -1.
        -14    1    4    4    0    0 -0.14529718475E+02  0.58238823939E+02  0.57961567372E+02  0.83441096739E+02  0.00000000000E+00 0.  1.
</event>
<event>
12    1  0.8226261E-002  0.2147132E+03  0.7818608E-02  0.1137917E+00
         21   -1    0    0  501  502  0.00000000000E+00  0.00000000000E+00  0.49990130063E+03  0.49990130063E+03  0.00000000000E+00 0.  1.
         21   -1    0    0  502  503 -0.00000000000E+00 -0.00000000000E+00 -0.92165786751E+02  0.92165786751E+02  0.00000000000E+00 0. -1.
         -6    2    1    2    0  503  0.93239921784E+02 -0.87816038031E+02  0.20068016140E+03  0.29378256405E+03  0.17213462235E+03 0.  0.
        -24    2    3    3    0    0 -0.17719632866E+02 -0.21729539117E+02  0.70889141255E+02  0.11062348833E+03  0.80163130951E+02 0.  0.
          6    2    1    2  501    0 -0.93239921784E+02  0.87816038031E+02  0.20705535247E+03  0.29828452333E+03  0.17232642954E+03 0.  0.
         24    2    5    5    0    0  0.81857706104E+01  0.68273533049E+02  0.74161202992E+02  0.12990392603E+03  0.81528300696E+02 0.  0.
          5    1    5    5  501    0 -0.10142569239E+03  0.19542504982E+02  0.13289414948E+03  0.16838059729E+03  0.47000000000E+01 0. -1.
        -11    1    6    6    0    0  0.33575465614E+02  0.45711803158E+02  0.77208229357E+02  0.95801834636E+02  0.00000000000E+00 0.  1.
         12    1    6    6    0    0 -0.25389695004E+02  0.22561729891E+02 -0.30470263647E+01  0.34102091398E+02  0.00000000000E+00 0. -1.
         -5    1    3    3    0  503  0.11095955465E+03 -0.66086498914E+02  0.12979102015E+03  0.18315907572E+03  0.47000000000E+01 0.  1.
         13    1    4    4    0    0 -0.36578426610E+01 -0.32654340665E+02 -0.44951463719E+01  0.33164621483E+02  0.00000000000E+00 0. -1.
        -14    1    4    4    0    0 -0.14061790205E+02  0.10924801548E+02  0.75384287627E+02  0.77458866850E+02  0.00000000000E+00 0.  1.
</event>
<event>
12    1  0.8226261E-002  0.2067232E+03  0.7818608E-02  0.1144292E+00
         21   -1    0    0  501  502  0.00000000000E+00  0.00000000000E+00  0.62394848663E+02  0.62394848663E+02  0.00000000000E+00 0.  1.
         21   -1    0    0  502  503 -0.00000000000E+00 -0.00000000000E+00 -0.81873262625E+03  0.81873262625E+03  0.00000000000E+00 0. -1.
         -6    2    1    2    0  503  0.11362048331E+03  0.60610408531E+01 -0.55781194931E+03  0.59488541803E+03  0.17259240814E+03 0.  0.
        -24    2    3    3    0    0  0.89208698940E+02  0.64454049187E+02 -0.44735098148E+03  0.46749077901E+03  0.79449426689E+02 0.  0.
          6    2    1    2  501    0 -0.11362048331E+03 -0.60610408531E+01 -0.19852582827E+03  0.28624205688E+03  0.17197575466E+03 0.  0.
         24    2    5    5    0    0 -0.11516355468E+03  0.48243132955E+02 -0.12294042138E+03  0.19304029671E+03  0.80994843933E+02 0.  0.
          5    1    5    5  501    0  0.15430713700E+01 -0.54304173808E+02 -0.75585406897E+02  0.93201760166E+02  0.47000000000E+01 0. -1.
        -13    1    6    6    0    0 -0.14876730923E+01 -0.36850436653E+01  0.98907231733E+01  0.10659227127E+02  0.00000000000E+00 0.  1.
         14    1    6    6    0    0 -0.11367588159E+03  0.51928176621E+02 -0.13283114455E+03  0.18238106959E+03  0.00000000000E+00 0. -1.
         -5    1    3    3    0  503  0.24411784368E+02 -0.58393008333E+02 -0.11046096783E+03  0.12739463903E+03  0.47000000000E+01 0.  1.
         13    1    4    4    0    0  0.96183032523E+02  0.67926874581E+02 -0.33915068829E+03  0.35901034164E+03  0.00000000000E+00 0. -1.
        -14    1    4    4    0    0 -0.69743335825E+01 -0.34728253940E+01 -0.10820029318E+03  0.10848043736E+03  0.00000000000E+00 0.  1.
</event>
<event>
12    1  0.8226261E-002  0.3081173E+03  0.7818608E-02  0.1081318E+00
         21   -1    0    0  501  502  0.00000000000E+00  0.00000000000E+00  0.21033531328E+03  0.21033531328E+03  0.00000000000E+00 0.  1.
         21   -1    0    0  502  503 -0.00000000000E+00 -0.00000000000E+00 -0.56132904197E+03  0.56132904197E+03  0.00000000000E+00 0. -1.
         -6    2    1    2    0  503 -0.11162194314E+03 -0.22923034306E+03 -0.34676821496E+03  0.46351806279E+03  0.17203136706E+03 0.  0.
        -24    2    3    3    0    0 -0.11012320666E+03 -0.12660297584E+03 -0.29390341966E+03  0.34796980752E+03  0.80921769142E+02 0.  0.
          6    2    1    2  501    0  0.11162194314E+03  0.22923034306E+03 -0.42255137203E+01  0.30814629246E+03  0.17300368268E+03 0.  0.
         24    2    5    5    0    0  0.62824083037E+02  0.14321572807E+03  0.64993553414E+02  0.18734432891E+03  0.80100720432E+02 0.  0.
          5    1    5    5  501    0  0.48797860101E+02  0.86014614993E+02 -0.69219067134E+02  0.12080196355E+03  0.47000000000E+01 0. -1.
        -13    1    6    6    0    0  0.73087578589E+02  0.98861581568E+02  0.22338276207E+02  0.12495761297E+03  0.00000000000E+00 0.  1.
         14    1    6    6    0    0 -0.10263495552E+02  0.44354146502E+02  0.42655277207E+02  0.62386715945E+02  0.00000000000E+00 0. -1.
         -5    1    3    3    0  503 -0.14987364790E+01 -0.10262736722E+03 -0.52864795305E+02  0.11554825527E+03  0.47000000000E+01 0.  1.
         13    1    4    4    0    0 -0.54479815863E+02 -0.99829893518E+02 -0.12948357438E+03  0.17233703610E+03  0.00000000000E+00 0. -1.
        -14    1    4    4    0    0 -0.55643390796E+02 -0.26773082325E+02 -0.16441984528E+03  0.17563277142E+03  0.00000000000E+00 0.  1.
</event>
<event>
12    1  0.8226261E-002  0.1895013E+03  0.7818608E-02  0.1159095E+00
         21   -1    0    0  501  502  0.00000000000E+00  0.00000000000E+00  0.88958341358E+03  0.88958341358E+03  0.00000000000E+00 0.  1.
         21   -1    0    0  502  503 -0.00000000000E+00 -0.00000000000E+00 -0.51354066400E+02  0.51354066400E+02  0.00000000000E+00 0.  1.
         -6    2    1    2    0  503 -0.72781049341E+01  0.77387035122E+02  0.19912134061E+03  0.27432681007E+03  0.17194233458E+03 0.  0.
        -24    2    3    3    0    0  0.38200734433E+02  0.64770324400E+02  0.19800657664E+03  0.22688380301E+03  0.81333662428E+02 0.  0.
          6    2    1    2  501    0  0.72781049341E+01 -0.77387035122E+02  0.63910800657E+03  0.66661066991E+03  0.17282655223E+03 0.  0.
         24    2    5    5    0    0  0.30584649075E+02  0.16981447706E+02  0.22529564777E+03  0.24150907753E+03  0.79653721178E+02 0.  0.
          5    1    5    5  501    0 -0.23306544141E+02 -0.94368482828E+02  0.41381235880E+03  0.42510159238E+03  0.47000000000E+01 0. -1.
        -13    1    6    6    0    0 -0.17184897862E+02 -0.17188489130E+02  0.10317197275E+03  0.10599632462E+03  0.00000000000E+00 0.  1.
         14    1    6    6    0    0  0.47769546938E+02  0.34169936835E+02  0.12212367503E+03  0.13551275291E+03  0.00000000000E+00 0. -1.
         -5    1    3    3    0  503 -0.45478839368E+02  0.12616710722E+02  0.11147639679E+01  0.47443007054E+02  0.47000000000E+01 0.  1.
         11    1    4    4    0    0 -0.21554808905E+02  0.43902419347E+01  0.68983609702E+02  0.72405955686E+02  0.00000000000E+00 0. -1.
        -12    1    4    4    0    0  0.59755543339E+02  0.60380082465E+02  0.12902296694E+03  0.15447784733E+03  0.00000000000E+00 0.  1.
</event>
<event>
12    1  0.8226261E-002  0.2256325E+03  0.7818608E-02  0.1129893E+00
         21   -1    0    0  503  502  0.00000000000E+00  0.00000000000E+00  0.53023271521E+03  0.53023271521E+03  0.00000000000E+00 0. -1.
         21   -1    0    0  501  503 -0.00000000000E+00 -0.00000000000E+00 -0.27710777311E+03  0.27710777311E+03  0.00000000000E+00 0. -1.
          6    2    1    2  501    0  0.14467839169E+03  0.11819055789E+02 -0.20013882070E+03  0.30102235570E+03  0.17171890978E+03 0.  0.
         24    2    3    3    0    0  0.93903017306E+02  0.38643294476E+02 -0.47432337600E+02  0.13780765536E+03  0.80187544907E+02 0.  0.
         -6    2    1    2    0  502 -0.14467839169E+03 -0.11819055789E+02  0.45326376281E+03  0.50631813262E+03  0.17273819972E+03 0.  0.
        -24    2    5    5    0    0 -0.26998080252E+02 -0.53668150034E+02  0.17842659355E+03  0.20439502652E+03  0.79574561989E+02 0.  0.
          5    1    3    3  501    0  0.50775374386E+02 -0.26824238686E+02 -0.15270648310E+03  0.16321470034E+03  0.47000000000E+01 0. -1.
        -11    1    4    4    0    0  0.38217052175E+02  0.41500788873E+02  0.10516907305E+02  0.57388708761E+02  0.00000000000E+00 0.  1.
         12    1    4    4    0    0  0.55685965131E+02 -0.28574943975E+01 -0.57949244905E+02  0.80418946598E+02  0.00000000000E+00 0. -1.
         -5    1    5    5    0  502 -0.11768031144E+03  0.41849094244E+02  0.27483716926E+03  0.30192310610E+03  0.47000000000E+01 0.  1.
         11    1    6    6    0    0 -0.44342058281E+02 -0.59096909838E+02  0.10267788574E+03  0.12649668417E+03  0.00000000000E+00 0. -1.
        -12    1    6    6    0    0  0.17343978028E+02  0.54287598047E+01  0.75748707812E+02  0.77898342358E+02  0.00000000000E+00 0.  1.
</event>
<event>
12    1  0.8226261E-002  0.1828208E+03  0.7818608E-02  0.1165998E+00
         21   -1    0    0  501  502  0.00000000000E+00  0.00000000000E+00  0.32582404713E+03  0.32582404713E+03  0.00000000000E+00 0. -1.
         21   -1    0    0  502  503 -0.00000000000E+00 -0.00000000000E+00 -0.11795356739E+03  0.11795356739E+03  0.00000000000E+00 0. -1.
         -6    2    1    2    0  503  0.48854235467E+02  0.25787211367E+02  0.18839083601E+03  0.25992198769E+03  0.17034264293E+03 0.  0.
        -24    2    3    3    0    0 -0.60005938560E+01  0.32674945536E+02  0.18555170156E+03  0.20436441515E+03  0.78941250553E+02 0.  0.
          6    2    1    2  501    0 -0.48854235467E+02 -0.25787211367E+02  0.19479643724E+02  0.18385562683E+03  0.17427483583E+03 0.  0.
         24    2    5    5    0    0 -0.85035099691E+02 -0.34906643749E+01 -0.29026248366E+02  0.11919418150E+03  0.78240506725E+02 0.  0.
          5    1    5    5  501    0  0.36180864224E+02 -0.22296546992E+02  0.48505892090E+02  0.64661445323E+02  0.47000000000E+01 0. -1.
        -13    1    6    6    0    0 -0.89132697534E+02 -0.11985004276E+02 -0.13390516229E+01  0.89944822844E+02  0.00000000000E+00 0.  1.
         14    1    6    6    0    0  0.40975978429E+01  0.84943399009E+01 -0.27687196743E+02  0.29249358659E+02  0.00000000000E+00 0. -1.
         -5    1    3    3    0  503  0.54854829323E+02 -0.68877341685E+01  0.28391344518E+01  0.55557572540E+02  0.47000000000E+01 0.  1.
         13    1    4    4    0    0 -0.26703588156E+02  0.45101659799E+02  0.76911366822E+02  0.93073087858E+02  0.00000000000E+00 0. -1.
        -14    1    4    4    0    0  0.20702994300E+02 -0.12426714263E+02  0.10864033473E+03  0.11129132730E+03  0.00000000000E+00 0.  1.
</event>
<event>
12    1  0.8226261E-002  0.1889125E+03  0.7818608E-02  0.1159491E+00
         21   -1    0    0  501  502  0.00000000000E+00  0.00000000000E+00  0.18239690208E+04  0.18239690208E+04  0.00000000000E+00 0.  1.
         21   -1    0    0  502  503 -0.00000000000E+00 -0.00000000000E+00 -0.22413187094E+02  0.22413187094E+02  0.00000000000E+00 0. -1.
         -6    2    1    2    0  503 -0.74025873264E+02 -0.23685414793E+02  0.57013980407E+03  0.60055984020E+03  0.17196481235E+03 0.  0.
        -24    2    3    3    0    0 -0.99771223630E+02 -0.61008553224E+01  0.54657603273E+03  0.56119766143E+03  0.78777776969E+02 0.  0.
          6    2    1    2  501    0  0.74025873264E+02  0.23685414793E+02  0.12314160296E+04  0.12458223677E+04  0.17218334710E+03 0.  0.
         24    2    5    5    0    0  0.10627215894E+03  0.41047378396E+02  0.73575791304E+03  0.74879086038E+03  0.79808439051E+02 0.  0.
          5    1    5    5  501    0 -0.32246285677E+02 -0.17361963603E+02  0.49565811659E+03  0.49703150731E+03  0.47000000000E+01 0. -1.
        -13    1    6    6    0    0  0.88857643310E+01 -0.20973771148E+02  0.93279252997E+02  0.96020179773E+02  0.00000000000E+00 0.  1.
         14    1    6    6    0    0  0.97386394610E+02  0.62021149544E+02  0.64247866004E+03  0.65277068060E+03  0.00000000000E+00 0. -1.
         -5    1    3    3    0  503  0.25745350367E+02 -0.17584559470E+02  0.23563771339E+02  0.39362178763E+02  0.47000000000E+01 0.  1.
         13    1    4    4    0    0 -0.44546942690E+02  0.29982333930E+02  0.15341718442E+03  0.16254292641E+03  0.00000000000E+00 0. -1.
        -14    1    4    4    0    0 -0.55224280940E+02 -0.36083189253E+02  0.39315884831E+03  0.39865473502E+03  0.00000000000E+00 0.  1.
</event>
<event>
12    1  0.8226261E-002  0.2070937E+03  0.7818608E-02  0.1144096E+00
         21   -1    0    0  501  502  0.00000000000E+00  0.00000000000E+00  0.25679698239E+03  0.25679698239E+03  0.00000000000E+00 0.  1.
         21   -1    0    0  502  503 -0.00000000000E+00 -0.00000000000E+00 -0.17161776209E+03  0.17161776209E+03  0.00000000000E+00 0. -1.
         -6    2    1    2    0  503  0.11233491194E+03  0.11531932316E+02  0.45797627367E+01  0.20714429620E+03  0.17359627679E+03 0.  0.
        -24    2    3    3    0    0  0.13003320532E+03  0.62924094776E+01 -0.41798220828E+02  0.15700758761E+03  0.77175529794E+02 0.  0.
          6    2    1    2  501    0 -0.11233491194E+03 -0.11531932316E+02  0.80599457558E+02  0.22127044828E+03  0.17237233195E+03 0.  0.
         24    2    5    5    0    0 -0.85393971761E+02  0.51220571848E+02  0.84658756165E+02  0.15269742923E+03  0.78953926468E+02 0.  0.
          5    1    5    5  501    0 -0.26940940179E+02 -0.62752504164E+02 -0.40592986070E+01  0.68573019051E+02  0.47000000000E+01 0. -1.
        -13    1    6    6    0    0 -0.33217092501E+02 -0.98123869787E+01  0.58975016763E+02  0.68393791930E+02  0.00000000000E+00 0.  1.
         14    1    6    6    0    0 -0.52176879259E+02  0.61032958827E+02  0.25683739403E+02  0.84303637301E+02  0.00000000000E+00 0. -1.
         -5    1    3    3    0  503 -0.17698293384E+02  0.52395228379E+01  0.46377983564E+02  0.50136708585E+02  0.47000000000E+01 0.  1.
         11    1    4    4    0    0  0.46767878587E+02 -0.25825935679E+02 -0.41683570430E+02  0.67762330723E+02  0.00000000000E+00 0. -1.
        -12    1    4    4    0    0  0.83265326737E+02  0.32118345157E+02 -0.11465039798E+00  0.89245256888E+02  0.00000000000E+00 0.  1.
</event>
<event>
12    1  0.8226261E-002  0.1904756E+03  0.7818608E-02  0.1158075E+00
         21   -1    0    0  503  502  0.00000000000E+00  0.00000000000E+00  0.45360475735E+02  0.45360475735E+02  0.00000000000E+00 0.  1.
         21   -1    0    0  501  503 -0.00000000000E+00 -0.00000000000E+00 -0.10966251322E+04  0.10966251322E+04  0.00000000000E+00 0.  1.
          6    2    1    2  501    0  0.47052184995E+02 -0.66350107874E+02 -0.82288316971E+03  0.84459858722E+03  0.17202853719E+03 0.  0.
         24    2    3    3    0    0  0.37574858800E+01 -0.12162760831E+02 -0.68809655476E+03  0.69294034932E+03  0.80792373394E+02 0.  0.
         -6    2    1    2    0  502 -0.47052184995E+02  0.66350107874E+02 -0.22838148679E+03  0.29738702076E+03  0.17223440910E+03 0.  0.
        -24    2    5    5    0    0 -0.15417286881E+02  0.18268434623E+02 -0.22643221875E+03  0.23960723426E+03  0.74623378261E+02 0.  0.
          5    1    3    3  501    0  0.43294699115E+02 -0.54187347042E+02 -0.13478661496E+03  0.15165823790E+03  0.47000000000E+01 0. -1.
        -13    1    4    4    0    0  0.98686355601E+01  0.33838156097E+02 -0.31699277940E+03  0.31894644217E+03  0.00000000000E+00 0.  1.
         14    1    4    4    0    0 -0.61111496801E+01 -0.46000916928E+02 -0.37110377535E+03  0.37399390716E+03  0.00000000000E+00 0. -1.
         -5    1    5    5    0  502 -0.31634898114E+02  0.48081673251E+02 -0.19492680379E+01  0.57779786493E+02  0.47000000000E+01 0.  1.
         13    1    6    6    0    0 -0.36715381406E+02  0.30564891128E+02 -0.10025116294E+03  0.11105191341E+03  0.00000000000E+00 0. -1.
        -14    1    6    6    0    0  0.21298094525E+02 -0.12296456505E+02 -0.12618105582E+03  0.12855532086E+03  0.00000000000E+00 0.  1.
</event>
<event>
12    1  0.8226261E-002  0.1973897E+03  0.7818608E-02  0.1152073E+00
         21   -1    0    0  501  502  0.00000000000E+00  0.00000000000E+00  0.58433199296E+02  0.58433199296E+02  0.00000000000E+00 0.  1.
         21   -1    0    0  502  503 -0.00000000000E+00 -0.00000000000E+00 -0.10637866676E+04  0.10637866676E+04  0.00000000000E+00 0.  1.
         -6    2    1    2    0  503 -0.92205684488E+02 -0.27223067532E+02 -0.84580076281E+03  0.86840936350E+03  0.17179321459E+03 0.  0.
        -24    2    3    3    0    0 -0.41573701260E+02  0.38920922721E+01 -0.19020976427E+03  0.21011353466E+03  0.78895006212E+02 0.  0.
          6    2    1    2  501    0  0.92205684488E+02  0.27223067532E+02 -0.15955270547E+03  0.25381050337E+03  0.17239408964E+03 0.  0.
         24    2    5    5    0    0 -0.19777054947E+02  0.90200436329E+01 -0.86207568231E+02  0.11863253488E+03  0.78545785511E+02 0.  0.
          5    1    5    5  501    0  0.11198273943E+03  0.18203023899E+02 -0.73345137237E+02  0.13517796850E+03  0.47000000000E+01 0. -1.
        -13    1    6    6    0    0  0.79866414097E+01  0.39469932348E+02 -0.41256344627E+02  0.57651955496E+02  0.00000000000E+00 0.  1.
         14    1    6    6    0    0 -0.27763696356E+02 -0.30449888715E+02 -0.44951223604E+02  0.60980579381E+02  0.00000000000E+00 0. -1.
         -5    1    3    3    0  503 -0.50631983228E+02 -0.31115159804E+02 -0.65559099854E+03  0.65829582884E+03  0.47000000000E+01 0.  1.
         11    1    4    4    0    0 -0.51354732962E+02  0.29816195743E+02 -0.10649268599E+03  0.12193033378E+03  0.00000000000E+00 0. -1.
        -12    1    4    4    0    0  0.97810317023E+01 -0.25924103471E+02 -0.83717078279E+02  0.88183200880E+02  0.00000000000E+00 0.  1.
</event>
<event>
12    1  0.8226261E-002  0.3694959E+03  0.7818608E-02  0.1054900E+00
         21   -1    0    0  501  502  0.00000000000E+00  0.00000000000E+00  0.24368299446E+03  0.24368299446E+03  0.00000000000E+00 0.  1.
         21   -1    0    0  502  503 -0.00000000000E+00 -0.00000000000E+00 -0.56004516986E+03  0.56004516986E+03  0.00000000000E+00 0. -1.
         -6    2    1    2    0  503 -0.36921789785E+02  0.32576208356E+03 -0.15648121398E+03  0.40112520739E+03  0.17009088167E+03 0.  0.
        -24    2    3    3    0    0 -0.57002507909E+02  0.33118967709E+03 -0.15801314981E+03  0.37974458908E+03  0.79384565903E+02 0.  0.
          6    2    1    2  501    0  0.36921789785E+02 -0.32576208356E+03 -0.15988096143E+03  0.40260295693E+03  0.17042026129E+03 0.  0.
         24    2    5    5    0    0  0.51853305220E+02 -0.11612381530E+03 -0.25452448295E+02  0.15307486470E+03  0.81305481581E+02 0.  0.
          5    1    5    5  501    0 -0.14931515435E+02 -0.20963826826E+03 -0.13442851313E+03  0.24952809224E+03  0.47000000000E+01 0. -1.
        -11    1    6    6    0    0  0.48560481876E+02 -0.34384066964E+02 -0.37579650811E+02  0.70374815212E+02  0.00000000000E+00 0.  1.
         12    1    6    6    0    0  0.32928233436E+01 -0.81739748339E+02  0.12127202516E+02  0.82700049485E+02  0.00000000000E+00 0. -1.
         -5    1    3    3    0  503  0.20080718124E+02 -0.54275935271E+01  0.15319358351E+01  0.21380618309E+02  0.47000000000E+01 0.  1.
         11    1    4    4    0    0 -0.93482836972E+01  0.14202284922E+03 -0.27303257631E+02  0.14492531865E+03  0.00000000000E+00 0. -1.
        -12    1    4    4    0    0 -0.47654224212E+02  0.18916682787E+03 -0.13070989218E+03  0.23481927043E+03  0.00000000000E+00 0.  1.
</event>
<event>
12    1  0.8226261E-002  0.2487230E+03  0.7818608E-02  0.1114310E+00
         21   -1    0    0  503  502  0.00000000000E+00  0.00000000000E+00  0.14620827897E+03  0.14620827897E+03  0.00000000000E+00 0. -1.
         21   -1    0    0  501  503 -0.00000000000E+00 -0.00000000000E+00 -0.43034989422E+03  0.43034989422E+03  0.00000000000E+00 0.  1.
          6    2    1    2  501    0 -0.12168250247E+03  0.13025005328E+03 -0.18414138640E+03  0.30848513651E+03  0.17170708043E+03 0.  0.
         24    2    3    3    0    0 -0.13703427441E+03  0.71754367597E+02 -0.89584495143E+02  0.19614405840E+03  0.80746691835E+02 0.  0.
         -6    2    1    2    0  502  0.12168250247E+03 -0.13025005328E+03 -0.10000022884E+03  0.26807303669E+03  0.17346872756E+03 0.  0.
        -24    2    5    5    0    0  0.11485769836E+03 -0.67875292609E+02 -0.10480494567E+02  0.15865155093E+03  0.85212250443E+02 0.  0.
          5    1    3    3  501    0  0.15351771940E+02  0.58495685686E+02 -0.94556891259E+02  0.11234107811E+03  0.47000000000E+01 0. -1.
        -11    1    4    4    0    0 -0.17117766393E+02 -0.17752461542E+02 -0.95340085310E+01  0.26439839935E+02  0.00000000000E+00 0.  1.
         12    1    4    4    0    0 -0.11991650802E+03  0.89506829139E+02 -0.80050486612E+02  0.16970421847E+03  0.00000000000E+00 0. -1.
         -5    1    5    5    0  502  0.68248041121E+01 -0.62374760674E+02 -0.89519734278E+02  0.10942148576E+03  0.47000000000E+01 0.  1.
         13    1    6    6    0    0  0.22783125902E+02 -0.61801682534E+02 -0.79142844917E+01  0.66341199031E+02  0.00000000000E+00 0. -1.
        -14    1    6    6    0    0  0.92074572460E+02 -0.60736100747E+01 -0.25662100755E+01  0.92310351896E+02  0.00000000000E+00 0.  1.
</event>
<event>
12    1  0.8226261E-002  0.1779869E+03  0.7818608E-02  0.1170114E+00
         21   -1    0    0  501  502  0.00000000000E+00  0.00000000000E+00  0.67858789267E+03  0.67858789267E+03  0.00000000000E+00 0.  1.
         21   -1    0    0  502  503 -0.00000000000E+00 -0.00000000000E+00 -0.47864184312E+02  0.47864184312E+02  0.00000000000E+00 0. -1.
         -6    2    1    2    0  503 -0.36056835878E+02  0.31763422368E+02  0.24877459468E+03  0.30506807745E+03  0.16990798248E+03 0.  0.
        -24    2    3    3    0    0 -0.71303977068E+02  0.26638469628E+02  0.24530677282E+03  0.26897456154E+03  0.79862611744E+02 0.  0.
          6    2    1    2  501    0  0.36056835878E+02 -0.31763422368E+02  0.38194911368E+03  0.42138399953E+03  0.17137776753E+03 0.  0.
         24    2    5    5    0    0 -0.46081755476E+02 -0.20111200513E+02  0.22150859172E+03  0.24070258501E+03  0.79647282773E+02 0.  0.
          5    1    5    5  501    0  0.82138591354E+02 -0.11652221855E+02  0.16044052196E+03  0.18068141452E+03  0.47000000000E+01 0. -1.
        -11    1    6    6    0    0 -0.14134784205E+02 -0.47553301268E+02  0.14660279115E+03  0.15476914085E+03  0.00000000000E+00 0.  1.
         12    1    6    6    0    0 -0.31946971271E+02  0.27442100755E+02  0.74905800570E+02  0.85933444166E+02  0.00000000000E+00 0. -1.
         -5    1    3    3    0  503  0.35247141190E+02  0.51249527399E+01  0.34678218598E+01  0.36093515915E+02  0.47000000000E+01 0.  1.
         13    1    4    4    0    0 -0.64658469778E+02 -0.93667742987E+01  0.10251837454E+03  0.12156673596E+03  0.00000000000E+00 0. -1.
        -14    1    4    4    0    0 -0.66455072897E+01  0.36005243926E+02  0.14278839828E+03  0.14740782558E+03  0.00000000000E+00 0.  1.
</event>
<event>
12    1  0.8226261E-002  0.2324005E+03  0.7818608E-02  0.1125180E+00
         21   -1    0    0  501  502  0.00000000000E+00  0.00000000000E+00  0.26294170427E+03  0.26294170427E+03  0.00000000000E+00 0.  1.
         21   -1    0    0  502  503 -0.00000000000E+00 -0.00000000000E+00 -0.22724506919E+03  0.22724506919E+03  0.00000000000E+00 0. -1.
         -6    2    1    2    0  503  0.12195846954E+03  0.94830054972E+02 -0.59988231836E+02  0.24001783178E+03  0.17361844371E+03 0.  0.
        -24    2    3    3    0    0  0.14425890522E+03  0.10006156305E+03 -0.79406922990E+02  0.20962287045E+03  0.82542960088E+02 0.  0.
          6    2    1    2  501    0 -0.12195846954E+03 -0.94830054972E+02  0.95684866924E+02  0.25016894168E+03  0.17193690122E+03 0.  0.
         24    2    5    5    0    0  0.44324803007E+01 -0.12117079954E+02  0.35133592579E+02  0.87366437816E+02  0.78943363375E+02 0.  0.
          5    1    5    5  501    0 -0.12639094984E+03 -0.82712975018E+02  0.60551274346E+02  0.16280250386E+03  0.47000000000E+01 0. -1.
        -13    1    6    6    0    0  0.22396927927E+00 -0.45918711008E+02  0.20815056898E+02  0.50416711282E+02  0.00000000000E+00 0.  1.
         14    1    6    6    0    0  0.42085110214E+01  0.33801631053E+02  0.14318535681E+02  0.36949726534E+02  0.00000000000E+00 0. -1.
         -5    1    3    3    0  503 -0.22300435684E+02 -0.52315080742E+01  0.19418691153E+02  0.30394961335E+02  0.47000000000E+01 0.  1.
         11    1    4    4    0    0  0.83877602701E+02  0.56786432751E+02 -0.88848749765E+02  0.13473771378E+03  0.00000000000E+00 0. -1.
        -12    1    4    4    0    0  0.60381302524E+02  0.43275130296E+02  0.94418267752E+01  0.74885156669E+02  0.00000000000E+00 0.  1.
</event>
<event>
12    1  0.8226261E-002  0.1991530E+03  0.7818608E-02  0.1150589E+00
         21   -1    0    0  501  502  0.00000000000E+00  0.00000000000E+00  0.63512491246E+03  0.63512491246E+03  0.00000000000E+00 0.  1.
         21   -1    0    0  502  503 -0.00000000000E+00 -0.00000000000E+00 -0.62269399539E+02  0.62269399539E+02  0.00000000000E+00 0.  1.
         -6    2    1    2    0  503  0.91923345982E+02 -0.38517431356E+02  0.28086806173E+03  0.34430913141E+03  0.17241930234E+03 0.  0.
        -24    2    3    3    0    0  0.81467976711E+02 -0.36928750373E+02  0.29910548436E+03  0.32270977406E+03  0.81711343551E+02 0.  0.
          6    2    1    2  501    0 -0.91923345982E+02  0.38517431356E+02  0.29198745119E+03  0.35308518058E+03  0.17169443509E+03 0.  0.
         24    2    5    5    0    0 -0.10571641939E+02  0.57385871185E+02  0.21871187500E+03  0.24188483059E+03  0.85255434894E+02 0.  0.
          5    1    5    5  501    0 -0.81351704044E+02 -0.18868439829E+02  0.73275576192E+02  0.11120034999E+03  0.47000000000E+01 0. -1.
        -13    1    6    6    0    0 -0.46170697648E+02  0.46429400258E+02  0.12668822973E+03  0.14260901122E+03  0.00000000000E+00 0.  1.
         14    1    6    6    0    0  0.35599055709E+02  0.10956470927E+02  0.92023645271E+02  0.99275819370E+02  0.00000000000E+00 0. -1.
         -5    1    3    3    0  503  0.10455369272E+02 -0.15886809834E+01 -0.18237422633E+02  0.21599357355E+02  0.47000000000E+01 0.  1.
         13    1    4    4    0    0  0.16305286903E+02 -0.51355459785E+02  0.14871721981E+03  0.15817729641E+03  0.00000000000E+00 0. -1.
        -14    1    4    4    0    0  0.65162689807E+02  0.14426709413E+02  0.15038826455E+03  0.16453247765E+03  0.00000000000E+00 0.  1.
</event>
<event>
12    1  0.8226261E-002  0.1816688E+03  0.7818608E-02  0.1166595E+00
         21   -1    0    0  503  502  0.00000000000E+00  0.00000000000E+00  0.10505904762E+03  0.10505904762E+03  0.00000000000E+00 0.  1.
         21   -1    0    0  501  503 -0.00000000000E+00 -0.00000000000E+00 -0.31758542734E+03  0.31758542734E+03  0.00000000000E+00 0.  1.
          6    2    1    2  501    0  0.48919653904E+02  0.28005680983E+02 -0.76025644963E+02  0.19540894096E+03  0.17095995089E+03 0.  0.
         24    2    3    3    0    0 -0.33537801866E+02  0.38368402137E+02 -0.53738673934E+02  0.10923808115E+03  0.80300652930E+02 0.  0.
         -6    2    1    2    0  502 -0.48919653904E+02 -0.28005680983E+02 -0.13650073476E+03  0.22723553401E+03  0.17270230636E+03 0.  0.
        -24    2    5    5    0    0  0.16607420021E+02 -0.13048431019E+02 -0.12090672159E+02  0.85752423993E+02  0.82226673991E+02 0.  0.
          5    1    3    3  501    0  0.82457455770E+02 -0.10362721155E+02 -0.22286971029E+02  0.86170859804E+02  0.47000000000E+01 0. -1.
        -11    1    4    4    0    0 -0.15499954632E+02  0.35492765666E+02  0.12366305620E+02  0.40656002299E+02  0.00000000000E+00 0.  1.
         12    1    4    4    0    0 -0.18037847234E+02  0.28756364709E+01 -0.66104979554E+02  0.68582078853E+02  0.00000000000E+00 0. -1.
         -5    1    5    5    0  502 -0.65527073925E+02 -0.14957249964E+02 -0.12441006260E+03  0.14148311002E+03  0.47000000000E+01 0.  1.
         13    1    6    6    0    0  0.34866346604E+02 -0.39248292310E+02 -0.11838772580E+02  0.53816792091E+02  0.00000000000E+00 0. -1.
        -14    1    6    6    0    0 -0.18258926583E+02  0.26199861291E+02 -0.25189957857E+00  0.31935631903E+02  0.00000000000E+00 0.  1.
</event>
<event>
12    1  0.8226261E-002  0.1959585E+03  0.7818608E-02  0.1153944E+00
         21   -1    0    0  501  502  0.00000000000E+00  0.00000000000E+00  0.22694099172E+03  0.22694099172E+03  0.00000000000E+00 0.  1.
         21   -1    0    0  502  503 -0.00000000000E+00 -0.00000000000E+00 -0.20495264838E+03  0.20495264838E+03  0.00000000000E+00 0.  1.
         -6    2    1    2    0  503 -0.84474184624E+02 -0.48923710944E+02  0.10474468754E+03  0.21917702244E+03  0.16594487108E+03 0.  0.
        -24    2    3    3    0    0  0.90845402421E+01  0.77367214832E+01  0.56788282576E+02  0.99654863912E+02  0.81017264412E+02 0.  0.
          6    2    1    2  501    0  0.84474184624E+02  0.48923710944E+02 -0.82756344199E+02  0.21271661767E+03  0.16991271161E+03 0.  0.
         24    2    5    5    0    0 -0.29966135552E+01  0.68482676370E+02 -0.36143708204E+02  0.11158046441E+03  0.80280606246E+02 0.  0.
          5    1    5    5  501    0  0.87470798179E+02 -0.19558965426E+02 -0.46612635995E+02  0.10113615326E+03  0.47000000000E+01 0. -1.
        -13    1    6    6    0    0  0.67271592014E+01 -0.14914632873E+02 -0.20406987114E+02  0.26156186032E+02  0.00000000000E+00 0.  1.
         14    1    6    6    0    0 -0.97237727566E+01  0.83397309242E+02 -0.15736721090E+02  0.85424278377E+02  0.00000000000E+00 0. -1.
         -5    1    3    3    0  503 -0.93558724866E+02 -0.56660432427E+02  0.47956404964E+02  0.11952215852E+03  0.47000000000E+01 0.  1.
         13    1    4    4    0    0 -0.16677436072E+02  0.29653303860E+02  0.54630034519E+00  0.34025780634E+02  0.00000000000E+00 0. -1.
        -14    1    4    4    0    0  0.25761976314E+02 -0.21916582376E+02  0.56241982230E+02  0.65629083278E+02  0.00000000000E+00 0.  1.
</event>
<event>
12    1  0.8226261E-002  0.3543969E+03  0.7818608E-02  0.1060955E+00
         21   -1    0    0  501  502  0.00000000000E+00  0.00000000000E+00  0.45549193083E+03  0.45549193083E+03  0.00000000000E+00 0.  1.
         21   -1    0    0  502  503 -0.00000000000E+00 -0.00000000000E+00 -0.33548086365E+03  0.33548086365E+03  0.00000000000E+00 0. -1.
         -6    2    1    2    0  503  0.30184278881E+03  0.60949460609E+02 -0.10837257883E+03  0.36936126413E+03  0.17279821090E+03 0.  0.
        -24    2    3    3    0    0  0.21734683128E+03  0.21664400655E+02 -0.88647864673E+01  0.23295461651E+03  0.80500171363E+02 0.  0.
          6    2    1    2  501    0 -0.30184278881E+03 -0.60949460609E+02  0.22838364600E+03  0.42161153035E+03  0.17542316510E+03 0.  0.
         24    2    5    5    0    0 -0.26840027280E+03 -0.10443982864E+03  0.20171123479E+03  0.36042884073E+03  0.79215798613E+02 0.  0.
          5    1    5    5  501    0 -0.33442516018E+02  0.43490368028E+02  0.26672411216E+02  0.61182689618E+02  0.47000000000E+01 0. -1.
        -13    1    6    6    0    0 -0.20735970114E+03 -0.50447530317E+02  0.11912606602E+03  0.24440543893E+03  0.00000000000E+00 0.  1.
         14    1    6    6    0    0 -0.61040571652E+02 -0.53992298320E+02  0.82585168765E+02  0.11602340180E+03  0.00000000000E+00 0. -1.
         -5    1    3    3    0  503  0.84495957533E+02  0.39285059954E+02 -0.99507792363E+02  0.13640664762E+03  0.47000000000E+01 0.  1.
         13    1    4    4    0    0  0.11826115773E+03  0.18949762713E+01  0.34199397138E+02  0.12312144869E+03  0.00000000000E+00 0. -1.
        -14    1    4    4    0    0  0.99085673551E+02  0.19769424383E+02 -0.43064183605E+02  0.10983316782E+03  0.00000000000E+00 0.  1.
</event>
<event>
12    1  0.8226261E-002  0.2319408E+03  0.7818608E-02  0.1125295E+00
         21   -1    0    0  503  502  0.00000000000E+00  0.00000000000E+00  0.17066969134E+03  0.17066969134E+03  0.00000000000E+00 0.  1.
         21   -1    0    0  501  503 -0.00000000000E+00 -0.00000000000E+00 -0.39816045725E+03  0.39816045725E+03  0.00000000000E+00 0.  1.
          6    2    1    2  501    0 -0.19097809539E+01  0.15464602160E+03 -0.24366070088E+03  0.33640311297E+03  0.17285102837E+03 0.  0.
         24    2    3    3    0    0  0.61182262392E+01  0.17878698021E+03 -0.17424425519E+03  0.26232229418E+03  0.80310077651E+02 0.  0.
         -6    2    1    2    0  502  0.19097809539E+01 -0.15464602160E+03  0.16169934962E+02  0.23242703561E+03  0.17274785332E+03 0.  0.
        -24    2    5    5    0    0  0.19382899131E+02 -0.45499937778E+02 -0.43382055709E+02  0.10678187230E+03  0.84109597415E+02 0.  0.
          5    1    3    3  501    0 -0.80280071932E+01 -0.24140958609E+02 -0.69416445681E+02  0.74080818793E+02  0.47000000000E+01 0. -1.
        -13    1    4    4    0    0  0.20290977739E+02  0.31995960861E+02 -0.76585215951E+02  0.85444488361E+02  0.00000000000E+00 0.  1.
         14    1    4    4    0    0 -0.14172751500E+02  0.14679101935E+03 -0.97659039242E+02  0.17687780582E+03  0.00000000000E+00 0. -1.
         -5    1    5    5    0  502 -0.17473118177E+02 -0.10914608382E+03  0.59551990670E+02  0.12564516332E+03  0.47000000000E+01 0.  1.
         13    1    6    6    0    0  0.34225069597E+02 -0.42710860322E+01  0.11677557856E+02  0.36413773799E+02  0.00000000000E+00 0. -1.
        -14    1    6    6    0    0 -0.14842170466E+02 -0.41228851745E+02 -0.55059613565E+02  0.70368098498E+02  0.00000000000E+00 0.  1.
</event>
<event>
12    1  0.8226261E-002  0.1949764E+03  0.7818608E-02  0.1154066E+00
         21   -1    0    0  503  502  0.00000000000E+00  0.00000000000E+00  0.13118020607E+04  0.13118020607E+04  0.00000000000E+00 0. -1.
         21   -1    0    0  501  503 -0.00000000000E+00 -0.00000000000E+00 -0.52310358278E+02  0.52310358278E+02  0.00000000000E+00 0.  1.
          6    2    1    2  501    0 -0.85161304632E+02 -0.35421039909E+02  0.17419946354E+03  0.26145982952E+03  0.17178094039E+03 0.  0.
         24    2    3    3    0    0 -0.10528093438E+03 -0.24671978841E+02  0.63984179306E+02  0.14881063648E+03  0.79736118813E+02 0.  0.
         -6    2    1    2    0  502  0.85161304632E+02  0.35421039909E+02  0.10852922389E+04  0.11026525895E+04  0.17168689929E+03 0.  0.
        -24    2    5    5    0    0  0.71936611153E+02  0.56573027023E+02  0.43204031677E+03  0.44890763704E+03  0.80522343875E+02 0.  0.
          5    1    3    3  501    0  0.20119629745E+02 -0.10749061068E+02  0.11021528423E+03  0.11264919305E+03  0.47000000000E+01 0. -1.
        -13    1    4    4    0    0 -0.60221818823E+02 -0.50344055830E+02  0.55808640975E+02  0.96310933062E+02  0.00000000000E+00 0.  1.
         14    1    4    4    0    0 -0.45059115555E+02  0.25672076989E+02  0.81755383314E+01  0.52499703414E+02  0.00000000000E+00 0. -1.
         -5    1    5    5    0  502  0.13224693479E+02 -0.21151987115E+02  0.65325192214E+03  0.65374495245E+03  0.47000000000E+01 0.  1.
         13    1    6    6    0    0  0.26873450798E+02 -0.16203559349E+01  0.26508699737E+03  0.26645060347E+03  0.00000000000E+00 0. -1.
        -14    1    6    6    0    0  0.45063160356E+02  0.58193382958E+02  0.16695331940E+03  0.18245703357E+03  0.00000000000E+00 0.  1.
</event>
<event>
12    1  0.8226261E-002  0.1974546E+03  0.7818608E-02  0.1155388E+00
         21   -1    0    0  503  502  0.00000000000E+00  0.00000000000E+00  0.30266755035E+03  0.30266755035E+03  0.00000000000E+00 0. -1.
         21   -1    0    0  501  503 -0.00000000000E+00 -0.00000000000E+00 -0.12477688036E+03  0.12477688036E+03  0.00000000000E+00 0. -1.
          6    2    1    2  501    0 -0.57298199590E+02 -0.13297890920E+01  0.13192644200E+03  0.22471056691E+03  0.17264240721E+03 0.  0.
         24    2    3    3    0    0 -0.74815262285E+02  0.49232534284E+02  0.12068355543E+03  0.16982989154E+03  0.79098075878E+02 0.  0.
         -6    2    1    2    0  502  0.57298199590E+02  0.13297890920E+01  0.45964227985E+02  0.20273386380E+03  0.18895358493E+03 0.  0.
        -24    2    5    5    0    0 -0.12797025022E+02  0.48291370028E+02 -0.20335653550E+02  0.95325787334E+02  0.78598006699E+02 0.  0.
          5    1    3    3  501    0  0.17517062695E+02 -0.50562323376E+02  0.11242886568E+02  0.54880675369E+02  0.47000000000E+01 0. -1.
        -13    1    4    4    0    0 -0.25256485790E+02 -0.95232154273E+00 -0.49477396959E+01  0.25754167020E+02  0.00000000000E+00 0.  1.
         14    1    4    4    0    0 -0.49558776495E+02  0.50184855827E+02  0.12563129513E+03  0.14407572452E+03  0.00000000000E+00 0. -1.
         -5    1    5    5    0  502  0.70095224613E+02 -0.46961580936E+02  0.66299881535E+02  0.10740807646E+03  0.47000000000E+01 0.  1.
         11    1    6    6    0    0  0.21009204520E+02  0.54753871990E+02 -0.11067003794E+02  0.59681251206E+02  0.00000000000E+00 0. -1.
        -12    1    6    6    0    0 -0.33806229542E+02 -0.64625019629E+01 -0.92686497566E+01  0.35644536128E+02  0.00000000000E+00 0.  1.
</event>
<event>
12    1  0.8226261E-002  0.1980968E+03  0.7818608E-02  0.1151469E+00
         21   -1    0    0  503  502  0.00000000000E+00  0.00000000000E+00  0.36910711495E+03  0.36910711495E+03  0.00000000000E+00 0.  1.
         21   -1    0    0  501  503 -0.00000000000E+00 -0.00000000000E+00 -0.12800257529E+03  0.12800257529E+03  0.00000000000E+00 0.  1.
          6    2    1    2  501    0  0.14677506522E+02 -0.95841566109E+02  0.17708770684E+02  0.19888677237E+03  0.17274638251E+03 0.  0.
         24    2    3    3    0    0  0.28897167317E+02 -0.25594682484E+02 -0.48756778571E+02  0.10102675678E+03  0.79618139131E+02 0.  0.
         -6    2    1    2    0  502 -0.14677506522E+02  0.95841566109E+02  0.22339576898E+03  0.29822291788E+03  0.17213426202E+03 0.  0.
        -24    2    5    5    0    0 -0.28360554941E+01  0.10958207327E+03  0.23853392610E+03  0.27413401378E+03  0.78960430724E+02 0.  0.
          5    1    3    3  501    0 -0.14219660796E+02 -0.70246883625E+02  0.66465549256E+02  0.97860015584E+02  0.47000000000E+01 0. -1.
        -11    1    4    4    0    0 -0.10791192385E+02  0.12967828992E+02  0.10561739710E+02  0.19903888252E+02  0.00000000000E+00 0.  1.
         12    1    4    4    0    0  0.39688359702E+02 -0.38562511476E+02 -0.59318518282E+02  0.81122868529E+02  0.00000000000E+00 0. -1.
         -5    1    5    5    0  502 -0.11841451028E+02 -0.13740507165E+02 -0.15138157122E+02  0.24088904098E+02  0.47000000000E+01 0.  1.
         11    1    6    6    0    0  0.23379467104E+01  0.11148231422E+03  0.15785259084E+03  0.19326461863E+03  0.00000000000E+00 0. -1.
        -12    1    6    6    0    0 -0.51740022045E+01 -0.19002409409E+01  0.80681335256E+02  0.80869395158E+02  0.00000000000E+00 0.  1.
</event>
<event>
12    1  0.8226261E-002  0.2299677E+03  0.7818608E-02  0.1127521E+00
         21   -1    0    0  503  502  0.00000000000E+00  0.00000000000E+00  0.17702824586E+03  0.17702824586E+03  0.00000000000E+00 0.  1.
         21   -1    0    0  501  503 -0.00000000000E+00 -0.00000000000E+00 -0.32635464724E+03  0.32635464724E+03  0.00000000000E+00 0.  1.
          6    2    1    2  501    0 -0.57220132216E+02 -0.13599798920E+03 -0.15500769292E+03  0.27334506320E+03  0.17006040725E+03 0.  0.
         24    2    3    3    0    0  0.17530567709E+02 -0.33234456997E+02 -0.86292348730E+02  0.12880476011E+03  0.87934332555E+02 0.  0.
         -6    2    1    2    0  502  0.57220132216E+02  0.13599798920E+03  0.56812915306E+01  0.23003782990E+03  0.17639594530E+03 0.  0.
        -24    2    5    5    0    0  0.73140440397E+02  0.15949564174E+02 -0.33005817825E+01  0.10851480899E+03  0.78489854836E+02 0.  0.
          5    1    3    3  501    0 -0.74750699925E+02 -0.10276353220E+03 -0.68715344185E+02  0.14454030308E+03  0.47000000000E+01 0. -1.
        -13    1    4    4    0    0 -0.11662313625E+02 -0.56675502286E+02 -0.57500754847E+02  0.81574867002E+02  0.00000000000E+00 0.  1.
         14    1    4    4    0    0  0.29192881334E+02  0.23441045289E+02 -0.28791593883E+02  0.47229893109E+02  0.00000000000E+00 0. -1.
         -5    1    5    5    0  502 -0.15920308181E+02  0.12004842502E+03  0.89818733132E+01  0.12152302091E+03  0.47000000000E+01 0.  1.
         13    1    6    6    0    0  0.13753630885E+02  0.10404024990E+02  0.34030213168E+02  0.38150511226E+02  0.00000000000E+00 0. -1.
        -14    1    6    6    0    0  0.59386809512E+02  0.55455391837E+01 -0.37330794950E+02  0.70364297769E+02  0.00000000000E+00 0.  1.
</event>
<event>
12    1  0.8226261E-002  0.2606885E+03  0.7818608E-02  0.1106743E+00
         21   -1    0    0  503  502  0.00000000000E+00  0.00000000000E+00  0.67898061137E+03  0.67898061137E+03  0.00000000000E+00 0.  1.
         21   -1    0    0  501  503 -0.00000000000E+00 -0.00000000000E+00 -0.15006660352E+03  0.15006660352E+03  0.00000000000E+00 0.  1.
          6    2    1    2  501    0 -0.19405294582E+03  0.18032556170E+02  0.25189554748E+02  0.26190262923E+03  0.17313796425E+03 0.  0.
         24    2    3    3    0    0 -0.55888964158E+02 -0.76085239704E+01 -0.47089681323E+02  0.10381047640E+03  0.73332877834E+02 0.  0.
         -6    2    1    2    0  502  0.19405294582E+03 -0.18032556170E+02  0.50372445311E+03  0.56714458566E+03  0.17301137974E+03 0.  0.
        -24    2    5    5    0    0  0.16001997479E+03 -0.30199721581E+02  0.49874675299E+03  0.53035939122E+03  0.77552206453E+02 0.  0.
          5    1    3    3  501    0 -0.13816398166E+03  0.25641080140E+02  0.72279236070E+02  0.15809215283E+03  0.47000000000E+01 0. -1.
        -11    1    4    4    0    0 -0.20650468232E+02  0.32278122176E+02 -0.12377521558E+02  0.40268126966E+02  0.00000000000E+00 0.  1.
         12    1    4    4    0    0 -0.35238495925E+02 -0.39886646147E+02 -0.34712159764E+02  0.63542349433E+02  0.00000000000E+00 0. -1.
         -5    1    5    5    0  502  0.34032971033E+02  0.12167165411E+02  0.49777001228E+01  0.36785194440E+02  0.47000000000E+01 0.  1.
         13    1    6    6    0    0  0.28475998454E+02  0.67938415689E+01  0.19636856114E+03  0.19853878859E+03  0.00000000000E+00 0. -1.
        -14    1    6    6    0    0  0.13154397633E+03 -0.36993563150E+02  0.30237819185E+03  0.33182060263E+03  0.00000000000E+00 0.  1.
</event>
<event>
12    1  0.8226261E-002  0.2546824E+03  0.7818608E-02  0.1112080E+00
         21   -1    0    0  503  502  0.00000000000E+00  0.00000000000E+00  0.16261830887E+03  0.16261830887E+03  0.00000000000E+00 0. -1.
         21   -1    0    0  501  503 -0.00000000000E+00 -0.00000000000E+00 -0.38220662879E+03  0.38220662879E+03  0.00000000000E+00 0.  1.
          6    2    1    2  501    0 -0.15366142835E+03  0.88728856220E+02 -0.10575452396E+03  0.26586029101E+03  0.16737093687E+03 0.  0.
         24    2    3    3    0    0 -0.68976037503E+02  0.62128606447E+02  0.65784063854E+01  0.12261237322E+03  0.79830201972E+02 0.  0.
         -6    2    1    2    0  502  0.15366142835E+03 -0.88728856220E+02 -0.11383379595E+03  0.27896464664E+03  0.18269782835E+03 0.  0.
        -24    2    5    5    0    0  0.11720234495E+03 -0.29238487298E+01 -0.13189293600E+02  0.14169422038E+03  0.78475193974E+02 0.  0.
          5    1    3    3  501    0 -0.84685390851E+02  0.26600249773E+02 -0.11233293035E+03  0.14324791779E+03  0.47000000000E+01 0. -1.
        -11    1    4    4    0    0 -0.13134840468E+02  0.64828574155E+02 -0.12683015229E+01  0.66157967395E+02  0.00000000000E+00 0.  1.
         12    1    4    4    0    0 -0.55841197034E+02 -0.26999677075E+01  0.78467079083E+01  0.56454405823E+02  0.00000000000E+00 0. -1.
         -5    1    5    5    0  502  0.36459083404E+02 -0.85805007491E+02 -0.10064450236E+03  0.13727042627E+03  0.47000000000E+01 0.  1.
         11    1    6    6    0    0  0.11727259423E+03 -0.21973872081E+02 -0.14594749005E+01  0.11932243074E+03  0.00000000000E+00 0. -1.
        -12    1    6    6    0    0 -0.70249280027E-01  0.19050023351E+02 -0.11729818699E+02  0.22371789633E+02  0.00000000000E+00 0.  1.
</event>
<event>
12    1  0.8226261E-002  0.2351592E+03  0.7818608E-02  0.1123067E+00
         21   -1    0    0  503  502  0.00000000000E+00  0.00000000000E+00  0.22460165698E+03  0.22460165698E+03  0.00000000000E+00 0.  1.
         21   -1    0    0  501  503 -0.00000000000E+00 -0.00000000000E+00 -0.28081025868E+03  0.28081025868E+03  0.00000000000E+00 0. -1.
          6    2    1    2  501    0 -0.21460440392E+02  0.15916731308E+03 -0.11685283584E+03  0.26255893881E+03  0.17172019989E+03 0.  0.
         24    2    3    3    0    0 -0.57820597076E+02  0.35569655893E+02 -0.48434824356E+02  0.11660841243E+03  0.81505630305E+02 0.  0.
         -6    2    1    2    0  502  0.21460440392E+02 -0.15916731308E+03  0.60644234140E+02  0.24285297685E+03  0.17177037340E+03 0.  0.
        -24    2    5    5    0    0 -0.21108303823E+02 -0.15142868792E+02  0.13515712297E+02  0.85378134081E+02  0.80199029513E+02 0.  0.
          5    1    3    3  501    0  0.36360156684E+02  0.12359765718E+03 -0.68418011485E+02  0.14595052638E+03  0.47000000000E+01 0. -1.
        -13    1    4    4    0    0 -0.30183207301E+02  0.35615538147E+01  0.19841908601E+02  0.36296170672E+02  0.00000000000E+00 0.  1.
         14    1    4    4    0    0 -0.27637389775E+02  0.32008102079E+02 -0.68276732956E+02  0.80312241753E+02  0.00000000000E+00 0. -1.
         -5    1    5    5    0  502  0.42568744215E+02 -0.14402444428E+03  0.47128521843E+02  0.15747484277E+03  0.47000000000E+01 0.  1.
         13    1    6    6    0    0 -0.46472152405E+02 -0.29176401174E+02  0.12978396086E+02  0.56385832436E+02  0.00000000000E+00 0. -1.
        -14    1    6    6    0    0  0.25363848582E+02  0.14033532382E+02  0.53731621133E+00  0.28992301645E+02  0.00000000000E+00 0.  1.
</event>
<event>
12    1  0.8226261E-002  0.1826206E+03  0.7818608E-02  0.1165664E+00
         21   -1    0    0  501  502  0.00000000000E+00  0.00000000000E+00  0.46125219506E+02  0.46125219506E+02  0.00000000000E+00 0.  1.
         21   -1    0    0  502  503 -0.00000000000E+00 -0.00000000000E+00 -0.72404127211E+03  0.72404127211E+03  0.00000000000E+00 0. -1.
         -6    2    1    2    0  503  0.59132225295E+02 -0.95605250728E+01 -0.30205619872E+03  0.35297057219E+03  0.17251740185E+03 0.  0.
        -24    2    3    3    0    0  0.10403915890E+03  0.16485385872E+02 -0.20073373341E+03  0.23902604999E+03  0.75785924252E+02 0.  0.
          6    2    1    2  501    0 -0.59132225295E+02  0.95605250728E+01 -0.37585985388E+03  0.41719591942E+03  0.17086187905E+03 0.  0.
         24    2    5    5    0    0 -0.82244469387E+02  0.27971551327E+02 -0.36817019707E+03  0.38630316078E+03  0.78321629118E+02 0.  0.
          5    1    5    5  501    0  0.23112244092E+02 -0.18411026254E+02 -0.76896568104E+01  0.30892758643E+02  0.47000000000E+01 0. -1.
        -11    1    6    6    0    0 -0.15182187661E+02  0.29124732355E+02 -0.42048458534E+02  0.53355615656E+02  0.00000000000E+00 0.  1.
         12    1    6    6    0    0 -0.67062281726E+02 -0.11531810282E+01 -0.32612173854E+03  0.33294754512E+03  0.00000000000E+00 0. -1.
         -5    1    3    3    0  503 -0.44906933604E+02 -0.26045910945E+02 -0.10132246531E+03  0.11394452220E+03  0.47000000000E+01 0.  1.
         13    1    4    4    0    0 -0.73484724357E+01  0.70845441069E+01 -0.51870257496E+02  0.52865058640E+02  0.00000000000E+00 0. -1.
        -14    1    4    4    0    0  0.11138763133E+03  0.94008417654E+01 -0.14886347591E+03  0.18616099135E+03  0.00000000000E+00 0.  1.
</event>
<event>
12    1  0.8226261E-002  0.2103334E+03  0.7818608E-02  0.1142389E+00
         21   -1    0    0  501  502  0.00000000000E+00  0.00000000000E+00  0.29835129913E+03  0.29835129913E+03  0.00000000000E+00 0.  1.
         21   -1    0    0  502  503 -0.00000000000E+00 -0.00000000000E+00 -0.68834297865E+03  0.68834297865E+03  0.00000000000E+00 0.  1.
         -6    2    1    2    0  503 -0.80820089220E+02 -0.75087223364E+02 -0.63404758267E+03  0.66802432248E+03  0.17908149095E+03 0.  0.
        -24    2    3    3    0    0 -0.10044095457E+03 -0.68109979818E+02 -0.29833953512E+03  0.33163817015E+03  0.79057213357E+02 0.  0.
          6    2    1    2  501    0  0.80820089220E+02  0.75087223364E+02  0.24405590315E+03  0.31866995530E+03  0.17267680392E+03 0.  0.
         24    2    5    5    0    0  0.29853488091E+02  0.94962709741E+02  0.22822716551E+03  0.26152742889E+03  0.79998812430E+02 0.  0.
          5    1    5    5  501    0  0.50966601128E+02 -0.19875486377E+02  0.15828737641E+02  0.57142526411E+02  0.47000000000E+01 0. -1.
        -13    1    6    6    0    0  0.40860116332E+02  0.37358337662E+02  0.17039027143E+03  0.17915925624E+03  0.00000000000E+00 0.  1.
         14    1    6    6    0    0 -0.11006628240E+02  0.57604372079E+02  0.57836894084E+02  0.82368172647E+02  0.00000000000E+00 0. -1.
         -5    1    3    3    0  503  0.19620865352E+02 -0.69772435459E+01 -0.33570804755E+03  0.33638615233E+03  0.47000000000E+01 0.  1.
         11    1    4    4    0    0  0.11302904762E+02 -0.40209714033E+01 -0.92569615783E+01  0.15153059254E+02  0.00000000000E+00 0. -1.
        -12    1    4    4    0    0 -0.11174385933E+03 -0.64089008415E+02 -0.28908257354E+03  0.31648511090E+03  0.00000000000E+00 0.  1.
</event>
<event>
12    1  0.8226261E-002  0.2000462E+03  0.7818608E-02  0.1150174E+00
         21   -1    0    0  501  502  0.00000000000E+00  0.00000000000E+00  0.30708414754E+03  0.30708414754E+03  0.00000000000E+00 0.  1.
         21   -1    0    0  502  503 -0.00000000000E+00 -0.00000000000E+00 -0.33043782234E+03  0.33043782234E+03  0.00000000000E+00 0. -1.
         -6    2    1    2    0  503  0.19391856639E+02  0.96028221207E+02 -0.26066398268E+03  0.32857908268E+03  0.17441627888E+03 0.  0.
        -24    2    3    3    0    0  0.58780746827E+02  0.28763465975E+02 -0.78383195352E+02  0.13027525671E+03  0.80902435224E+02 0.  0.
          6    2    1    2  501    0 -0.19391856639E+02 -0.96028221207E+02  0.23731030788E+03  0.30894288719E+03  0.17184895096E+03 0.  0.
         24    2    5    5    0    0  0.47803958331E+02 -0.45984093651E+02  0.92703640253E+02  0.14175176728E+03  0.84260567947E+02 0.  0.
          5    1    5    5  501    0 -0.67195814969E+02 -0.50044127555E+02  0.14460666763E+03  0.16719111990E+03  0.47000000000E+01 0. -1.
        -13    1    6    6    0    0  0.65071548943E+01 -0.65884729019E+00  0.78550499722E+02  0.78822320133E+02  0.00000000000E+00 0.  1.
         14    1    6    6    0    0  0.41296803436E+02 -0.45325246361E+02  0.14153140531E+02  0.62929447150E+02  0.00000000000E+00 0. -1.
         -5    1    3    3    0  503 -0.39388890188E+02  0.67264755231E+02 -0.18228078733E+03  0.19830382597E+03  0.47000000000E+01 0.  1.
         13    1    4    4    0    0 -0.14764406121E+02  0.23453355778E+02 -0.35284373411E+02  0.44866854050E+02  0.00000000000E+00 0. -1.
        -14    1    4    4    0    0  0.73545152948E+02  0.53101101978E+01 -0.43098821942E+02  0.85408402662E+02  0.00000000000E+00 0.  1.
</event>
<event>
12    1  0.8226261E-002  0.1785577E+03  0.7818608E-02  0.1169490E+00
         21   -1    0    0  503  502  0.00000000000E+00  0.00000000000E+00  0.49834416997E+03  0.49834416997E+03  0.00000000000E+00 0.  1.
         21   -1    0    0  501  503 -0.00000000000E+00 -0.00000000000E+00 -0.16325204512E+03  0.16325204512E+03  0.00000000000E+00 0.  1.
          6    2    1    2  501    0  0.44120728512E+02  0.15881514250E+02 -0.91162257685E+02  0.19945376558E+03  0.17109174790E+03 0.  0.
         24    2    3    3    0    0  0.45781133518E+02 -0.11393715892E+01 -0.12933419434E+03  0.15736274223E+03  0.77061588760E+02 0.  0.
         -6    2    1    2    0  502 -0.44120728512E+02 -0.15881514250E+02  0.42625438253E+03  0.46214244950E+03  0.17229040549E+03 0.  0.
        -24    2    5    5    0    0  0.89290416594E+01  0.23075446786E+02  0.10346052138E+03  0.13267334666E+03  0.79283878565E+02 0.  0.
          5    1    3    3  501    0 -0.16604050060E+01  0.17020885840E+02  0.38171936652E+02  0.42091023358E+02  0.47000000000E+01 0. -1.
        -13    1    4    4    0    0  0.80484185492E+01 -0.36832790874E+02 -0.54318545288E+02  0.66120616201E+02  0.00000000000E+00 0.  1.
         14    1    4    4    0    0  0.37732714969E+02  0.35693419285E+02 -0.75015649049E+02  0.91242126024E+02  0.00000000000E+00 0. -1.
         -5    1    5    5    0  502 -0.53049770171E+02 -0.38956961037E+02  0.32279386115E+03  0.32946910284E+03  0.47000000000E+01 0.  1.
         11    1    6    6    0    0  0.10528188893E+02 -0.26781454015E+02  0.59876741990E+02  0.66432772574E+02  0.00000000000E+00 0. -1.
        -12    1    6    6    0    0 -0.15991472332E+01  0.49856900801E+02  0.43583779390E+02  0.66240574086E+02  0.00000000000E+00 0.  1.
</event>
<event>
12    1  0.8226261E-002  0.2110662E+03  0.7818608E-02  0.1140748E+00
         21   -1    0    0  503  502  0.00000000000E+00  0.00000000000E+00  0.13261608777E+03  0.13261608777E+03  0.00000000000E+00 0.  1.
         21   -1    0    0  501  503 -0.00000000000E+00 -0.00000000000E+00 -0.62233817787E+03  0.62233817787E+03  0.00000000000E+00 0.  1.
          6    2    1    2  501    0 -0.88829003975E+02 -0.83713094182E+02 -0.50098779781E+03  0.54358767287E+03  0.17204740760E+03 0.  0.
         24    2    3    3    0    0 -0.87688493023E+02 -0.68902607001E+02 -0.50820130743E+03  0.52641863048E+03  0.80069748244E+02 0.  0.
         -6    2    1    2    0  502  0.88829003975E+02  0.83713094182E+02  0.11265707713E+02  0.21136659276E+03  0.17219304946E+03 0.  0.
        -24    2    5    5    0    0  0.46289625464E+02 -0.85259847275E+01  0.46329841131E+02  0.10380623829E+03  0.80086572455E+02 0.  0.
          5    1    3    3  501    0 -0.11405109519E+01 -0.14810487182E+02  0.72135096165E+01  0.17169042395E+02  0.47000000000E+01 0. -1.
        -13    1    4    4    0    0 -0.64392214683E+02 -0.66200368775E+02 -0.23938807357E+03  0.25658428616E+03  0.00000000000E+00 0.  1.
         14    1    4    4    0    0 -0.23296278340E+02 -0.27022382264E+01 -0.26881323386E+03  0.26983434432E+03  0.00000000000E+00 0. -1.
         -5    1    5    5    0  502  0.42539378511E+02  0.92239078910E+02 -0.35064133418E+02  0.10756035447E+03  0.47000000000E+01 0.  1.
         13    1    6    6    0    0 -0.78324903122E+01  0.42597342856E+01 -0.17200596923E+02  0.19374049013E+02  0.00000000000E+00 0. -1.
        -14    1    6    6    0    0  0.54122115776E+02 -0.12785719013E+02  0.63530438054E+02  0.84432189277E+02  0.00000000000E+00 0.  1.
</event>
<event>
12    1  0.8226261E-002  0.2267251E+03  0.7818608E-02  0.1129217E+00
         21   -1    0    0  501  502  0.00000000000E+00  0.00000000000E+00  0.37504743928E+03  0.37504743928E+03  0.00000000000E+00 0. -1.
         21   -1    0    0  502  503 -0.00000000000E+00 -0.00000000000E+00 -0.22299916526E+03  0.22299916526E+03  0.00000000000E+00 0. -1.
         -6    2    1    2    0  503 -0.56999940224E+02  0.13484033201E+03 -0.11065317309E+03  0.25103608101E+03  0.17130114106E+03 0.  0.
        -24    2    3    3    0    0 -0.48033275765E+01  0.49776598104E+02 -0.11764693655E+03  0.15087956387E+03  0.80143991914E+02 0.  0.
          6    2    1    2  501    0  0.56999940224E+02 -0.13484033201E+03  0.26270144711E+03  0.34701052353E+03  0.17312811672E+03 0.  0.
         24    2    5    5    0    0  0.37785877726E+02 -0.27709708665E+01  0.14052502082E+03  0.16601144758E+03  0.79856548992E+02 0.  0.
          5    1    5    5  501    0  0.19214062498E+02 -0.13206936115E+03  0.12217642629E+03  0.18099907595E+03  0.47000000000E+01 0. -1.
        -13    1    6    6    0    0 -0.32623281176E+01  0.33364739214E+02  0.58568733828E+02  0.67484407012E+02  0.00000000000E+00 0.  1.
         14    1    6    6    0    0  0.41048205844E+02 -0.36135710081E+02  0.81956286989E+02  0.98527040568E+02  0.00000000000E+00 0. -1.
         -5    1    3    3    0  503 -0.52196612648E+02  0.85063733908E+02  0.69937634532E+01  0.10015651714E+03  0.47000000000E+01 0.  1.
         11    1    4    4    0    0  0.33105081690E+01  0.71210112372E+02 -0.93674573817E+02  0.11771476266E+03  0.00000000000E+00 0. -1.
        -12    1    4    4    0    0 -0.81138357456E+01 -0.21433514268E+02 -0.23972362728E+02  0.33164801208E+02  0.00000000000E+00 0.  1.
</event>
<event>
12    1  0.8226261E-002  0.2100411E+03  0.7818608E-02  0.1142211E+00
         21   -1    0    0  503  502  0.00000000000E+00  0.00000000000E+00  0.22381098093E+03  0.22381098093E+03  0.00000000000E+00 0.  1.
         21   -1    0    0  501  503 -0.00000000000E+00 -0.00000000000E+00 -0.20440344797E+03  0.20440344797E+03  0.00000000000E+00 0.  1.
          6    2    1    2  501    0  0.41973730613E+02 -0.11452242765E+03 -0.38794097432E+02  0.21025867698E+03  0.16681291543E+03 0.  0.
         24    2    3    3    0    0  0.23782869974E+02 -0.14240970307E+03 -0.60405480895E+02  0.17028681893E+03  0.67101640428E+02 0.  0.
         -6    2    1    2    0  502 -0.41973730613E+02  0.11452242765E+03  0.58201630393E+02  0.21795575191E+03  0.17099736698E+03 0.  0.
        -24    2    5    5    0    0 -0.47070291993E+02  0.18384997334E+02 -0.79471024259E+01  0.10105354791E+03  0.87149541559E+02 0.  0.
          5    1    3    3  501    0  0.18190860639E+02  0.27887275418E+02  0.21611383463E+02  0.39971858053E+02  0.47000000000E+01 0. -1.
        -11    1    4    4    0    0 -0.76699480725E+01 -0.11746471359E+03 -0.54470119463E+02  0.12970651856E+03  0.00000000000E+00 0.  1.
         12    1    4    4    0    0  0.31452818046E+02 -0.24944989475E+02 -0.59353614320E+01  0.40580300372E+02  0.00000000000E+00 0. -1.
         -5    1    5    5    0  502  0.50965613796E+01  0.96137430314E+02  0.66148732819E+02  0.11690220399E+03  0.47000000000E+01 0.  1.
         11    1    6    6    0    0 -0.41458087941E+02 -0.11287217128E+02  0.30112821689E+02  0.52468622588E+02  0.00000000000E+00 0. -1.
        -12    1    6    6    0    0 -0.56122040516E+01  0.29672214461E+02 -0.38059924115E+02  0.48584925326E+02  0.00000000000E+00 0.  1.
</event>
<event>
12    1  0.8226261E-002  0.2297011E+03  0.7818608E-02  0.1126859E+00
         21   -1    0    0  503  502  0.00000000000E+00  0.00000000000E+00  0.11069770222E+04  0.11069770222E+04  0.00000000000E+00 0.  1.
         21   -1    0    0  501  503 -0.00000000000E+00 -0.00000000000E+00 -0.76946072057E+02  0.76946072057E+02  0.00000000000E+00 0. -1.
          6    2    1    2  501    0 -0.13205240611E+03 -0.76295534850E+02  0.14980800281E+03  0.27423532140E+03  0.17176649032E+03 0.  0.
         24    2    3    3    0    0 -0.16470017590E+03 -0.69051550489E+02  0.12231728970E+03  0.23069015532E+03  0.79763173423E+02 0.  0.
         -6    2    1    2    0  502  0.13205240611E+03  0.76295534850E+02  0.88022294732E+03  0.90968777285E+03  0.17169904041E+03 0.  0.
        -24    2    5    5    0    0 -0.68183760068E+01  0.26059081503E+02  0.37433125836E+03  0.38266093640E+03  0.74698964406E+02 0.  0.
          5    1    3    3  501    0  0.32647769788E+02 -0.72439843612E+01  0.27490713114E+02  0.43545166082E+02  0.47000000000E+01 0. -1.
        -11    1    4    4    0    0 -0.17024055401E+02 -0.81295436799E+01  0.53536758887E+02  0.56763478530E+02  0.00000000000E+00 0.  1.
         12    1    4    4    0    0 -0.14767612050E+03 -0.60922006809E+02  0.68780530814E+02  0.17392667679E+03  0.00000000000E+00 0. -1.
         -5    1    5    5    0  502  0.13887078212E+03  0.50236453347E+02  0.50589168896E+03  0.52702683645E+03  0.47000000000E+01 0.  1.
         11    1    6    6    0    0 -0.12194737123E+02 -0.24242270660E+02  0.17049309070E+03  0.17263919971E+03  0.00000000000E+00 0. -1.
        -12    1    6    6    0    0  0.53763611164E+01  0.50301352164E+02  0.20383816767E+03  0.21002173670E+03  0.00000000000E+00 0.  1.
</event>
<event>
12    1  0.8226261E-002  0.1895309E+03  0.7818608E-02  0.1158997E+00
         21   -1    0    0  503  502  0.00000000000E+00  0.00000000000E+00  0.17865678467E+03  0.17865678467E+03  0.00000000000E+00 0. -1.
         21   -1    0    0  501  503 -0.00000000000E+00 -0.00000000000E+00 -0.22098281137E+03  0.22098281137E+03  0.00000000000E+00 0. -1.
          6    2    1    2  501    0  0.28435586733E+02  0.72487147783E+02  0.39582082448E+02  0.19362003413E+03  0.17279759020E+03 0.  0.
         24    2    3    3    0    0  0.42192039170E+02  0.10018099208E+03 -0.93277430361E+01  0.13556445710E+03  0.80463133765E+02 0.  0.
         -6    2    1    2    0  502 -0.28435586733E+02 -0.72487147783E+02 -0.81908109154E+02  0.20601956191E+03  0.17225606624E+03 0.  0.
        -24    2    5    5    0    0 -0.72174136816E+02 -0.36731403215E+02 -0.99852035601E+01  0.11444157120E+03  0.80242550562E+02 0.  0.
          5    1    3    3  501    0 -0.13756452438E+02 -0.27693844295E+02  0.48909825484E+02  0.58055577031E+02  0.47000000000E+01 0. -1.
        -11    1    4    4    0    0  0.52003462770E+02  0.45741140978E+02  0.21139753232E+02  0.72412024449E+02  0.00000000000E+00 0.  1.
         12    1    4    4    0    0 -0.98114235995E+01  0.54439851100E+02 -0.30467496268E+02  0.63152432651E+02  0.00000000000E+00 0. -1.
         -5    1    5    5    0  502  0.43738550084E+02 -0.35755744568E+02 -0.71922905594E+02  0.91577990708E+02  0.47000000000E+01 0.  1.
         13    1    6    6    0    0 -0.91175172125E+01  0.94753962122E+01 -0.30845985917E+02  0.33531881854E+02  0.00000000000E+00 0. -1.
        -14    1    6    6    0    0 -0.63056619604E+02 -0.46206799427E+02  0.20860782356E+02  0.80909689344E+02  0.00000000000E+00 0.  1.
</event>
<event>
12    1  0.8226261E-002  0.2913561E+03  0.7818608E-02  0.1089672E+00
         21   -1    0    0  503  502  0.00000000000E+00  0.00000000000E+00  0.96051402666E+02  0.96051402666E+02  0.00000000000E+00 0.  1.
         21   -1    0    0  501  503 -0.00000000000E+00 -0.00000000000E+00 -0.89342989764E+03  0.89342989764E+03  0.00000000000E+00 0.  1.
          6    2    1    2  501    0 -0.10237152033E+03 -0.21277988854E+03 -0.34565140047E+03  0.45206555269E+03  0.17068439923E+03 0.  0.
         24    2    3    3    0    0 -0.12914406051E+03 -0.13257349768E+03 -0.28414241577E+03  0.34739808286E+03  0.75462539587E+02 0.  0.
         -6    2    1    2    0  502  0.10237152033E+03  0.21277988854E+03 -0.45172709451E+03  0.53741574762E+03  0.17030299098E+03 0.  0.
        -24    2    5    5    0    0  0.13799027071E+03  0.19110373688E+03 -0.37348738730E+03  0.44863459696E+03  0.78855691342E+02 0.  0.
          5    1    3    3  501    0  0.26772540177E+02 -0.80206390861E+02 -0.61508984702E+02  0.10466746983E+03  0.47000000000E+01 0. -1.
        -11    1    4    4    0    0 -0.48294148705E+02 -0.49322866661E+01 -0.76464995373E+02  0.90573438536E+02  0.00000000000E+00 0.  1.
         12    1    4    4    0    0 -0.80849911807E+02 -0.12764121101E+03 -0.20767742040E+03  0.25682464432E+03  0.00000000000E+00 0. -1.
         -5    1    5    5    0  502 -0.35618750373E+02  0.21676151659E+02 -0.78239707210E+02  0.88781150664E+02  0.47000000000E+01 0.  1.
         11    1    6    6    0    0  0.48379338836E+02  0.18442378527E+02 -0.55806103000E+02  0.76124916315E+02  0.00000000000E+00 0. -1.
        -12    1    6    6    0    0  0.89610931872E+02  0.17266135835E+03 -0.31768128430E+03  0.37250968064E+03  0.00000000000E+00 0.  1.
</event>
<event>
12    1  0.8226261E-002  0.2181312E+03  0.7818608E-02  0.1135595E+00
         21   -1    0    0  501  502  0.00000000000E+00  0.00000000000E+00  0.52916114717E+03  0.52916114717E+03  0.00000000000E+00 0. -1.
         21   -1    0    0  502  503 -0.00000000000E+00 -0.00000000000E+00 -0.30500166254E+03  0.30500166254E+03  0.00000000000E+00 0. -1.
         -6    2    1    2    0  503  0.12697741140E+03  0.26658569571E+02 -0.23883989880E+03  0.32235262438E+03  0.17329966776E+03 0.  0.
        -24    2    3    3    0    0  0.94231969021E+02 -0.51220285828E+02 -0.14833206050E+03  0.19845291127E+03  0.76667960396E+02 0.  0.
          6    2    1    2  501    0 -0.12697741140E+03 -0.26658569571E+02  0.46299938343E+03  0.51181018533E+03  0.17534906447E+03 0.  0.
         24    2    5    5    0    0  0.52110445752E+01 -0.24866924274E+02  0.15233058596E+03  0.17415031266E+03  0.80487297590E+02 0.  0.
          5    1    5    5  501    0 -0.13218845598E+03 -0.17916452971E+01  0.31066879747E+03  0.33765987267E+03  0.47000000000E+01 0. -1.
        -11    1    6    6    0    0 -0.18101606256E+02 -0.43908377759E+02  0.57068357968E+02  0.74245614467E+02  0.00000000000E+00 0.  1.
         12    1    6    6    0    0  0.23312650832E+02  0.19041453485E+02  0.95262227992E+02  0.99904698196E+02  0.00000000000E+00 0. -1.
         -5    1    3    3    0  503  0.32745442382E+02  0.77878855400E+02 -0.90507838296E+02  0.12389971311E+03  0.47000000000E+01 0.  1.
         13    1    4    4    0    0  0.71412585179E+02 -0.39311505992E+02 -0.47413967014E+02  0.94303955873E+02  0.00000000000E+00 0. -1.
        -14    1    4    4    0    0  0.22819383843E+02 -0.11908779836E+02 -0.10091809349E+03  0.10414895540E+03  0.00000000000E+00 0.  1.
</event>
<event>
12    1  0.8226261E-002  0.2085643E+03  0.7818608E-02  0.1142748E+00
         21   -1    0    0  501  502  0.00000000000E+00  0.00000000000E+00  0.10354933645E+03  0.10354933645E+03  0.00000000000E+00 0. -1.
         21   -1    0    0  502  503 -0.00000000000E+00 -0.00000000000E+00 -0.12241330436E+04  0.12241330436E+04  0.00000000000E+00 0. -1.
         -6    2    1    2    0  503 -0.28671685268E+02  0.11442650468E+03 -0.10983466099E+04  0.11179359868E+04  0.17175594442E+03 0.  0.
        -24    2    3    3    0    0 -0.62000100172E+02  0.12234875498E+03 -0.10186675249E+04  0.10310775278E+04  0.81388647434E+02 0.  0.
          6    2    1    2  501    0  0.28671685268E+02 -0.11442650468E+03 -0.22237097228E+02  0.20974639329E+03  0.17199875144E+03 0.  0.
         24    2    5    5    0    0 -0.49046732652E+02 -0.41855482307E+02 -0.11813374317E+02  0.10280037994E+03  0.79189007572E+02 0.  0.
          5    1    5    5  501    0  0.77718417920E+02 -0.72571022372E+02 -0.10423722910E+02  0.10694601335E+03  0.47000000000E+01 0. -1.
        -13    1    6    6    0    0 -0.46110764701E+02 -0.60941348493E+02 -0.23838350807E+02  0.80051967788E+02  0.00000000000E+00 0.  1.
         14    1    6    6    0    0 -0.29359679510E+01  0.19085866187E+02  0.12024976490E+02  0.22748412153E+02  0.00000000000E+00 0. -1.
         -5    1    3    3    0  503  0.33328414903E+02 -0.79222503060E+01 -0.79679085082E+02  0.86858458940E+02  0.47000000000E+01 0.  1.
         13    1    4    4    0    0 -0.68067970132E+02  0.53145235877E+02 -0.45277578189E+03  0.46093771089E+03  0.00000000000E+00 0. -1.
        -14    1    4    4    0    0  0.60678699606E+01  0.69203519107E+02 -0.56589174298E+03  0.57013981695E+03  0.00000000000E+00 0.  1.
</event>
<event>
12    1  0.8226261E-002  0.2113689E+03  0.7818608E-02  0.1140748E+00
         21   -1    0    0  503  502  0.00000000000E+00  0.00000000000E+00  0.31914259874E+02  0.31914259874E+02  0.00000000000E+00 0. -1.
         21   -1    0    0  501  503 -0.00000000000E+00 -0.00000000000E+00 -0.20401522440E+04  0.20401522440E+04  0.00000000000E+00 0.  1.
          6    2    1    2  501    0  0.88691120168E+01 -0.12338123138E+03 -0.15863088444E+04  0.16001544452E+04  0.16975543913E+03 0.  0.
         24    2    3    3    0    0  0.38073073997E+01 -0.40495186550E+01 -0.41207201988E+03  0.41984944661E+03  0.80245336681E+02 0.  0.
         -6    2    1    2    0  502 -0.88691120168E+01  0.12338123138E+03 -0.42192913977E+03  0.47191205877E+03  0.17139195668E+03 0.  0.
        -24    2    5    5    0    0  0.32842242142E+02  0.10918232764E+03 -0.40183792442E+03  0.42325825247E+03  0.68369856215E+02 0.  0.
          5    1    3    3  501    0  0.50618046171E+01 -0.11933171273E+03 -0.11742368245E+04  0.11803049985E+04  0.47000000000E+01 0. -1.
        -11    1    4    4    0    0 -0.23230655252E+02 -0.22268326547E+02 -0.32959428390E+03  0.33116149186E+03  0.00000000000E+00 0.  1.
         12    1    4    4    0    0  0.27037962652E+02  0.18218807892E+02 -0.82477735980E+02  0.88687954750E+02  0.00000000000E+00 0. -1.
         -5    1    5    5    0  502 -0.41711354159E+02  0.14198903743E+02 -0.20091215347E+02  0.48653806299E+02  0.47000000000E+01 0.  1.
         13    1    6    6    0    0 -0.42877493838E+01  0.62493763212E+02 -0.12210008621E+03  0.13723077748E+03  0.00000000000E+00 0. -1.
        -14    1    6    6    0    0  0.37129991526E+02  0.46688564425E+02 -0.27973783822E+03  0.28602747499E+03  0.00000000000E+00 0.  1.
</event>
<event>
12    1  0.8226261E-002  0.2709500E+03  0.7818608E-02  0.1100922E+00
         21   -1    0    0  501  502  0.00000000000E+00  0.00000000000E+00  0.13467717400E+04  0.13467717400E+04  0.00000000000E+00 0. -1.
         21   -1    0    0  502  503 -0.00000000000E+00 -0.00000000000E+00 -0.56718964701E+02  0.56718964701E+02  0.00000000000E+00 0. -1.
         -6    2    1    2    0  503 -0.20783395662E+03  0.19030106280E+00  0.49718953909E+03  0.56560885784E+03  0.17181662477E+03 0.  0.
        -24    2    3    3    0    0 -0.15203304739E+03 -0.63861834957E+02  0.37690722714E+03  0.41827813407E+03  0.75532497017E+02 0.  0.
          6    2    1    2  501    0  0.20783395662E+03 -0.19030106280E+00  0.79286323623E+03  0.83788184688E+03  0.17383580825E+03 0.  0.
         24    2    5    5    0    0  0.42678869157E+02 -0.38800754748E+02  0.30436341045E+03  0.32075406786E+03  0.83181139614E+02 0.  0.
          5    1    5    5  501    0  0.16515508746E+03  0.38610453685E+02  0.48849982578E+03  0.51712777902E+03  0.47000000000E+01 0. -1.
        -13    1    6    6    0    0  0.34517431165E+02 -0.39605815471E+02  0.76841004746E+02  0.93083906685E+02  0.00000000000E+00 0.  1.
         14    1    6    6    0    0  0.81614379924E+01  0.80506072377E+00  0.22752240570E+03  0.22767016117E+03  0.00000000000E+00 0. -1.
         -5    1    3    3    0  503 -0.55800909222E+02  0.64052136020E+02  0.12028231195E+03  0.14733072377E+03  0.47000000000E+01 0.  1.
         11    1    4    4    0    0 -0.42717468071E+02 -0.45240908359E+02  0.80065909080E+02  0.10140055061E+03  0.00000000000E+00 0. -1.
        -12    1    4    4    0    0 -0.10931557932E+03 -0.18620926599E+02  0.29684131806E+03  0.31687758346E+03  0.00000000000E+00 0.  1.
</event>
<event>
12    1  0.8226261E-002  0.1790885E+03  0.7818608E-02  0.1168934E+00
         21   -1    0    0  501  502  0.00000000000E+00  0.00000000000E+00  0.90968613665E+03  0.90968613665E+03  0.00000000000E+00 0.  1.
         21   -1    0    0  502  503 -0.00000000000E+00 -0.00000000000E+00 -0.36442039906E+02  0.36442039906E+02  0.00000000000E+00 0.  1.
         -6    2    1    2    0  503  0.85495360150E+01 -0.46185530423E+02  0.34328411226E+03  0.38672646639E+03  0.17177654173E+03 0.  0.
        -24    2    3    3    0    0  0.67783845621E+02 -0.64140069173E+02  0.25755143893E+03  0.28088105944E+03  0.62071149936E+02 0.  0.
          6    2    1    2  501    0 -0.85495360150E+01  0.46185530423E+02  0.52995998448E+03  0.55940171016E+03  0.17281924198E+03 0.  0.
         24    2    5    5    0    0 -0.51957287239E+02  0.22574544187E+02  0.47540474887E+03  0.48564484425E+03  0.81437520554E+02 0.  0.
          5    1    5    5  501    0  0.43407751224E+02  0.23610986235E+02  0.54555235604E+02  0.73756865912E+02  0.47000000000E+01 0. -1.
        -11    1    6    6    0    0 -0.22941542277E+02  0.43578324854E+02  0.38906542358E+03  0.39216997409E+03  0.00000000000E+00 0.  1.
         12    1    6    6    0    0 -0.29015744962E+02 -0.21003780666E+02  0.86339325299E+02  0.93474870158E+02  0.00000000000E+00 0. -1.
         -5    1    3    3    0  503 -0.59234309606E+02  0.17954538751E+02  0.85732673332E+02  0.10584540695E+03  0.47000000000E+01 0.  1.
         11    1    4    4    0    0  0.51713393895E+02 -0.70104269469E+01  0.13438621351E+03  0.14416336420E+03  0.00000000000E+00 0. -1.
        -12    1    4    4    0    0  0.16070451726E+02 -0.57129642226E+02  0.12316522542E+03  0.13671769524E+03  0.00000000000E+00 0.  1.
</event>
<event>
12    1  0.8226261E-002  0.1772909E+03  0.7818608E-02  0.1171125E+00
         21   -1    0    0  501  502  0.00000000000E+00  0.00000000000E+00  0.19940326272E+03  0.19940326272E+03  0.00000000000E+00 0. -1.
         21   -1    0    0  502  503 -0.00000000000E+00 -0.00000000000E+00 -0.15802462739E+03  0.15802462739E+03  0.00000000000E+00 0.  1.
         -6    2    1    2    0  503 -0.42154443894E+02  0.22505692123E+02  0.44291201299E+02  0.18011305889E+03  0.16791515760E+03 0.  0.
        -24    2    3    3    0    0 -0.61892131398E+02 -0.85197383953E+01 -0.22804247191E+02  0.10345770777E+03  0.79247976225E+02 0.  0.
          6    2    1    2  501    0  0.42154443894E+02 -0.22505692123E+02 -0.29125659731E+01  0.17731483122E+03  0.17072950247E+03 0.  0.
         24    2    5    5    0    0  0.28521705135E+02  0.33631613661E+02 -0.49020259071E+02  0.10325230339E+03  0.79457405280E+02 0.  0.
          5    1    5    5  501    0  0.13632738759E+02 -0.56137305784E+02  0.46107693098E+02  0.74062527837E+02  0.47000000000E+01 0. -1.
        -13    1    6    6    0    0 -0.14139723732E+02  0.44027964636E+02 -0.31623176891E+02  0.56021592032E+02  0.00000000000E+00 0.  1.
         14    1    6    6    0    0  0.42661428867E+02 -0.10396350974E+02 -0.17397082180E+02  0.47230711353E+02  0.00000000000E+00 0. -1.
         -5    1    3    3    0  503  0.19737687504E+02  0.31025430518E+02  0.67095448490E+02  0.76655351118E+02  0.47000000000E+01 0.  1.
         11    1    4    4    0    0 -0.59378509671E+02  0.14775357657E+02  0.11157161585E+02  0.62198077617E+02  0.00000000000E+00 0. -1.
        -12    1    4    4    0    0 -0.25136217267E+01 -0.23295096052E+02 -0.33961408776E+02  0.41259630152E+02  0.00000000000E+00 0.  1.
</event>
<event>
12    1  0.8226261E-002  0.2466425E+03  0.7818608E-02  0.1115767E+00
         21   -1    0    0  503  502  0.00000000000E+00  0.00000000000E+00  0.39316545001E+03  0.39316545001E+03  0.00000000000E+00 0.  1.
         21   -1    0    0  501  503 -0.00000000000E+00 -0.00000000000E+00 -0.18021080052E+03  0.18021080052E+03  0.00000000000E+00 0. -1.
          6    2    1    2  501    0 -0.17220330716E+03 -0.39118324296E+02 -0.35761116503E+01  0.24666838731E+03  0.17218676613E+03 0.  0.
         24    2    3    3    0    0 -0.12058697515E+02  0.26129070186E+01 -0.11913662642E+01  0.81091913512E+02  0.80138877048E+02 0.  0.
         -6    2    1    2    0  502  0.17220330716E+03  0.39118324296E+02  0.21653076114E+03  0.32670786323E+03  0.16931696631E+03 0.  0.
        -24    2    5    5    0    0  0.14877619518E+03 -0.19454240392E+02  0.19769257962E+03  0.26070375735E+03  0.79820231370E+02 0.  0.
          5    1    3    3  501    0 -0.16014460964E+03 -0.41731231314E+02 -0.23847453861E+01  0.16557647380E+03  0.47000000000E+01 0. -1.
        -11    1    4    4    0    0 -0.11939320567E+02  0.40310026906E+02 -0.79705505046E+01  0.42789897407E+02  0.00000000000E+00 0.  1.
         12    1    4    4    0    0 -0.11937694817E+00 -0.37697119888E+02  0.67791842404E+01  0.38302016104E+02  0.00000000000E+00 0. -1.
         -5    1    5    5    0  502  0.23427111975E+02  0.58572564688E+02  0.18838181521E+02  0.66004105877E+02  0.47000000000E+01 0.  1.
         13    1    6    6    0    0  0.70550777833E+02  0.30578980415E+02  0.95911312741E+02  0.12292870376E+03  0.00000000000E+00 0. -1.
        -14    1    6    6    0    0  0.78225417348E+02 -0.50033220808E+02  0.10178126688E+03  0.13777505359E+03  0.00000000000E+00 0.  1.
</event>
<event>
12    1  0.8226261E-002  0.2018904E+03  0.7818608E-02  0.1149299E+00
         21   -1    0    0  503  502  0.00000000000E+00  0.00000000000E+00  0.79791727833E+03  0.79791727833E+03  0.00000000000E+00 0.  1.
         21   -1    0    0  501  503 -0.00000000000E+00 -0.00000000000E+00 -0.56996774135E+02  0.56996774135E+02  0.00000000000E+00 0.  1.
          6    2    1    2  501    0 -0.97458571586E+02 -0.36992283496E+02  0.22214356450E+03  0.30017913730E+03  0.17289635337E+03 0.  0.
         24    2    3    3    0    0 -0.91577773670E+02 -0.91534138027E+02  0.17042128247E+03  0.22463655237E+03  0.68214222033E+02 0.  0.
         -6    2    1    2    0  502  0.97458571586E+02  0.36992283496E+02  0.51877693969E+03  0.55473491516E+03  0.16653741540E+03 0.  0.
        -24    2    5    5    0    0  0.29654971466E+02 -0.36955128541E+01  0.11880113321E+03  0.14699043545E+03  0.81236720236E+02 0.  0.
          5    1    3    3  501    0 -0.58807979169E+01  0.54541854531E+02  0.51722282028E+02  0.75542584931E+02  0.47000000000E+01 0. -1.
        -11    1    4    4    0    0 -0.77094495807E+02 -0.39846336869E+02  0.72989306271E+02  0.11339634331E+03  0.00000000000E+00 0.  1.
         12    1    4    4    0    0 -0.14483277863E+02 -0.51687801158E+02  0.97431976204E+02  0.11124020907E+03  0.00000000000E+00 0. -1.
         -5    1    5    5    0  502  0.67803600120E+02  0.40687796350E+02  0.39997580648E+03  0.40774447971E+03  0.47000000000E+01 0.  1.
         13    1    6    6    0    0  0.31453114445E+02 -0.25538401950E+02  0.18888409315E+02  0.44702129579E+02  0.00000000000E+00 0. -1.
        -14    1    6    6    0    0 -0.17981429791E+01  0.21842889096E+02  0.99912723896E+02  0.10228830587E+03  0.00000000000E+00 0.  1.
</event>
<event>
12    1  0.8226261E-002  0.1784079E+03  0.7818608E-02  0.1169765E+00
         21   -1    0    0  501  502  0.00000000000E+00  0.00000000000E+00  0.10226550488E+04  0.10226550488E+04  0.00000000000E+00 0.  1.
         21   -1    0    0  502  503 -0.00000000000E+00 -0.00000000000E+00 -0.47673072608E+02  0.47673072608E+02  0.00000000000E+00 0.  1.
         -6    2    1    2    0  503  0.38929741488E+02  0.13109260391E+01  0.17090793373E+03  0.24706055420E+03  0.17410385502E+03 0.  0.
        -24    2    3    3    0    0  0.12062819110E+02  0.53992210767E+02  0.15964067239E+03  0.18667686057E+03  0.79387880450E+02 0.  0.
          6    2    1    2  501    0 -0.38929741488E+02 -0.13109260391E+01  0.80407404244E+03  0.82326756718E+03  0.17238671106E+03 0.  0.
         24    2    5    5    0    0 -0.51662103391E+02  0.48151992059E+02  0.68975614606E+03  0.69797046131E+03  0.80072695557E+02 0.  0.
          5    1    5    5  501    0  0.12732361903E+02 -0.49462918098E+02  0.11431789638E+03  0.12529710587E+03  0.47000000000E+01 0. -1.
        -13    1    6    6    0    0  0.10730260914E+02  0.42679338115E+02  0.30159045180E+03  0.30478429260E+03  0.00000000000E+00 0.  1.
         14    1    6    6    0    0 -0.62392364305E+02  0.54726539439E+01  0.38816569426E+03  0.39318616871E+03  0.00000000000E+00 0. -1.
         -5    1    3    3    0  503  0.26866922378E+02 -0.52681284728E+02  0.11267261339E+02  0.60383693633E+02  0.47000000000E+01 0.  1.
         11    1    4    4    0    0 -0.24531317581E+02 -0.34256653055E+01  0.22054887619E+02  0.33165325159E+02  0.00000000000E+00 0. -1.
        -12    1    4    4    0    0  0.36594136690E+02  0.57417876072E+02  0.13758578477E+03  0.15351153541E+03  0.00000000000E+00 0.  1.
</event>
<event>
12    1  0.8226261E-002  0.2316292E+03  0.7818608E-02  0.1127798E+00
         21   -1    0    0  501  502  0.00000000000E+00  0.00000000000E+00  0.15356111340E+04  0.15356111340E+04  0.00000000000E+00 0.  1.
         21   -1    0    0  502  503 -0.00000000000E+00 -0.00000000000E+00 -0.13440193437E+03  0.13440193437E+03  0.00000000000E+00 0.  1.
         -6    2    1    2    0  503  0.65782598969E+02 -0.11857135019E+03 -0.29378124898E+02  0.22079528042E+03  0.17175845312E+03 0.  0.
        -24    2    3    3    0    0 -0.12849670978E+02 -0.64224064446E+01 -0.60304716784E+01  0.81771460981E+02  0.80273556627E+02 0.  0.
          6    2    1    2  501    0 -0.65782598969E+02  0.11857135019E+03  0.14305873245E+04  0.14492177879E+04  0.18779134271E+03 0.  0.
         24    2    5    5    0    0 -0.14650986700E+02 -0.11058476076E+02  0.75265520673E+03  0.75709613681E+03  0.79798238416E+02 0.  0.
          5    1    5    5  501    0 -0.51131612268E+02  0.12962982626E+03  0.67793211780E+03  0.69212165113E+03  0.47000000000E+01 0. -1.
        -13    1    6    6    0    0 -0.27225668837E+02  0.27716585659E+02  0.27934036401E+03  0.28202922744E+03  0.00000000000E+00 0.  1.
         14    1    6    6    0    0  0.12574682137E+02 -0.38775061734E+02  0.47331484272E+03  0.47506690937E+03  0.00000000000E+00 0. -1.
         -5    1    3    3    0  503  0.78632269947E+02 -0.11214894374E+03 -0.23347653220E+02  0.13902381943E+03  0.47000000000E+01 0.  1.
         11    1    4    4    0    0 -0.12535924266E+01  0.19970254056E+02 -0.35371075072E+02  0.40638596097E+02  0.00000000000E+00 0. -1.
        -12    1    4    4    0    0 -0.11596078551E+02 -0.26392660500E+02  0.29340603394E+02  0.41132864884E+02  0.00000000000E+00 0.  1.
</event>
<event>
12    1  0.8226261E-002  0.2270928E+03  0.7818608E-02  0.1128748E+00
         21   -1    0    0  501  502  0.00000000000E+00  0.00000000000E+00  0.67199350279E+02  0.67199350279E+02  0.00000000000E+00 0. -1.
         21   -1    0    0  502  503 -0.00000000000E+00 -0.00000000000E+00 -0.84805429279E+03  0.84805429279E+03  0.00000000000E+00 0. -1.
         -6    2    1    2    0  503  0.14549308665E+03 -0.28726843642E+02 -0.53206653058E+03  0.57840528789E+03  0.17165201508E+03 0.  0.
        -24    2    3    3    0    0  0.82977211689E+02 -0.14336645145E+01 -0.47632075985E+03  0.49018492061E+03  0.80700167737E+02 0.  0.
          6    2    1    2  501    0 -0.14549308665E+03  0.28726843642E+02 -0.24878841192E+03  0.33684835518E+03  0.17198159980E+03 0.  0.
         24    2    5    5    0    0 -0.13355102172E+03  0.38764903082E+02 -0.26740880606E+03  0.31210599009E+03  0.81019049477E+02 0.  0.
          5    1    5    5  501    0 -0.11942064923E+02 -0.10038059441E+02  0.18620394141E+02  0.24742365083E+02  0.47000000000E+01 0. -1.
        -13    1    6    6    0    0 -0.27614237269E+02 -0.20383417379E+02 -0.97179975882E+02  0.10306297840E+03  0.00000000000E+00 0.  1.
         14    1    6    6    0    0 -0.10593678445E+03  0.59148320461E+02 -0.17022883018E+03  0.20904301170E+03  0.00000000000E+00 0. -1.
         -5    1    3    3    0  503  0.62515874956E+02 -0.27293179127E+02 -0.55745770734E+02  0.88220367281E+02  0.47000000000E+01 0.  1.
         13    1    4    4    0    0  0.86113946119E+02  0.16216005105E+02 -0.28859275086E+03  0.30160296150E+03  0.00000000000E+00 0. -1.
        -14    1    4    4    0    0 -0.31367344298E+01 -0.17649669620E+02 -0.18772800899E+03  0.18858195911E+03  0.00000000000E+00 0.  1.
</event>
<event>
12    1  0.8226261E-002  0.3349188E+03  0.7818608E-02  0.1068989E+00
         21   -1    0    0  503  502  0.00000000000E+00  0.00000000000E+00  0.36992583925E+03  0.36992583925E+03  0.00000000000E+00 0.  1.
         21   -1    0    0  501  503 -0.00000000000E+00 -0.00000000000E+00 -0.41405572761E+03  0.41405572761E+03  0.00000000000E+00 0. -1.
          6    2    1    2  501    0 -0.21900108470E+03 -0.18575203619E+03 -0.22492944894E+03  0.40343999508E+03  0.17235219343E+03 0.  0.
         24    2    3    3    0    0 -0.19455698991E+03 -0.10215112111E+03 -0.21203707415E+03  0.31526443100E+03  0.78387924909E+02 0.  0.
         -6    2    1    2    0  502  0.21900108470E+03  0.18575203619E+03  0.18079956059E+03  0.38054157178E+03  0.17221530913E+03 0.  0.
        -24    2    5    5    0    0  0.22007230539E+03  0.17379566744E+03  0.12837643630E+03  0.32655660881E+03  0.10734037328E+03 0.  0.
          5    1    3    3  501    0 -0.24444094785E+02 -0.83600915083E+02 -0.12892374790E+02  0.88175564077E+02  0.47000000000E+01 0. -1.
        -13    1    4    4    0    0 -0.27054508377E+02 -0.22775379935E+02 -0.24183124582E+01  0.35447321335E+02  0.00000000000E+00 0.  1.
         14    1    4    4    0    0 -0.16750248154E+03 -0.79375741171E+02 -0.20961876169E+03  0.27981710966E+03  0.00000000000E+00 0. -1.
         -5    1    5    5    0  502 -0.10712206946E+01  0.11956368749E+02  0.52423124288E+02  0.53984962977E+02  0.47000000000E+01 0.  1.
         11    1    6    6    0    0  0.79641567128E+02  0.12607112144E+03  0.42009316639E+02  0.15492414131E+03  0.00000000000E+00 0. -1.
        -12    1    6    6    0    0  0.14043073827E+03  0.47724545997E+02  0.86367119660E+02  0.17163246750E+03  0.00000000000E+00 0.  1.
</event>
<event>
12    1  0.8226261E-002  0.2540083E+03  0.7818608E-02  0.1110845E+00
         21   -1    0    0  501  502  0.00000000000E+00  0.00000000000E+00  0.26097035106E+03  0.26097035106E+03  0.00000000000E+00 0.  1.
         21   -1    0    0  502  503 -0.00000000000E+00 -0.00000000000E+00 -0.33790364833E+03  0.33790364833E+03  0.00000000000E+00 0. -1.
         -6    2    1    2    0  503  0.11757966450E+03  0.14543609666E+03 -0.19381702765E+03  0.31926351873E+03  0.17142788126E+03 0.  0.
        -24    2    3    3    0    0  0.47639822566E+02  0.15628746175E+03 -0.15342798057E+03  0.23763816276E+03  0.78971056635E+02 0.  0.
          6    2    1    2  501    0 -0.11757966450E+03 -0.14543609666E+03  0.11688373037E+03  0.27961048066E+03  0.17188245621E+03 0.  0.
         24    2    5    5    0    0 -0.11334455834E+03 -0.13954061040E+03  0.38637417458E+02  0.20088774972E+03  0.80897880704E+02 0.  0.
          5    1    5    5  501    0 -0.42351061554E+01 -0.58954862578E+01  0.78246312910E+02  0.78722730939E+02  0.47000000000E+01 0. -1.
        -11    1    6    6    0    0 -0.92851030132E+02 -0.71094870352E+02  0.52366198392E+02  0.12813279487E+03  0.00000000000E+00 0.  1.
         12    1    6    6    0    0 -0.20493528212E+02 -0.68445740048E+02 -0.13728780934E+02  0.72754954851E+02  0.00000000000E+00 0. -1.
         -5    1    3    3    0  503  0.69939841933E+02 -0.10851365088E+02 -0.40389047071E+02  0.81625355970E+02  0.47000000000E+01 0.  1.
         11    1    4    4    0    0  0.63972548448E+02  0.82861214497E+02 -0.73684048724E+02  0.12801486968E+03  0.00000000000E+00 0. -1.
        -12    1    4    4    0    0 -0.16332725882E+02  0.73426247249E+02 -0.79743931850E+02  0.10962329308E+03  0.00000000000E+00 0.  1.
</event>
<event>
12    1  0.8226261E-002  0.1798429E+03  0.7818608E-02  0.1168106E+00
         21   -1    0    0  503  502  0.00000000000E+00  0.00000000000E+00  0.10449535289E+03  0.10449535289E+03  0.00000000000E+00 0. -1.
         21   -1    0    0  501  503 -0.00000000000E+00 -0.00000000000E+00 -0.42388937065E+03  0.42388937065E+03  0.00000000000E+00 0. -1.
          6    2    1    2  501    0 -0.85190364626E+01  0.50850083800E+02 -0.29736494811E+03  0.34719769985E+03  0.17164505648E+03 0.  0.
         24    2    3    3    0    0  0.13772659424E+02 -0.32993492500E+02 -0.19839182054E+03  0.21549942737E+03  0.76173696552E+02 0.  0.
         -6    2    1    2    0  502  0.85190364626E+01 -0.50850083800E+02 -0.22029069652E+02  0.18118702369E+03  0.17229379745E+03 0.  0.
        -24    2    5    5    0    0  0.43352273741E+02 -0.22373442250E+02  0.42245845232E+02  0.10258913430E+03  0.79748532779E+02 0.  0.
          5    1    3    3  501    0 -0.22291695886E+02  0.83843576300E+02 -0.98973127566E+02  0.13169827247E+03  0.47000000000E+01 0. -1.
        -11    1    4    4    0    0  0.17284237555E+02 -0.19625331841E+02 -0.12308061873E+02  0.28903060474E+02  0.00000000000E+00 0.  1.
         12    1    4    4    0    0 -0.35115781310E+01 -0.13368160659E+02 -0.18608375867E+03  0.18659636690E+03  0.00000000000E+00 0. -1.
         -5    1    5    5    0  502 -0.34833237279E+02 -0.28476641550E+02 -0.64274914884E+02  0.78597889391E+02  0.47000000000E+01 0.  1.
         13    1    6    6    0    0  0.35464112105E+02 -0.28498362015E+02 -0.12306019481E+02  0.47130648207E+02  0.00000000000E+00 0. -1.
        -14    1    6    6    0    0  0.78881616364E+01  0.61249197654E+01  0.54551864713E+02  0.55458486093E+02  0.00000000000E+00 0.  1.
</event>
<event>
12    1  0.8226261E-002  0.1883660E+03  0.7818608E-02  0.1159983E+00
         21   -1    0    0  501  502  0.00000000000E+00  0.00000000000E+00  0.18510257041E+02  0.18510257041E+02  0.00000000000E+00 0. -1.
         21   -1    0    0  502  503 -0.00000000000E+00 -0.00000000000E+00 -0.25255316268E+04  0.25255316268E+04  0.00000000000E+00 0. -1.
         -6    2    1    2    0  503 -0.22338885128E+02 -0.73726480403E+02 -0.18784404372E+04  0.18878439499E+04  0.17170231061E+03 0.  0.
        -24    2    3    3    0    0 -0.24367631456E+02 -0.95016093931E+02 -0.10529698489E+04  0.10620830005E+04  0.98249466586E+02 0.  0.
          6    2    1    2  501    0  0.22338885128E+02  0.73726480403E+02 -0.62858093255E+03  0.65619793390E+03  0.17189275724E+03 0.  0.
         24    2    5    5    0    0 -0.10707021206E+01  0.74339721949E+01 -0.18859459431E+03  0.21060532483E+03  0.93435921892E+02 0.  0.
          5    1    5    5  501    0  0.23409587248E+02  0.66292508208E+02 -0.43998633824E+03  0.44559260907E+03  0.47000000000E+01 0. -1.
        -13    1    6    6    0    0 -0.24189262407E+02 -0.35053259449E+02 -0.11405342171E+03  0.12174577782E+03  0.00000000000E+00 0.  1.
         14    1    6    6    0    0  0.23118560286E+02  0.42487231644E+02 -0.74541172594E+02  0.88859547007E+02  0.00000000000E+00 0. -1.
         -5    1    3    3    0  503  0.20287463280E+01  0.21289613528E+02 -0.82547058832E+03  0.82576094945E+03  0.47000000000E+01 0.  1.
         13    1    4    4    0    0 -0.23632493866E+02 -0.38670944590E+01 -0.57504161720E+03  0.57554001659E+03  0.00000000000E+00 0. -1.
        -14    1    4    4    0    0 -0.73513758944E+00 -0.91148999472E+02 -0.47792823166E+03  0.48654298386E+03  0.00000000000E+00 0.  1.
</event>
<event>
12    1  0.8226261E-002  0.1838785E+03  0.7818608E-02  0.1164300E+00
         21   -1    0    0  501  502  0.00000000000E+00  0.00000000000E+00  0.17527491586E+04  0.17527491586E+04  0.00000000000E+00 0. -1.
         21   -1    0    0  502  503 -0.00000000000E+00 -0.00000000000E+00 -0.80068205492E+02  0.80068205492E+02  0.00000000000E+00 0. -1.
         -6    2    1    2    0  503 -0.19848838102E+02  0.62171918394E+02  0.36881344875E+02  0.18671540226E+03  0.17100609355E+03 0.  0.
        -24    2    3    3    0    0 -0.23770143555E+02  0.79129707865E+02  0.79929034655E+02  0.14004488849E+03  0.79983684706E+02 0.  0.
          6    2    1    2  501    0  0.19848838102E+02 -0.62171918394E+02  0.16357996083E+04  0.16461019619E+04  0.17190691275E+03 0.  0.
         24    2    5    5    0    0 -0.25382770981E+02 -0.13629032380E+02  0.41720228949E+03  0.42569062728E+03  0.79528134760E+02 0.  0.
          5    1    5    5  501    0  0.45231609083E+02 -0.48542886014E+02  0.12185973188E+04  0.12204113346E+04  0.47000000000E+01 0. -1.
        -11    1    6    6    0    0 -0.13751238224E+02 -0.46806056487E+02  0.26783757651E+03  0.27224413835E+03  0.00000000000E+00 0.  1.
         12    1    6    6    0    0 -0.11631532757E+02  0.33177024107E+02  0.14936471297E+03  0.15344648893E+03  0.00000000000E+00 0. -1.
         -5    1    3    3    0  503  0.39213054528E+01 -0.16957789471E+02 -0.43047689780E+02  0.46670513771E+02  0.47000000000E+01 0.  1.
         11    1    4    4    0    0 -0.34654955503E+02  0.48542547873E+02  0.67961407917E+01  0.60029429654E+02  0.00000000000E+00 0. -1.
        -12    1    4    4    0    0  0.10884811948E+02  0.30587159992E+02  0.73132893863E+02  0.80015458833E+02  0.00000000000E+00 0.  1.
</event>
<event>
12    1  0.8226261E-002  0.1882798E+03  0.7818608E-02  0.1161213E+00
         21   -1    0    0  503  502  0.00000000000E+00  0.00000000000E+00  0.10193274542E+03  0.10193274542E+03  0.00000000000E+00 0. -1.
         21   -1    0    0  501  503 -0.00000000000E+00 -0.00000000000E+00 -0.37410387609E+03  0.37410387609E+03  0.00000000000E+00 0.  1.
          6    2    1    2  501    0 -0.25438962081E+01  0.64213699269E+02 -0.20796942518E+03  0.27711160835E+03  0.17149253946E+03 0.  0.
         24    2    3    3    0    0 -0.38337156784E+02  0.98158471036E+02 -0.15182040202E+03  0.20222363979E+03  0.82098373880E+02 0.  0.
         -6    2    1    2    0  502  0.25438962081E+01 -0.64213699269E+02 -0.64201705486E+02  0.19892501317E+03  0.17697296770E+03 0.  0.
        -24    2    5    5    0    0 -0.11571256601E+02 -0.63222059239E+02  0.47493173603E+01  0.12838031500E+03  0.11103164643E+03 0.  0.
          5    1    3    3  501    0  0.35793260576E+02 -0.33944771767E+02 -0.56149023164E+02  0.74887968561E+02  0.47000000000E+01 0. -1.
        -11    1    4    4    0    0 -0.27122263955E+02  0.94037599658E+02 -0.16012957200E+03  0.18767036841E+03  0.00000000000E+00 0.  1.
         12    1    4    4    0    0 -0.11214892829E+02  0.41208713782E+01  0.83091699776E+01  0.14553271378E+02  0.00000000000E+00 0. -1.
         -5    1    5    5    0  502  0.14115152809E+02 -0.99164003023E+00 -0.68951022846E+02  0.70544698173E+02  0.47000000000E+01 0.  1.
         13    1    6    6    0    0 -0.59313174996E+02 -0.24061611875E+02  0.15114559220E+02  0.65768258260E+02  0.00000000000E+00 0. -1.
        -14    1    6    6    0    0  0.47741918396E+02 -0.39160447364E+02 -0.10365241859E+02  0.62612056735E+02  0.00000000000E+00 0.  1.
</event>
<event>
12    1  0.8226261E-002  0.1883414E+03  0.7818608E-02  0.1160419E+00
         21   -1    0    0  503  502  0.00000000000E+00  0.00000000000E+00  0.10712327794E+04  0.10712327794E+04  0.00000000000E+00 0.  1.
         21   -1    0    0  501  503 -0.00000000000E+00 -0.00000000000E+00 -0.35793140972E+02  0.35793140972E+02  0.00000000000E+00 0.  1.
          6    2    1    2  501    0 -0.54531726765E+02  0.47311124312E+02  0.35429622450E+03  0.40032313941E+03  0.17181603401E+03 0.  0.
         24    2    3    3    0    0 -0.67028378842E+02  0.83220247716E+02  0.32885909507E+03  0.35433652168E+03  0.77379926224E+02 0.  0.
         -6    2    1    2    0  502  0.54531726765E+02 -0.47311124312E+02  0.68114341391E+03  0.70670278094E+03  0.17395522003E+03 0.  0.
        -24    2    5    5    0    0  0.20558280368E+02 -0.72122444242E+02  0.23924425498E+03  0.26278076829E+03  0.78686903534E+02 0.  0.
          5    1    3    3  501    0  0.12496652077E+02 -0.35909123405E+02  0.25437129427E+02  0.45986617731E+02  0.47000000000E+01 0. -1.
        -11    1    4    4    0    0 -0.63638653519E+02  0.25998781829E+02  0.23007701187E+03  0.24012756249E+03  0.00000000000E+00 0.  1.
         12    1    4    4    0    0 -0.33897253228E+01  0.57221465887E+02  0.98782083206E+02  0.11420895919E+03  0.00000000000E+00 0. -1.
         -5    1    5    5    0  502  0.33973446397E+02  0.24811319930E+02  0.44189915893E+03  0.44392201265E+03  0.47000000000E+01 0.  1.
         11    1    6    6    0    0  0.38234767160E+02 -0.79313826082E+01  0.60176658930E+02  0.71735866412E+02  0.00000000000E+00 0. -1.
        -12    1    6    6    0    0 -0.17676486792E+02 -0.64191061633E+02  0.17906759605E+03  0.19104490188E+03  0.00000000000E+00 0.  1.
</event>
<event>
12    1  0.8226261E-002  0.2399309E+03  0.7818608E-02  0.1121156E+00
         21   -1    0    0  501  502  0.00000000000E+00  0.00000000000E+00  0.35627350375E+02  0.35627350375E+02  0.00000000000E+00 0.  1.
         21   -1    0    0  502  503 -0.00000000000E+00 -0.00000000000E+00 -0.20756449183E+04  0.20756449183E+04  0.00000000000E+00 0.  1.
         -6    2    1    2    0  503 -0.10201234113E+03 -0.13351730131E+03 -0.15567516579E+04  0.15751325590E+04  0.17127015660E+03 0.  0.
        -24    2    3    3    0    0 -0.57682446111E+02 -0.14453500510E+03 -0.14185125179E+04  0.14294662306E+04  0.83536272458E+02 0.  0.
          6    2    1    2  501    0  0.10201234113E+03  0.13351730131E+03 -0.48326590997E+03  0.53613970963E+03  0.16020755603E+03 0.  0.
         24    2    5    5    0    0  0.90927840404E+02  0.93199692609E+02 -0.20389184978E+03  0.25361478819E+03  0.76121741420E+02 0.  0.
          5    1    5    5  501    0  0.11084500722E+02  0.40317608696E+02 -0.27937406019E+03  0.28252492144E+03  0.47000000000E+01 0. -1.
        -11    1    6    6    0    0  0.51279008538E+01  0.50772150204E+02 -0.10053467580E+03  0.11274452378E+03  0.00000000000E+00 0.  1.
         12    1    6    6    0    0  0.85799939550E+02  0.42427542406E+02 -0.10335717398E+03  0.14087026441E+03  0.00000000000E+00 0. -1.
         -5    1    3    3    0  503 -0.44329895015E+02  0.11017703799E+02 -0.13823914008E+03  0.14566632843E+03  0.47000000000E+01 0.  1.
         13    1    4    4    0    0  0.12815682698E+02  0.18681287482E+01 -0.15665236246E+03  0.15718681335E+03  0.00000000000E+00 0. -1.
        -14    1    4    4    0    0 -0.70498128809E+02 -0.14640313385E+03 -0.12618601554E+04  0.12722794173E+04  0.00000000000E+00 0.  1.
</event>
<event>
12    1  0.8226261E-002  0.1828778E+03  0.7818608E-02  0.1165104E+00
         21   -1    0    0  501  502  0.00000000000E+00  0.00000000000E+00  0.13403510913E+03  0.13403510913E+03  0.00000000000E+00 0. -1.
         21   -1    0    0  502  503 -0.00000000000E+00 -0.00000000000E+00 -0.43113930912E+03  0.43113930912E+03  0.00000000000E+00 0. -1.
         -6    2    1    2    0  503  0.87403905055E+01 -0.59622102320E+02 -0.33207392535E+03  0.37898323857E+03  0.17240653614E+03 0.  0.
        -24    2    3    3    0    0  0.69890471048E+02 -0.46481150463E+02 -0.25008433153E+03  0.27575339569E+03  0.80327996759E+02 0.  0.
          6    2    1    2  501    0 -0.87403905055E+01  0.59622102320E+02  0.34969725364E+02  0.18619117969E+03  0.17266465820E+03 0.  0.
         24    2    5    5    0    0  0.33370167323E+02 -0.14937172779E+02 -0.10586247166E+02  0.89083913137E+02  0.80543080106E+02 0.  0.
          5    1    5    5  501    0 -0.42110557828E+02  0.74559275100E+02  0.45555972530E+02  0.97107266552E+02  0.47000000000E+01 0. -1.
        -11    1    6    6    0    0  0.20712725943E+02 -0.16378967579E+02 -0.45117935169E+02  0.52277295921E+02  0.00000000000E+00 0.  1.
         12    1    6    6    0    0  0.12657441380E+02  0.14417947997E+01  0.34531688003E+02  0.36806617216E+02  0.00000000000E+00 0. -1.
         -5    1    3    3    0  503 -0.61150080543E+02 -0.13140951858E+02 -0.81989593824E+02  0.10322984288E+03  0.47000000000E+01 0.  1.
         13    1    4    4    0    0  0.20000452727E+02 -0.95092712325E+01 -0.18302230272E+03  0.18435728258E+03  0.00000000000E+00 0. -1.
        -14    1    4    4    0    0  0.49890018321E+02 -0.36971879230E+02 -0.67062028810E+02  0.91396113101E+02  0.00000000000E+00 0.  1.
</event>
<event>
12    1  0.8226261E-002  0.1786037E+03  0.7818608E-02  0.1169189E+00
         21   -1    0    0  503  502  0.00000000000E+00  0.00000000000E+00  0.27595175518E+02  0.27595175518E+02  0.00000000000E+00 0.  1.
         21   -1    0    0  501  503 -0.00000000000E+00 -0.00000000000E+00 -0.13871716040E+04  0.13871716040E+04  0.00000000000E+00 0.  1.
          6    2    1    2  501    0  0.37574956993E+02  0.23174528971E+02 -0.96885747456E+03  0.98516164485E+03  0.17294428087E+03 0.  0.
         24    2    3    3    0    0  0.18981662239E+02  0.69170038082E+02 -0.39194988957E+03  0.40610573297E+03  0.78436934823E+02 0.  0.
         -6    2    1    2    0  502 -0.37574956993E+02 -0.23174528971E+02 -0.39071895388E+03  0.42960513463E+03  0.17306164968E+03 0.  0.
        -24    2    5    5    0    0 -0.48673802815E+02  0.47956549416E+02 -0.19590604074E+03  0.22186256360E+03  0.78580217716E+02 0.  0.
          5    1    3    3  501    0  0.18593294754E+02 -0.45995509112E+02 -0.57690758498E+03  0.57905591188E+03  0.47000000000E+01 0. -1.
        -13    1    4    4    0    0 -0.27643081657E+02  0.16279250404E+02 -0.17710722453E+03  0.17998923007E+03  0.00000000000E+00 0.  1.
         14    1    4    4    0    0  0.46624743896E+02  0.52890787678E+02 -0.21484266504E+03  0.22611650290E+03  0.00000000000E+00 0. -1.
         -5    1    5    5    0  502  0.11098845822E+02 -0.71131078386E+02 -0.19481291314E+03  0.20774257103E+03  0.47000000000E+01 0.  1.
         11    1    6    6    0    0 -0.15583708100E+02 -0.20976130340E+02 -0.67940854594E+02  0.72792923593E+02  0.00000000000E+00 0. -1.
        -12    1    6    6    0    0 -0.33090094714E+02  0.68932679756E+02 -0.12796518615E+03  0.14906964001E+03  0.00000000000E+00 0.  1.
</event>
<event>
12    1  0.8226261E-002  0.1833319E+03  0.7818608E-02  0.1164627E+00
         21   -1    0    0  503  502  0.00000000000E+00  0.00000000000E+00  0.35721533623E+02  0.35721533623E+02  0.00000000000E+00 0. -1.
         21   -1    0    0  501  503 -0.00000000000E+00 -0.00000000000E+00 -0.10506644731E+04  0.10506644731E+04  0.00000000000E+00 0. -1.
          6    2    1    2  501    0  0.63387443828E+02  0.91648840822E+01 -0.68315569650E+03  0.70731694122E+03  0.17173696905E+03 0.  0.
         24    2    3    3    0    0  0.31973149268E+02 -0.59969931647E+02 -0.33614082009E+03  0.35205943588E+03  0.79602264331E+02 0.  0.
         -6    2    1    2    0  502 -0.63387443828E+02 -0.91648840822E+01 -0.33178724301E+03  0.37906906554E+03  0.17178072851E+03 0.  0.
        -24    2    5    5    0    0 -0.65959080509E+02  0.50926802452E+02 -0.16785006159E+03  0.20438330894E+03  0.81576677355E+02 0.  0.
          5    1    3    3  501    0  0.31414294560E+02  0.69134815729E+02 -0.34701487641E+03  0.35525750533E+03  0.47000000000E+01 0. -1.
        -11    1    4    4    0    0  0.28328605692E+02 -0.65010148883E+02 -0.15109106684E+03  0.16690518218E+03  0.00000000000E+00 0.  1.
         12    1    4    4    0    0  0.36445435760E+01  0.50402172362E+01 -0.18504975325E+03  0.18515425370E+03  0.00000000000E+00 0. -1.
         -5    1    5    5    0  502  0.25716366810E+01 -0.60091686534E+02 -0.16393718142E+03  0.17468575660E+03  0.47000000000E+01 0.  1.
         13    1    6    6    0    0 -0.53763314181E+02  0.79570083903E+01 -0.14363772759E+03  0.15357605517E+03  0.00000000000E+00 0. -1.
        -14    1    6    6    0    0 -0.12195766328E+02  0.42969794061E+02 -0.24212333999E+02  0.50807253771E+02  0.00000000000E+00 0.  1.
</event>
<event>
12    1  0.8226261E-002  0.1743986E+03  0.7818608E-02  0.1173579E+00
         21   -1    0    0  501  502  0.00000000000E+00  0.00000000000E+00  0.18575047483E+03  0.18575047483E+03  0.00000000000E+00 0.  1.
         21   -1    0    0  502  503 -0.00000000000E+00 -0.00000000000E+00 -0.16341129353E+03  0.16341129353E+03  0.00000000000E+00 0.  1.
         -6    2    1    2    0  503  0.92766650598E+01  0.27960207319E+02  0.90353502028E+00  0.17440096271E+03  0.17189255281E+03 0.  0.
        -24    2    3    3    0    0  0.58442204233E+02 -0.20840279651E+02 -0.14639653951E+02  0.10325028812E+03  0.81218803476E+02 0.  0.
          6    2    1    2  501    0 -0.92766650598E+01 -0.27960207319E+02  0.21435646283E+02  0.17476080565E+03  0.17092110037E+03 0.  0.
         24    2    5    5    0    0 -0.28110728177E+01 -0.80020438424E+02  0.38399838775E+02  0.11942595793E+03  0.79855113258E+02 0.  0.
          5    1    5    5  501    0 -0.64655922421E+01  0.52060231105E+02 -0.16964192491E+02  0.55334847724E+02  0.47000000000E+01 0. -1.
        -13    1    6    6    0    0  0.27523572655E+02 -0.47342746971E+02  0.49124573480E+02  0.73567020206E+02  0.00000000000E+00 0.  1.
         14    1    6    6    0    0 -0.30334645472E+02 -0.32677691453E+02 -0.10724734705E+02  0.45858937723E+02  0.00000000000E+00 0. -1.
         -5    1    3    3    0  503 -0.49165539173E+02  0.48800486970E+02  0.15543188971E+02  0.71150674586E+02  0.47000000000E+01 0.  1.
         13    1    4    4    0    0  0.78458230389E+01 -0.16157441450E+02  0.30426176646E+02  0.35332309274E+02  0.00000000000E+00 0. -1.
        -14    1    4    4    0    0  0.50596381194E+02 -0.46828382006E+01 -0.45065830597E+02  0.67917978849E+02  0.00000000000E+00 0.  1.
</event>
<event>
12    1  0.8226261E-002  0.1996079E+03  0.7818608E-02  0.1150711E+00
         21   -1    0    0  503  502  0.00000000000E+00  0.00000000000E+00  0.10744855533E+03  0.10744855533E+03  0.00000000000E+00 0.  1.
         21   -1    0    0  501  503 -0.00000000000E+00 -0.00000000000E+00 -0.46156186778E+03  0.46156186778E+03  0.00000000000E+00 0. -1.
          6    2    1    2  501    0  0.78747520745E+02 -0.58225184224E+02 -0.30595140060E+03  0.36367440309E+03  0.17047424391E+03 0.  0.
         24    2    3    3    0    0  0.39881542308E+02 -0.75669611741E+02 -0.10115355081E+03  0.15443979408E+03  0.79392578971E+02 0.  0.
         -6    2    1    2    0  502 -0.78747520745E+02  0.58225184224E+02 -0.48161911848E+02  0.20533602002E+03  0.17393092670E+03 0.  0.
        -24    2    5    5    0    0 -0.12213213995E+03  0.38118613516E+02 -0.45473046604E+02  0.15721305912E+03  0.79239255945E+02 0.  0.
          5    1    3    3  501    0  0.38865978436E+02  0.17444427517E+02 -0.20479784979E+03  0.20923460901E+03  0.47000000000E+01 0. -1.
        -13    1    4    4    0    0  0.57806959905E+02 -0.51855975338E+02 -0.97138029018E+02  0.12436431752E+03  0.00000000000E+00 0.  1.
         14    1    4    4    0    0 -0.17925417597E+02 -0.23813636403E+02 -0.40155217936E+01  0.30075476556E+02  0.00000000000E+00 0. -1.
         -5    1    5    5    0  502  0.43384619210E+02  0.20106570708E+02 -0.26888652442E+01  0.48122960902E+02  0.47000000000E+01 0.  1.
         13    1    6    6    0    0 -0.87984558902E+02 -0.12993663079E+02 -0.29473617739E+02  0.93695314867E+02  0.00000000000E+00 0. -1.
        -14    1    6    6    0    0 -0.34147581053E+02  0.51112276595E+02 -0.15999428865E+02  0.63517744249E+02  0.00000000000E+00 0.  1.
</event>
<event>
12    1  0.8226261E-002  0.2006984E+03  0.7818608E-02  0.1149253E+00
         21   -1    0    0  503  502  0.00000000000E+00  0.00000000000E+00  0.99485942767E+02  0.99485942767E+02  0.00000000000E+00 0.  1.
         21   -1    0    0  501  503 -0.00000000000E+00 -0.00000000000E+00 -0.55940702891E+03  0.55940702891E+03  0.00000000000E+00 0.  1.
          6    2    1    2  501    0  0.96669940181E+02  0.34708804242E+02 -0.40345636962E+03  0.45040287968E+03  0.17186021474E+03 0.  0.
         24    2    3    3    0    0  0.32432141971E+02  0.79118405457E+02 -0.23291633450E+03  0.26277372155E+03  0.86535795772E+02 0.  0.
         -6    2    1    2    0  502 -0.96669940181E+02 -0.34708804242E+02 -0.56464716523E+02  0.20849009200E+03  0.17242411613E+03 0.  0.
        -24    2    5    5    0    0 -0.73007562906E+02 -0.69537725649E+02 -0.88375111570E+02  0.15544930414E+03  0.78668457986E+02 0.  0.
          5    1    3    3  501    0  0.64237798210E+02 -0.44409601215E+02 -0.17054003513E+03  0.18762915813E+03  0.47000000000E+01 0. -1.
        -11    1    4    4    0    0  0.27702336750E+02 -0.57969267675E+01 -0.10805286215E+03  0.11169800732E+03  0.00000000000E+00 0.  1.
         12    1    4    4    0    0  0.47298052210E+01  0.84915332224E+02 -0.12486347235E+03  0.15107571423E+03  0.00000000000E+00 0. -1.
         -5    1    5    5    0  502 -0.23662377274E+02  0.34828921408E+02  0.31910395047E+02  0.53040787859E+02  0.47000000000E+01 0.  1.
         11    1    6    6    0    0  0.28200691902E+01  0.84900081665E+00 -0.41944394904E+02  0.42047661724E+02  0.00000000000E+00 0. -1.
        -12    1    6    6    0    0 -0.75827632097E+02 -0.70386726466E+02 -0.46430716666E+02  0.11340164241E+03  0.00000000000E+00 0.  1.
</event>
<event>
12    1  0.8226261E-002  0.2061833E+03  0.7818608E-02  0.1144844E+00
         21   -1    0    0  501  502  0.00000000000E+00  0.00000000000E+00  0.36063046257E+03  0.36063046257E+03  0.00000000000E+00 0.  1.
         21   -1    0    0  502  503 -0.00000000000E+00 -0.00000000000E+00 -0.13840631171E+03  0.13840631171E+03  0.00000000000E+00 0. -1.
         -6    2    1    2    0  503  0.79320241790E+02  0.76772298455E+02  0.20888090420E+03  0.29350092337E+03  0.17414325515E+03 0.  0.
        -24    2    3    3    0    0  0.34441884435E+02 -0.13113966848E+02  0.15737071779E+03  0.18050093686E+03  0.80354376716E+02 0.  0.
          6    2    1    2  501    0 -0.79320241790E+02 -0.76772298455E+02  0.13343246658E+02  0.20553585091E+03  0.17286195998E+03 0.  0.
         24    2    5    5    0    0 -0.36067688483E+02  0.27615344669E+02  0.32818156801E+01  0.91997814118E+02  0.79933360211E+02 0.  0.
          5    1    5    5  501    0 -0.43252553308E+02 -0.10438764312E+03  0.10061430978E+02  0.11353803679E+03  0.47000000000E+01 0. -1.
        -13    1    6    6    0    0 -0.38063747146E+02  0.14770988984E+02  0.37473141606E+02  0.55419015727E+02  0.00000000000E+00 0.  1.
         14    1    6    6    0    0  0.19960586634E+01  0.12844355685E+02 -0.34191325926E+02  0.36578798391E+02  0.00000000000E+00 0. -1.
         -5    1    3    3    0  503  0.44878357355E+02  0.89886265303E+02  0.51510186403E+02  0.11299998651E+03  0.47000000000E+01 0.  1.
         13    1    4    4    0    0 -0.22470248766E+02 -0.21114529676E+02  0.50971160884E+02  0.59571760801E+02  0.00000000000E+00 0. -1.
        -14    1    4    4    0    0  0.56912133201E+02  0.80005628271E+01  0.10639955691E+03  0.12092917606E+03  0.00000000000E+00 0.  1.
</event>
<event>
12    1  0.8226261E-002  0.1936860E+03  0.7818608E-02  0.1156203E+00
         21   -1    0    0  503  502  0.00000000000E+00  0.00000000000E+00  0.15858581058E+03  0.15858581058E+03  0.00000000000E+00 0. -1.
         21   -1    0    0  501  503 -0.00000000000E+00 -0.00000000000E+00 -0.25293895869E+03  0.25293895869E+03  0.00000000000E+00 0. -1.
          6    2    1    2  501    0 -0.87487341467E+02  0.14250824402E+02 -0.10832792927E+03  0.22192164254E+03  0.17221252641E+03 0.  0.
         24    2    3    3    0    0 -0.72212566254E+02 -0.45820304756E+02 -0.82550369894E+02  0.15462801815E+03  0.98899471050E+02 0.  0.
         -6    2    1    2    0  502  0.87487341467E+02 -0.14250824402E+02  0.13974781153E+02  0.18960312674E+03  0.16702374157E+03 0.  0.
        -24    2    5    5    0    0  0.10166507846E+03 -0.27783328429E+02 -0.34800682447E+02  0.13682744350E+03  0.80018499607E+02 0.  0.
          5    1    3    3  501    0 -0.15274775213E+02  0.60071129158E+02 -0.25777559374E+02  0.67293624389E+02  0.47000000000E+01 0. -1.
        -13    1    4    4    0    0  0.15469234599E+02 -0.23889893569E+02  0.48818075214E+01  0.28876569715E+02  0.00000000000E+00 0.  1.
         14    1    4    4    0    0 -0.87681800853E+02 -0.21930411187E+02 -0.87432177415E+02  0.12575144843E+03  0.00000000000E+00 0. -1.
         -5    1    5    5    0  502 -0.14177736994E+02  0.13532504027E+02  0.48775463600E+02  0.52775683235E+02  0.47000000000E+01 0.  1.
         11    1    6    6    0    0  0.99095506342E+02 -0.24874947534E+02 -0.36172751208E+00  0.10217051061E+03  0.00000000000E+00 0. -1.
        -12    1    6    6    0    0  0.25695721190E+01 -0.29083808949E+01 -0.34438954935E+02  0.34656932889E+02  0.00000000000E+00 0.  1.
</event>
<event>
12    1  0.8226261E-002  0.1993674E+03  0.7818608E-02  0.1150444E+00
         21   -1    0    0  501  502  0.00000000000E+00  0.00000000000E+00  0.10710996162E+03  0.10710996162E+03  0.00000000000E+00 0.  1.
         21   -1    0    0  502  503 -0.00000000000E+00 -0.00000000000E+00 -0.36984668618E+03  0.36984668618E+03  0.00000000000E+00 0.  1.
         -6    2    1    2    0  503 -0.98640057192E+02  0.23905347754E+02 -0.12495627808E+03  0.23461225952E+03  0.17066784803E+03 0.  0.
        -24    2    3    3    0    0 -0.13942187027E+02  0.89577735527E+01 -0.12322298161E+03  0.14845975810E+03  0.81128110370E+02 0.  0.
          6    2    1    2  501    0  0.98640057192E+02 -0.23905347754E+02 -0.13778044648E+03  0.24234438828E+03  0.17159843987E+03 0.  0.
         24    2    5    5    0    0  0.83193445628E+02  0.24456095057E+02 -0.28445324167E+02  0.12170572976E+03  0.80522656486E+02 0.  0.
          5    1    5    5  501    0  0.15446611564E+02 -0.48361442811E+02 -0.10933512231E+03  0.12063865852E+03  0.47000000000E+01 0. -1.
        -13    1    6    6    0    0  0.55258446794E+02  0.26520174926E+01  0.22437438262E+02  0.59698976328E+02  0.00000000000E+00 0.  1.
         14    1    6    6    0    0  0.27934998834E+02  0.21804077564E+02 -0.50882762429E+02  0.62006753428E+02  0.00000000000E+00 0. -1.
         -5    1    3    3    0  503 -0.84697870164E+02  0.14947574201E+02 -0.17332964718E+01  0.86152501424E+02  0.47000000000E+01 0.  1.
         11    1    4    4    0    0  0.14343105313E+02 -0.52391959760E+01  0.52490065690E+01  0.16147009458E+02  0.00000000000E+00 0. -1.
        -12    1    4    4    0    0 -0.28285292340E+02  0.14196969529E+02 -0.12847198818E+03  0.13231274864E+03  0.00000000000E+00 0.  1.
</event>
<event>
12    1  0.8226261E-002  0.1729148E+03  0.7818608E-02  0.1175010E+00
         21   -1    0    0  501  502  0.00000000000E+00  0.00000000000E+00  0.11052221211E+03  0.11052221211E+03  0.00000000000E+00 0. -1.
         21   -1    0    0  502  503 -0.00000000000E+00 -0.00000000000E+00 -0.50508582831E+03  0.50508582831E+03  0.00000000000E+00 0. -1.
         -6    2    1    2    0  503  0.44182123055E+01 -0.10057884636E+02 -0.40729747278E+03  0.44222502577E+03  0.17190421880E+03 0.  0.
        -24    2    3    3    0    0 -0.16200256654E+02 -0.58206017032E+02 -0.35180572025E+03  0.36577380921E+03  0.79829981624E+02 0.  0.
          6    2    1    2  501    0 -0.44182123055E+01  0.10057884636E+02  0.12733856590E+02  0.17338301465E+03  0.17256545721E+03 0.  0.
         24    2    5    5    0    0  0.42066974502E+02 -0.43141109054E+02  0.24664265915E+02  0.10158169023E+03  0.77972611487E+02 0.  0.
          5    1    5    5  501    0 -0.46485186807E+02  0.53198993689E+02 -0.11930409325E+02  0.71801324422E+02  0.47000000000E+01 0. -1.
        -13    1    6    6    0    0  0.58778669856E+02 -0.46449236416E+02  0.43119322466E+01  0.75040364827E+02  0.00000000000E+00 0.  1.
         14    1    6    6    0    0 -0.16711695354E+02  0.33081273619E+01  0.20352333668E+02  0.26541325400E+02  0.00000000000E+00 0. -1.
         -5    1    3    3    0  503  0.20618468959E+02  0.48148132397E+02 -0.55491752534E+02  0.76451216569E+02  0.47000000000E+01 0.  1.
         13    1    4    4    0    0  0.30354697407E+02 -0.89549118917E+01 -0.92796900328E+02  0.98045208002E+02  0.00000000000E+00 0. -1.
        -14    1    4    4    0    0 -0.46554954061E+02 -0.49251105141E+02 -0.25900881992E+03  0.26772860120E+03  0.00000000000E+00 0.  1.
</event>
<event>
12    1  0.8226261E-002  0.2267802E+03  0.7818608E-02  0.1128960E+00
         21   -1    0    0  503  502  0.00000000000E+00  0.00000000000E+00  0.87294745134E+02  0.87294745134E+02  0.00000000000E+00 0. -1.
         21   -1    0    0  501  503 -0.00000000000E+00 -0.00000000000E+00 -0.60452724349E+03  0.60452724349E+03  0.00000000000E+00 0. -1.
          6    2    1    2  501    0 -0.14419263560E+03 -0.28656095398E+02 -0.31474882383E+03  0.38793827134E+03  0.17267481665E+03 0.  0.
         24    2    3    3    0    0 -0.21010657689E+02 -0.41677028685E+02 -0.19856865423E+03  0.21804634630E+03  0.77047233802E+02 0.  0.
         -6    2    1    2    0  502  0.14419263560E+03  0.28656095398E+02 -0.20248367452E+03  0.30388371728E+03  0.17243255846E+03 0.  0.
        -24    2    5    5    0    0  0.15676181323E+03 -0.84130901128E+01 -0.12259785152E+03  0.21479980483E+03  0.80396994881E+02 0.  0.
          5    1    3    3  501    0 -0.12318197791E+03  0.13020933286E+02 -0.11618016960E+03  0.16989192504E+03  0.47000000000E+01 0. -1.
        -13    1    4    4    0    0 -0.22038445899E+02 -0.63177560580E+02 -0.13047581381E+03  0.14663231311E+03  0.00000000000E+00 0.  1.
         14    1    4    4    0    0  0.10277882099E+01  0.21500531895E+02 -0.68092840424E+02  0.71414033197E+02  0.00000000000E+00 0. -1.
         -5    1    5    5    0  502 -0.12569177629E+02  0.37069185511E+02 -0.79885823002E+02  0.89083912450E+02  0.47000000000E+01 0.  1.
         11    1    6    6    0    0  0.12204644679E+03  0.23162990963E+02 -0.11068857596E+03  0.16638455509E+03  0.00000000000E+00 0. -1.
        -12    1    6    6    0    0  0.34715366436E+02 -0.31576081076E+02 -0.11909275560E+02  0.48415249738E+02  0.00000000000E+00 0.  1.
</event>
<event>
12    1  0.8226261E-002  0.2259268E+03  0.7818608E-02  0.1129639E+00
         21   -1    0    0  501  502  0.00000000000E+00  0.00000000000E+00  0.34378176725E+03  0.34378176725E+03  0.00000000000E+00 0. -1.
         21   -1    0    0  502  503 -0.00000000000E+00 -0.00000000000E+00 -0.14864641012E+03  0.14864641012E+03  0.00000000000E+00 0. -1.
         -6    2    1    2    0  503 -0.55042582595E+02 -0.13524112707E+03  0.82706135177E+02  0.24007277287E+03  0.17168221553E+03 0.  0.
        -24    2    3    3    0    0 -0.42367785051E+02 -0.86195300562E+02 -0.21563928710E+02  0.12405346494E+03  0.75495695856E+02 0.  0.
          6    2    1    2  501    0  0.55042582595E+02  0.13524112707E+03  0.11242922195E+03  0.25235540450E+03  0.17240380472E+03 0.  0.
         24    2    5    5    0    0  0.11217161108E+02  0.13849416698E+03  0.12836776003E+03  0.20537267540E+03  0.79957457414E+02 0.  0.
          5    1    5    5  501    0  0.43825421487E+02 -0.32530399087E+01 -0.15938538080E+02  0.46982729095E+02  0.47000000000E+01 0. -1.
        -13    1    6    6    0    0  0.69564758781E+01  0.74260870638E+01 -0.10326974390E+02  0.14497783478E+02  0.00000000000E+00 0.  1.
         14    1    6    6    0    0  0.42606852298E+01  0.13106807992E+03  0.13869473442E+03  0.19087489193E+03  0.00000000000E+00 0. -1.
         -5    1    3    3    0  503 -0.12674797544E+02 -0.49045826509E+02  0.10427006389E+03  0.11601930793E+03  0.47000000000E+01 0.  1.
         13    1    4    4    0    0 -0.34026246554E+02  0.10904575301E+01 -0.13514628046E+01  0.34070529844E+02  0.00000000000E+00 0. -1.
        -14    1    4    4    0    0 -0.83415384971E+01 -0.87285758092E+02 -0.20212465905E+02  0.89982935094E+02  0.00000000000E+00 0.  1.
</event>
<event>
12    1  0.8226261E-002  0.1763640E+03  0.7818608E-02  0.1171382E+00
         21   -1    0    0  503  502  0.00000000000E+00  0.00000000000E+00  0.44144348538E+03  0.44144348538E+03  0.00000000000E+00 0.  1.
         21   -1    0    0  501  503 -0.00000000000E+00 -0.00000000000E+00 -0.70533909415E+02  0.70533909415E+02  0.00000000000E+00 0.  1.
          6    2    1    2  501    0  0.36288178169E+02 -0.11413967447E+02  0.17607925974E+03  0.24917875305E+03  0.17215991036E+03 0.  0.
         24    2    3    3    0    0 -0.26661903685E+02 -0.38753832397E+02  0.48902303408E+02  0.10458881826E+03  0.79590633832E+02 0.  0.
         -6    2    1    2    0  502 -0.36288178169E+02  0.11413967447E+02  0.19483031623E+03  0.26279864174E+03  0.17221255312E+03 0.  0.
        -24    2    5    5    0    0 -0.14882610899E+02 -0.56631727074E+02  0.14693112936E+03  0.17674727943E+03  0.78880919064E+02 0.  0.
          5    1    3    3  501    0  0.62950081854E+02  0.27339864951E+02  0.12717695633E+03  0.14458993479E+03  0.47000000000E+01 0. -1.
        -11    1    4    4    0    0 -0.44881273742E+02  0.11053409496E+01  0.39428413465E+02  0.59750734721E+02  0.00000000000E+00 0.  1.
         12    1    4    4    0    0  0.18219370057E+02 -0.39859173347E+02  0.94738899435E+01  0.44838083543E+02  0.00000000000E+00 0. -1.
         -5    1    5    5    0  502 -0.21405567269E+02  0.68045694520E+02  0.47899186862E+02  0.86051362307E+02  0.47000000000E+01 0.  1.
         11    1    6    6    0    0 -0.15886591047E+02 -0.40772714454E+02  0.18785771480E+02  0.47620407696E+02  0.00000000000E+00 0. -1.
        -12    1    6    6    0    0  0.10039801471E+01 -0.15859012620E+02  0.12814535788E+03  0.12912687174E+03  0.00000000000E+00 0.  1.
</event>
<event>
12    1  0.8226261E-002  0.1850577E+03  0.7818608E-02  0.1163150E+00
         21   -1    0    0  501  502  0.00000000000E+00  0.00000000000E+00  0.41767688167E+03  0.41767688167E+03  0.00000000000E+00 0.  1.
         21   -1    0    0  502  503 -0.00000000000E+00 -0.00000000000E+00 -0.20020346977E+03  0.20020346977E+03  0.00000000000E+00 0. -1.
         -6    2    1    2    0  503 -0.35585434531E+02  0.57163441509E+02  0.34634325550E+03  0.39237251611E+03  0.17166408645E+03 0.  0.
        -24    2    3    3    0    0 -0.77713481385E+00  0.50880944057E+02  0.34405873688E+03  0.35661784469E+03  0.78806080469E+02 0.  0.
          6    2    1    2  501    0  0.35585434531E+02 -0.57163441509E+02 -0.12886984360E+03  0.22550783533E+03  0.17237275019E+03 0.  0.
         24    2    5    5    0    0  0.23957771799E+01  0.30503618474E+02 -0.89604602012E+02  0.12376838399E+03  0.79708328833E+02 0.  0.
          5    1    5    5  501    0  0.33189657352E+02 -0.87667059983E+02 -0.39265241589E+02  0.10173945134E+03  0.47000000000E+01 0. -1.
        -13    1    6    6    0    0 -0.35757966241E+02  0.25008307254E+02 -0.30627500162E+02  0.53311268486E+02  0.00000000000E+00 0.  1.
         14    1    6    6    0    0  0.38153743421E+02  0.54953112206E+01 -0.58977101850E+02  0.70457115504E+02  0.00000000000E+00 0. -1.
         -5    1    3    3    0  503 -0.34808299718E+02  0.62824974518E+01  0.22845186145E+01  0.35754671426E+02  0.47000000000E+01 0.  1.
         11    1    4    4    0    0 -0.51602702239E+01 -0.17128634519E+02  0.27502016824E+02  0.32808222120E+02  0.00000000000E+00 0. -1.
        -12    1    4    4    0    0  0.43831354101E+01  0.68009578577E+02  0.31655672006E+03  0.32380962257E+03  0.00000000000E+00 0.  1.
</event>
<event>
12    1  0.8226261E-002  0.2424612E+03  0.7818608E-02  0.1118164E+00
         21   -1    0    0  501  502  0.00000000000E+00  0.00000000000E+00  0.43437195893E+02  0.43437195893E+02  0.00000000000E+00 0. -1.
         21   -1    0    0  502  503 -0.00000000000E+00 -0.00000000000E+00 -0.13539198261E+04  0.13539198261E+04  0.00000000000E+00 0. -1.
         -6    2    1    2    0  503  0.14848088933E+03 -0.84294988953E+02 -0.66925637940E+03  0.71182180698E+03  0.17214518249E+03 0.  0.
        -24    2    3    3    0    0  0.13187751762E+03 -0.11208364662E+03 -0.64013509903E+03  0.66802659699E+03  0.80821815031E+02 0.  0.
          6    2    1    2  501    0 -0.14848088933E+03  0.84294988953E+02 -0.64122625075E+03  0.68553521497E+03  0.17214879218E+03 0.  0.
         24    2    5    5    0    0 -0.11151301332E+03  0.12473920914E+03 -0.52711649591E+03  0.55886444110E+03  0.80514848465E+02 0.  0.
          5    1    5    5  501    0 -0.36967876015E+02 -0.40444220188E+02 -0.11410975484E+03  0.12667077387E+03  0.47000000000E+01 0. -1.
        -11    1    6    6    0    0 -0.24903809300E+02  0.13684650620E+02 -0.26642484851E+02  0.38952424562E+02  0.00000000000E+00 0.  1.
         12    1    6    6    0    0 -0.86609204015E+02  0.11105455852E+03 -0.50047401106E+03  0.51991201653E+03  0.00000000000E+00 0. -1.
         -5    1    3    3    0  503  0.16603371707E+02  0.27788657664E+02 -0.29121280372E+02  0.43795209982E+02  0.47000000000E+01 0.  1.
         13    1    4    4    0    0  0.11420863153E+02 -0.53798625871E+02 -0.14347129878E+03  0.15365136457E+03  0.00000000000E+00 0. -1.
        -14    1    4    4    0    0  0.12045665447E+03 -0.58285020745E+02 -0.49666380026E+03  0.51437523243E+03  0.00000000000E+00 0.  1.
</event>
<event>
12    1  0.8226261E-002  0.1975808E+03  0.7818608E-02  0.1151876E+00
         21   -1    0    0  503  502  0.00000000000E+00  0.00000000000E+00  0.13137405950E+03  0.13137405950E+03  0.00000000000E+00 0.  1.
         21   -1    0    0  501  503 -0.00000000000E+00 -0.00000000000E+00 -0.34827370400E+03  0.34827370400E+03  0.00000000000E+00 0. -1.
          6    2    1    2  501    0 -0.33897551139E+02 -0.93139028251E+02 -0.20074510380E+03  0.28140765738E+03  0.17049266956E+03 0.  0.
         24    2    3    3    0    0  0.19158987274E+02 -0.11312623274E+03 -0.13909723671E+03  0.19752062543E+03  0.80633398063E+02 0.  0.
         -6    2    1    2    0  502  0.33897551139E+02  0.93139028251E+02 -0.16154540702E+02  0.19824010612E+03  0.17092175968E+03 0.  0.
        -24    2    5    5    0    0  0.21247028846E+02 -0.16377403685E+01 -0.50580398524E+02  0.96505641599E+02  0.79377854073E+02 0.  0.
          5    1    3    3  501    0 -0.53056538413E+02  0.19987204489E+02 -0.61647867092E+02  0.83887031946E+02  0.47000000000E+01 0. -1.
        -11    1    4    4    0    0  0.12781529756E+02 -0.12532397822E+03 -0.12998947448E+03  0.18101582941E+03  0.00000000000E+00 0.  1.
         12    1    4    4    0    0  0.63774575183E+01  0.12197745476E+02 -0.91077622227E+01  0.16504796024E+02  0.00000000000E+00 0. -1.
         -5    1    5    5    0  502  0.12650522293E+02  0.94776768620E+02  0.34425857822E+02  0.10173446452E+03  0.47000000000E+01 0.  1.
         11    1    6    6    0    0  0.85517450168E+01  0.36084977126E+02 -0.41549684574E+02  0.55692317290E+02  0.00000000000E+00 0. -1.
        -12    1    6    6    0    0  0.12695283829E+02 -0.37722717494E+02 -0.90307139500E+01  0.40813324308E+02  0.00000000000E+00 0.  1.
</event>
<event>
12    1  0.8226261E-002  0.1907974E+03  0.7818608E-02  0.1161853E+00
         21   -1    0    0  503  502  0.00000000000E+00  0.00000000000E+00  0.40201083496E+03  0.40201083496E+03  0.00000000000E+00 0. -1.
         21   -1    0    0  501  503 -0.00000000000E+00 -0.00000000000E+00 -0.22833495801E+03  0.22833495801E+03  0.00000000000E+00 0. -1.
          6    2    1    2  501    0 -0.12045371634E+02 -0.12080099979E+02 -0.16645479284E+03  0.24035538569E+03  0.17254707641E+03 0.  0.
         24    2    3    3    0    0  0.28571950670E+02 -0.13574438856E+02 -0.62256459568E+02  0.12841172765E+03  0.10776401665E+03 0.  0.
         -6    2    1    2    0  502  0.12045371634E+02  0.12080099979E+02  0.34013066979E+03  0.38999040728E+03  0.19003322195E+03 0.  0.
        -24    2    5    5    0    0 -0.58380330348E+02  0.13651514501E+02  0.27990338169E+03  0.29719134977E+03  0.79888475232E+02 0.  0.
          5    1    3    3  501    0 -0.40617322304E+02  0.14943388767E+01 -0.10419833327E+03  0.11194365804E+03  0.47000000000E+01 0. -1.
        -11    1    4    4    0    0  0.19995956556E+02  0.60815747489E+01  0.28395283309E+02  0.35257849398E+02  0.00000000000E+00 0.  1.
         12    1    4    4    0    0  0.85759941143E+01 -0.19656013605E+02 -0.90651742877E+02  0.93153878247E+02  0.00000000000E+00 0. -1.
         -5    1    5    5    0  502  0.70425701982E+02 -0.15714145217E+01  0.60227288098E+02  0.92799057511E+02  0.47000000000E+01 0.  1.
         11    1    6    6    0    0  0.20195080992E+02  0.51601136007E+01  0.59867619363E+02  0.63392427914E+02  0.00000000000E+00 0. -1.
        -12    1    6    6    0    0 -0.78575411340E+02  0.84914009002E+01  0.22003576233E+03  0.23379892186E+03  0.00000000000E+00 0.  1.
</event>
<event>
12    1  0.8226261E-002  0.2550695E+03  0.7818608E-02  0.1110451E+00
         21   -1    0    0  501  502  0.00000000000E+00  0.00000000000E+00  0.16717775578E+04  0.16717775578E+04  0.00000000000E+00 0.  1.
         21   -1    0    0  502  503 -0.00000000000E+00 -0.00000000000E+00 -0.38671075195E+02  0.38671075195E+02  0.00000000000E+00 0.  1.
         -6    2    1    2    0  503  0.15459065717E+03 -0.10798784984E+03  0.85288584742E+03  0.89021048712E+03  0.17175795658E+03 0.  0.
        -24    2    3    3    0    0  0.15999350277E+03 -0.13355766258E+03  0.80546965250E+03  0.83586537138E+03  0.80336715231E+02 0.  0.
          6    2    1    2  501    0 -0.15459065717E+03  0.10798784984E+03  0.78022063515E+03  0.82023814585E+03  0.16878012141E+03 0.  0.
         24    2    5    5    0    0 -0.28139446937E+02  0.49183566851E+02  0.47134337481E+03  0.48130584549E+03  0.79245745646E+02 0.  0.
          5    1    5    5  501    0 -0.12645121023E+03  0.58804282993E+02  0.30887726034E+03  0.33893230035E+03  0.47000000000E+01 0. -1.
        -13    1    6    6    0    0 -0.55387555297E+02  0.32989786443E+02  0.27765873496E+03  0.28504469894E+03  0.00000000000E+00 0.  1.
         14    1    6    6    0    0  0.27248108360E+02  0.16193780408E+02  0.19368463985E+03  0.19626114656E+03  0.00000000000E+00 0. -1.
         -5    1    3    3    0  503 -0.54028455980E+01  0.25569812735E+02  0.47416194927E+02  0.54345115744E+02  0.47000000000E+01 0.  1.
         11    1    4    4    0    0  0.13698272723E+02 -0.48827749614E+02  0.25603240553E+03  0.26100648361E+03  0.00000000000E+00 0. -1.
        -12    1    4    4    0    0  0.14629523004E+03 -0.84729912965E+02  0.54943724697E+03  0.57485888776E+03  0.00000000000E+00 0.  1.
</event>
<event>
12    1  0.8226261E-002  0.2012926E+03  0.7818608E-02  0.1148697E+00
         21   -1    0    0  503  502  0.00000000000E+00  0.00000000000E+00  0.69327661848E+02  0.69327661848E+02  0.00000000000E+00 0.  1.
         21   -1    0    0  501  503 -0.00000000000E+00 -0.00000000000E+00 -0.58780941871E+03  0.58780941871E+03  0.00000000000E+00 0.  1.
          6    2    1    2  501    0 -0.87563226057E+02 -0.54505908513E+02 -0.23211630084E+03  0.30710294087E+03  0.17261525587E+03 0.  0.
         24    2    3    3    0    0 -0.98451557315E+02  0.60591068804E+01 -0.10217022289E+03  0.16324624127E+03  0.80505645327E+02 0.  0.
         -6    2    1    2    0  502  0.87563226057E+02  0.54505908513E+02 -0.28636545603E+03  0.35003413969E+03  0.17285980423E+03 0.  0.
        -24    2    5    5    0    0  0.38507416669E+02  0.49198373932E+02 -0.58707884012E+02  0.11704336207E+03  0.79682067138E+02 0.  0.
          5    1    3    3  501    0  0.10888331258E+02 -0.60565015393E+02 -0.12994607795E+03  0.14385669960E+03  0.47000000000E+01 0. -1.
        -13    1    4    4    0    0 -0.26462403999E+02  0.39672942589E+02 -0.42584767897E+02  0.63934839141E+02  0.00000000000E+00 0.  1.
         14    1    4    4    0    0 -0.71989153316E+02 -0.33613835709E+02 -0.59585454993E+02  0.99311402129E+02  0.00000000000E+00 0. -1.
         -5    1    5    5    0  502  0.49055809388E+02  0.53075345803E+01 -0.22765757202E+03  0.23299077762E+03  0.47000000000E+01 0.  1.
         11    1    6    6    0    0 -0.14557991545E+02 -0.12152691553E+02 -0.18561143272E+02  0.26535618881E+02  0.00000000000E+00 0. -1.
        -12    1    6    6    0    0  0.53065408214E+02  0.61351065486E+02 -0.40146740740E+02  0.90507743189E+02  0.00000000000E+00 0.  1.
</event>
<event>
12    1  0.8226261E-002  0.1750084E+03  0.7818608E-02  0.1173203E+00
         21   -1    0    0  501  502  0.00000000000E+00  0.00000000000E+00  0.52587005207E+02  0.52587005207E+02  0.00000000000E+00 0. -1.
         21   -1    0    0  502  503 -0.00000000000E+00 -0.00000000000E+00 -0.78095459155E+03  0.78095459155E+03  0.00000000000E+00 0. -1.
         -6    2    1    2    0  503 -0.28354826839E+02 -0.75304893208E+01 -0.57616075519E+03  0.60160437808E+03  0.17060453521E+03 0.  0.
        -24    2    3    3    0    0 -0.39056469950E+02 -0.57924382551E+02 -0.48873544862E+03  0.50002020674E+03  0.79228949657E+02 0.  0.
          6    2    1    2  501    0  0.28354826839E+02  0.75304893208E+01 -0.15220683115E+03  0.23193721867E+03  0.17253187961E+03 0.  0.
         24    2    5    5    0    0 -0.45641497443E+02  0.24597704552E+02 -0.10308899543E+03  0.14137565050E+03  0.81679496932E+02 0.  0.
          5    1    5    5  501    0  0.73996324282E+02 -0.17067215231E+02 -0.49117835726E+02  0.90561568170E+02  0.47000000000E+01 0. -1.
        -13    1    6    6    0    0 -0.18462423825E+02 -0.29425857993E+02 -0.25969740764E+02  0.43372452634E+02  0.00000000000E+00 0.  1.
         14    1    6    6    0    0 -0.27179073619E+02  0.54023562546E+02 -0.77119254662E+02  0.98003197869E+02  0.00000000000E+00 0. -1.
         -5    1    3    3    0  503  0.10701643111E+02  0.50393893230E+02 -0.87425306567E+02  0.10158417135E+03  0.47000000000E+01 0.  1.
         13    1    4    4    0    0 -0.17399219348E+02 -0.11992973081E+01 -0.32370009000E+03  0.32416958434E+03  0.00000000000E+00 0. -1.
        -14    1    4    4    0    0 -0.21657250602E+02 -0.56725085243E+02 -0.16503535863E+03  0.17585062240E+03  0.00000000000E+00 0.  1.
</event>
<event>
12    1  0.8226261E-002  0.2041857E+03  0.7818608E-02  0.1146914E+00
         21   -1    0    0  503  502  0.00000000000E+00  0.00000000000E+00  0.59528869898E+02  0.59528869898E+02  0.00000000000E+00 0. -1.
         21   -1    0    0  501  503 -0.00000000000E+00 -0.00000000000E+00 -0.69317519473E+03  0.69317519473E+03  0.00000000000E+00 0. -1.
          6    2    1    2  501    0 -0.81148032704E+02 -0.68031603907E+02 -0.34179738919E+03  0.39651927970E+03  0.17084724630E+03 0.  0.
         24    2    3    3    0    0 -0.43673576991E+02  0.19860382976E+02 -0.23655268537E+03  0.25429454952E+03  0.80042044094E+02 0.  0.
         -6    2    1    2    0  502  0.81148032704E+02  0.68031603907E+02 -0.29184893564E+03  0.35618478493E+03  0.17458091947E+03 0.  0.
        -24    2    5    5    0    0  0.70120778930E+02  0.10517054082E+03 -0.27616168942E+03  0.31412434443E+03  0.80193882344E+02 0.  0.
          5    1    3    3  501    0 -0.37474455713E+02 -0.87891986883E+02 -0.10524470383E+03  0.14222473017E+03  0.47000000000E+01 0. -1.
        -13    1    4    4    0    0 -0.10172792068E+02 -0.25458796440E+02 -0.32088349107E+02  0.42205428123E+02  0.00000000000E+00 0.  1.
         14    1    4    4    0    0 -0.33500784924E+02  0.45319179415E+02 -0.20446433626E+03  0.21208912140E+03  0.00000000000E+00 0. -1.
         -5    1    5    5    0  502  0.11027253774E+02 -0.37138936917E+02 -0.15687246211E+02  0.42060440497E+02  0.47000000000E+01 0.  1.
         11    1    6    6    0    0  0.52209131175E+02  0.11067920591E+03 -0.19037441670E+03  0.22631415894E+03  0.00000000000E+00 0. -1.
        -12    1    6    6    0    0  0.17911647755E+02 -0.55086650893E+01 -0.85787272720E+02  0.87810185497E+02  0.00000000000E+00 0.  1.
</event>
<event>
12    1  0.8226261E-002  0.1888649E+03  0.7818608E-02  0.1159645E+00
         21   -1    0    0  501  502  0.00000000000E+00  0.00000000000E+00  0.11705199614E+04  0.11705199614E+04  0.00000000000E+00 0.  1.
         21   -1    0    0  502  503 -0.00000000000E+00 -0.00000000000E+00 -0.30552878549E+02  0.30552878549E+02  0.00000000000E+00 0.  1.
         -6    2    1    2    0  503  0.21422095675E+02  0.74677917367E+02  0.52165739272E+03  0.55456156849E+03  0.17139545016E+03 0.  0.
        -24    2    3    3    0    0 -0.18279274528E+02 -0.11579250737E+02  0.33132946445E+03  0.34180981615E+03  0.81157411696E+02 0.  0.
          6    2    1    2  501    0 -0.21422095675E+02 -0.74677917367E+02  0.61830969009E+03  0.64651127142E+03  0.17214602433E+03 0.  0.
         24    2    5    5    0    0 -0.26298921304E+02  0.19844061375E+02  0.20571971206E+03  0.22317834350E+03  0.80015954932E+02 0.  0.
          5    1    5    5  501    0  0.48768256287E+01 -0.94521978742E+02  0.41258997803E+03  0.42333292792E+03  0.47000000000E+01 0. -1.
        -13    1    6    6    0    0  0.26767247040E+02  0.19695368612E+02  0.71360050435E+02  0.78718802436E+02  0.00000000000E+00 0.  1.
         14    1    6    6    0    0 -0.53066168345E+02  0.14869276233E+00  0.13435966163E+03  0.14445954107E+03  0.00000000000E+00 0. -1.
         -5    1    3    3    0  503  0.39701370203E+02  0.86257168104E+02  0.19032792827E+03  0.21275175234E+03  0.47000000000E+01 0.  1.
         11    1    4    4    0    0  0.22307304872E+02 -0.22854648075E+02  0.67924409824E+02  0.75057819307E+02  0.00000000000E+00 0. -1.
        -12    1    4    4    0    0 -0.40586579399E+02  0.11275397337E+02  0.26340505463E+03  0.26675199684E+03  0.00000000000E+00 0.  1.
</event>
<event>
12    1  0.8226261E-002  0.1992972E+03  0.7818608E-02  0.1150743E+00
         21   -1    0    0  501  502  0.00000000000E+00  0.00000000000E+00  0.87052984223E+03  0.87052984223E+03  0.00000000000E+00 0. -1.
         21   -1    0    0  502  503 -0.00000000000E+00 -0.00000000000E+00 -0.10887161545E+03  0.10887161545E+03  0.00000000000E+00 0. -1.
         -6    2    1    2    0  503  0.49805863322E+02 -0.87173358239E+02  0.70647703063E+01  0.19942233827E+03  0.17216137666E+03 0.  0.
        -24    2    3    3    0    0  0.56637246841E+02 -0.12505962287E+03 -0.32450856841E+01  0.15929229991E+03  0.80720624556E+02 0.  0.
          6    2    1    2  501    0 -0.49805863322E+02  0.87173358239E+02  0.75459345647E+03  0.77997911941E+03  0.16993034975E+03 0.  0.
         24    2    5    5    0    0  0.25647533073E+02  0.83760527613E+02  0.37846515925E+03  0.39631331639E+03  0.78452189540E+02 0.  0.
          5    1    5    5  501    0 -0.75453396394E+02  0.34128306263E+01  0.37612829722E+03  0.38366580303E+03  0.47000000000E+01 0. -1.
        -13    1    6    6    0    0 -0.24205756905E+02  0.28257180340E+02  0.73828755410E+02  0.82674494455E+02  0.00000000000E+00 0.  1.
         14    1    6    6    0    0  0.49853289978E+02  0.55503347272E+02  0.30463640384E+03  0.31363882193E+03  0.00000000000E+00 0. -1.
         -5    1    3    3    0  503 -0.68313835191E+01  0.37886264626E+02  0.10309855990E+02  0.40130038359E+02  0.47000000000E+01 0.  1.
         11    1    4    4    0    0  0.18803815643E+00 -0.10346435389E+02 -0.27303170341E+02  0.29198410818E+02  0.00000000000E+00 0. -1.
        -12    1    4    4    0    0  0.56449208685E+02 -0.11471318748E+03  0.24058084657E+02  0.13009388909E+03  0.00000000000E+00 0.  1.
</event>
<event>
12    1  0.8226261E-002  0.1984552E+03  0.7818608E-02  0.1151056E+00
         21   -1    0    0  503  502  0.00000000000E+00  0.00000000000E+00  0.22933981102E+03  0.22933981102E+03  0.00000000000E+00 0.  1.
         21   -1    0    0  501  503 -0.00000000000E+00 -0.00000000000E+00 -0.18523920989E+03  0.18523920989E+03  0.00000000000E+00 0.  1.
          6    2    1    2  501    0  0.96353202572E+02  0.26961682103E+02  0.78084428740E+02  0.21323511981E+03  0.17135100339E+03 0.  0.
         24    2    3    3    0    0  0.66820549671E+02  0.69786036727E+02  0.84384863458E+01  0.12617910205E+03  0.80714812533E+02 0.  0.
         -6    2    1    2    0  502 -0.96353202572E+02 -0.26961682103E+02 -0.33983827613E+02  0.20134390109E+03  0.17138726330E+03 0.  0.
        -24    2    5    5    0    0 -0.36258650724E+02  0.98846077314E+01  0.42034527652E+02  0.97565846701E+02  0.79622846629E+02 0.  0.
          5    1    3    3  501    0  0.29532652901E+02 -0.42824354625E+02  0.69645942394E+02  0.87056017761E+02  0.47000000000E+01 0. -1.
        -13    1    4    4    0    0  0.46487519456E+02  0.46614290914E+02 -0.33708418023E+02  0.73961064271E+02  0.00000000000E+00 0.  1.
         14    1    4    4    0    0  0.20333030215E+02  0.23171745813E+02  0.42146904368E+02  0.52218037780E+02  0.00000000000E+00 0. -1.
         -5    1    5    5    0  502 -0.60094551848E+02 -0.36846289834E+02 -0.76018355265E+02  0.10377805439E+03  0.47000000000E+01 0.  1.
         13    1    6    6    0    0 -0.39158545796E+02  0.40237346702E+02  0.18728166296E+02  0.59187667561E+02  0.00000000000E+00 0. -1.
        -14    1    6    6    0    0  0.28998950716E+01 -0.30352738971E+02  0.23306361356E+02  0.38378179140E+02  0.00000000000E+00 0.  1.
</event>
<event>
12    1  0.8226261E-002  0.2246916E+03  0.7818608E-02  0.1130549E+00
         21   -1    0    0  503  502  0.00000000000E+00  0.00000000000E+00  0.42214872102E+03  0.42214872102E+03  0.00000000000E+00 0. -1.
         21   -1    0    0  501  503 -0.00000000000E+00 -0.00000000000E+00 -0.14641614461E+03  0.14641614461E+03  0.00000000000E+00 0.  1.
          6    2    1    2  501    0  0.49049369232E+02 -0.13491507336E+03  0.26046953600E+03  0.34399229748E+03  0.17285370663E+03 0.  0.
         24    2    3    3    0    0  0.96055372459E+02 -0.93951528193E+02  0.15121178854E+03  0.21810774023E+03  0.81562596374E+02 0.  0.
         -6    2    1    2    0  502 -0.49049369232E+02  0.13491507336E+03  0.15263040401E+02  0.22457256816E+03  0.17202313892E+03 0.  0.
        -24    2    5    5    0    0 -0.96124763494E+02  0.69524602629E+02  0.16022869184E+02  0.14385903926E+03  0.79781265421E+02 0.  0.
          5    1    3    3  501    0 -0.47006003227E+02 -0.40963545170E+02  0.10925774746E+03  0.12588455724E+03  0.47000000000E+01 0. -1.
        -13    1    4    4    0    0  0.57899210760E+02 -0.25732969292E+01  0.61190505444E+02  0.84280593379E+02  0.00000000000E+00 0.  1.
         14    1    4    4    0    0  0.38156161698E+02 -0.91378231264E+02  0.90021283100E+02  0.13382714686E+03  0.00000000000E+00 0. -1.
         -5    1    5    5    0  502  0.47075394262E+02  0.65390470734E+02 -0.75982878215E+00  0.80713528900E+02  0.47000000000E+01 0.  1.
         11    1    6    6    0    0  0.72314320123E+00 -0.14459236793E+02 -0.11522631576E+01  0.14523091100E+02  0.00000000000E+00 0. -1.
        -12    1    6    6    0    0 -0.96847906695E+02  0.83983839422E+02  0.17175132341E+02  0.12933594816E+03  0.00000000000E+00 0.  1.
</event>
<event>
12    1  0.8226261E-002  0.3551412E+03  0.7818608E-02  0.1060553E+00
         21   -1    0    0  501  502  0.00000000000E+00  0.00000000000E+00  0.89800602542E+03  0.89800602542E+03  0.00000000000E+00 0.  1.
         21   -1    0    0  502  503 -0.00000000000E+00 -0.00000000000E+00 -0.23456079847E+03  0.23456079847E+03  0.00000000000E+00 0.  1.
         -6    2    1    2    0  503  0.17950670551E+02 -0.30971447473E+03  0.69055193875E+03  0.77639266011E+03  0.17227391017E+03 0.  0.
        -24    2    3    3    0    0  0.73356819473E+02 -0.17244590440E+03  0.41870565169E+03  0.46682038175E+03  0.86533422172E+02 0.  0.
          6    2    1    2  501    0 -0.17950670551E+02  0.30971447473E+03 -0.27106711798E+02  0.35617416379E+03  0.17285826187E+03 0.  0.
         24    2    5    5    0    0  0.38553723012E+01  0.27612755970E+03 -0.70972987628E+02  0.29659292076E+03  0.81663348859E+02 0.  0.
          5    1    5    5  501    0 -0.21806042852E+02  0.33586915024E+02  0.43866275831E+02  0.59581243029E+02  0.47000000000E+01 0. -1.
        -13    1    6    6    0    0 -0.34695479078E+01  0.19199978804E+03 -0.97311503069E+01  0.19227753810E+03  0.00000000000E+00 0.  1.
         14    1    6    6    0    0  0.73249202090E+01  0.84127771662E+02 -0.61241837321E+02  0.10431538266E+03  0.00000000000E+00 0. -1.
         -5    1    3    3    0  503 -0.55406148922E+02 -0.13726857032E+03  0.27184628706E+03  0.30957227835E+03  0.47000000000E+01 0.  1.
         13    1    4    4    0    0 -0.21100839581E+00 -0.39379132886E+02  0.30218544142E+02  0.49637899245E+02  0.00000000000E+00 0. -1.
        -14    1    4    4    0    0  0.73567827869E+02 -0.13306677152E+03  0.38848710755E+03  0.41718248251E+03  0.00000000000E+00 0.  1.
</event>
<event>
12    1  0.8226261E-002  0.2006106E+03  0.7818608E-02  0.1150077E+00
         21   -1    0    0  501  502  0.00000000000E+00  0.00000000000E+00  0.13213904640E+03  0.13213904640E+03  0.00000000000E+00 0. -1.
         21   -1    0    0  502  503 -0.00000000000E+00 -0.00000000000E+00 -0.34118119162E+03  0.34118119162E+03  0.00000000000E+00 0. -1.
         -6    2    1    2    0  503  0.34441655533E+02 -0.93586591436E+02 -0.18914316581E+03  0.27571678748E+03  0.17406875650E+03 0.  0.
        -24    2    3    3    0    0 -0.46608328276E+02 -0.57274608027E+02 -0.12405557526E+03  0.16550723953E+03  0.80932957409E+02 0.  0.
          6    2    1    2  501    0 -0.34441655533E+02  0.93586591436E+02 -0.19898979415E+02  0.19760345055E+03  0.16942985733E+03 0.  0.
         24    2    5    5    0    0 -0.26033631282E+02  0.12155980055E+03  0.19277197485E+02  0.14851110759E+03  0.78926571364E+02 0.  0.
          5    1    5    5  501    0 -0.84080242509E+01 -0.27973209117E+02 -0.39176176901E+02  0.49092342953E+02  0.47000000000E+01 0. -1.
        -11    1    6    6    0    0 -0.20555462285E+02  0.34065581207E+01  0.21864755732E+02  0.30202635831E+02  0.00000000000E+00 0.  1.
         12    1    6    6    0    0 -0.54781689975E+01  0.11815324243E+03 -0.25875582462E+01  0.11830847176E+03  0.00000000000E+00 0. -1.
         -5    1    3    3    0  503  0.81049983809E+02 -0.36311983409E+02 -0.65087590553E+02  0.11020954795E+03  0.47000000000E+01 0.  1.
         11    1    4    4    0    0  0.18537685238E+02 -0.33428893460E+02 -0.59647146085E+02  0.70844327423E+02  0.00000000000E+00 0. -1.
        -12    1    4    4    0    0 -0.65146013514E+02 -0.23845714567E+02 -0.64408429173E+02  0.94662912107E+02  0.00000000000E+00 0.  1.
</event>
<event>
12    1  0.8226261E-002  0.2104675E+03  0.7818608E-02  0.1141408E+00
         21   -1    0    0  501  502  0.00000000000E+00  0.00000000000E+00  0.18145252125E+03  0.18145252125E+03  0.00000000000E+00 0. -1.
         21   -1    0    0  502  503 -0.00000000000E+00 -0.00000000000E+00 -0.11521411243E+04  0.11521411243E+04  0.00000000000E+00 0.  1.
         -6    2    1    2    0  503 -0.10484638999E+03 -0.60988353734E+02 -0.10779636539E+04  0.10983179079E+04  0.17200070637E+03 0.  0.
        -24    2    3    3    0    0  0.97493507966E+01 -0.17378708841E+02 -0.31220299898E+03  0.32278876242E+03  0.79528631381E+02 0.  0.
          6    2    1    2  501    0  0.10484638999E+03  0.60988353734E+02  0.10727505087E+03  0.23527573758E+03  0.17068799421E+03 0.  0.
         24    2    5    5    0    0  0.99150148962E+02  0.25628950079E+01  0.12044123176E+03  0.17493156049E+03  0.79105246844E+02 0.  0.
          5    1    5    5  501    0  0.56962410318E+01  0.58425458726E+02 -0.13166180888E+02  0.60344177088E+02  0.47000000000E+01 0. -1.
        -11    1    6    6    0    0 -0.37094505282E+01 -0.16485201151E+02  0.21702763047E+01  0.17036196156E+02  0.00000000000E+00 0.  1.
         12    1    6    6    0    0  0.10285959949E+03  0.19048096159E+02  0.11827095546E+03  0.15789536434E+03  0.00000000000E+00 0. -1.
         -5    1    3    3    0  503 -0.11459574079E+03 -0.43609644893E+02 -0.76576065491E+03  0.77552914552E+03  0.47000000000E+01 0.  1.
         11    1    4    4    0    0 -0.32942532119E+02 -0.98339752815E+01 -0.88893811341E+02  0.95310163083E+02  0.00000000000E+00 0. -1.
        -12    1    4    4    0    0  0.42691882915E+02 -0.75447335596E+01 -0.22330918764E+03  0.22747859933E+03  0.00000000000E+00 0.  1.
</event>
<event>
12    1  0.8226261E-002  0.2486398E+03  0.7818608E-02  0.1114328E+00
         21   -1    0    0  501  502  0.00000000000E+00  0.00000000000E+00  0.94891155227E+03  0.94891155227E+03  0.00000000000E+00 0.  1.
         21   -1    0    0  502  503 -0.00000000000E+00 -0.00000000000E+00 -0.69035659657E+02  0.69035659657E+02  0.00000000000E+00 0. -1.
         -6    2    1    2    0  503  0.16778204281E+03  0.62356373879E+02  0.31433600051E+03  0.40016318032E+03  0.17112661514E+03 0.  0.
        -24    2    3    3    0    0  0.15974409276E+03  0.96781827602E+02  0.22240489489E+03  0.30155720339E+03  0.81165955422E+02 0.  0.
          6    2    1    2  501    0 -0.16778204281E+03 -0.62356373879E+02  0.56553989210E+03  0.61778403161E+03  0.17257638570E+03 0.  0.
         24    2    5    5    0    0 -0.53844652133E+02 -0.80573882912E+02  0.38176621384E+03  0.40073919419E+03  0.73858395311E+02 0.  0.
          5    1    5    5  501    0 -0.11393739068E+03  0.18217509033E+02  0.18377367826E+03  0.21704483742E+03  0.47000000000E+01 0. -1.
        -13    1    6    6    0    0 -0.10930237366E+02  0.11924022170E+02  0.95371635962E+02  0.96733661874E+02  0.00000000000E+00 0.  1.
         14    1    6    6    0    0 -0.42914414767E+02 -0.92497905082E+02  0.28639457788E+03  0.30400553232E+03  0.00000000000E+00 0. -1.
         -5    1    3    3    0  503  0.80379500532E+01 -0.34425453723E+02  0.91931105620E+02  0.98605976926E+02  0.47000000000E+01 0.  1.
         13    1    4    4    0    0  0.14190648350E+03  0.45200934653E+02  0.15774934043E+03  0.21694568205E+03  0.00000000000E+00 0. -1.
        -14    1    4    4    0    0  0.17837609262E+02  0.51580892949E+02  0.64655554460E+02  0.84611521344E+02  0.00000000000E+00 0.  1.
</event>
<event>
12    1  0.8226261E-002  0.2492997E+03  0.7818608E-02  0.1113837E+00
         21   -1    0    0  501  502  0.00000000000E+00  0.00000000000E+00  0.45400384919E+03  0.45400384919E+03  0.00000000000E+00 0. -1.
         21   -1    0    0  502  503 -0.00000000000E+00 -0.00000000000E+00 -0.13721707287E+03  0.13721707287E+03  0.00000000000E+00 0.  1.
         -6    2    1    2    0  503  0.38039071636E+02  0.17512163771E+03  0.13816561451E+03  0.28453568267E+03  0.17250002525E+03 0.  0.
        -24    2    3    3    0    0  0.57078920772E+02  0.47613973636E+02  0.10317067975E+03  0.15086648011E+03  0.81187511223E+02 0.  0.
          6    2    1    2  501    0 -0.38039071636E+02 -0.17512163771E+03  0.17862116181E+03  0.30668523939E+03  0.17330827346E+03 0.  0.
         24    2    5    5    0    0 -0.85344523496E+02 -0.78849965905E+02  0.72212336203E+02  0.15551987056E+03  0.73964882369E+02 0.  0.
          5    1    5    5  501    0  0.47305451859E+02 -0.96271671808E+02  0.10640882561E+03  0.15116536884E+03  0.47000000000E+01 0. -1.
        -11    1    6    6    0    0 -0.18650589432E+02 -0.15270592709E+02 -0.15211248620E+02  0.28502939716E+02  0.00000000000E+00 0.  1.
         12    1    6    6    0    0 -0.66693934063E+02 -0.63579373196E+02  0.87423584822E+02  0.12701693084E+03  0.00000000000E+00 0. -1.
         -5    1    3    3    0  503 -0.19039849136E+02  0.12750766408E+03  0.34994934767E+02  0.13366920256E+03  0.47000000000E+01 0.  1.
         11    1    4    4    0    0  0.63402619893E+02  0.65397727007E+02  0.82802735205E+02  0.12309771673E+03  0.00000000000E+00 0. -1.
        -12    1    4    4    0    0 -0.63236991210E+01 -0.17783753371E+02  0.20367944541E+02  0.27768763375E+02  0.00000000000E+00 0.  1.
</event>
<event>
12    1  0.8226261E-002  0.2129104E+03  0.7818608E-02  0.1139284E+00
         21   -1    0    0  503  502  0.00000000000E+00  0.00000000000E+00  0.27735233820E+03  0.27735233820E+03  0.00000000000E+00 0. -1.
         21   -1    0    0  501  503 -0.00000000000E+00 -0.00000000000E+00 -0.17310582017E+03  0.17310582017E+03  0.00000000000E+00 0.  1.
          6    2    1    2  501    0 -0.86140489183E+02  0.91920428553E+02  0.10536644636E+03  0.23754477918E+03  0.17162716870E+03 0.  0.
         24    2    3    3    0    0  0.13172394357E+02  0.96233828518E+01  0.14611572857E+02  0.79765218930E+02  0.76699873657E+02 0.  0.
         -6    2    1    2    0  502  0.86140489183E+02 -0.91920428553E+02 -0.11199283425E+01  0.21291337918E+03  0.17164295422E+03 0.  0.
        -24    2    5    5    0    0  0.10954723924E+03 -0.40275903144E+02  0.35504140090E+02  0.14524916899E+03  0.78829126151E+02 0.  0.
          5    1    3    3  501    0 -0.99312883540E+02  0.82297045701E+02  0.90754873508E+02  0.15777956025E+03  0.47000000000E+01 0. -1.
        -11    1    4    4    0    0 -0.57121649529E+01  0.24929858073E+02 -0.23386876929E+02  0.34656495271E+02  0.00000000000E+00 0.  1.
         12    1    4    4    0    0  0.18884559310E+02 -0.15306475221E+02  0.37998449786E+02  0.45108723659E+02  0.00000000000E+00 0. -1.
         -5    1    5    5    0  502 -0.23406750054E+02 -0.51644525409E+02 -0.36624068433E+02  0.67664210195E+02  0.47000000000E+01 0.  1.
         11    1    6    6    0    0  0.60985549058E+02 -0.61628355364E+02  0.30725848812E+02  0.91985700867E+02  0.00000000000E+00 0. -1.
        -12    1    6    6    0    0  0.48561690180E+02  0.21352452219E+02  0.47782912783E+01  0.53263468122E+02  0.00000000000E+00 0.  1.
</event>
<event>
12    1  0.8226261E-002  0.2661971E+03  0.7818608E-02  0.1103788E+00
         21   -1    0    0  501  502  0.00000000000E+00  0.00000000000E+00  0.84966382283E+02  0.84966382283E+02  0.00000000000E+00 0.  1.
         21   -1    0    0  502  503 -0.00000000000E+00 -0.00000000000E+00 -0.19993203673E+04  0.19993203673E+04  0.00000000000E+00 0. -1.
         -6    2    1    2    0  503  0.12600783691E+03  0.15585113906E+03 -0.17534840314E+04  0.17732561496E+04  0.17194060378E+03 0.  0.
        -24    2    3    3    0    0  0.55240758134E+02  0.15929350478E+03 -0.14336741849E+04  0.14456584432E+04  0.77978868526E+02 0.  0.
          6    2    1    2  501    0 -0.12600783691E+03 -0.15585113906E+03 -0.16086995362E+03  0.31103059998E+03  0.17519514730E+03 0.  0.
         24    2    5    5    0    0 -0.12780567477E+03 -0.47455547354E+02 -0.88870703787E+02  0.18080457148E+03  0.78777989308E+02 0.  0.
          5    1    5    5  501    0  0.17978378565E+01 -0.10839559171E+03 -0.71999249838E+02  0.13022602850E+03  0.47000000000E+01 0. -1.
        -11    1    6    6    0    0 -0.94197282406E+02 -0.47803561247E+02 -0.24878776163E+02  0.10852309424E+03  0.00000000000E+00 0.  1.
         12    1    6    6    0    0 -0.33608392361E+02  0.34801389279E+00 -0.63991927624E+02  0.72281477238E+02  0.00000000000E+00 0. -1.
         -5    1    3    3    0  503  0.70767078775E+02 -0.34423657166E+01 -0.31980984645E+03  0.32759770635E+03  0.47000000000E+01 0.  1.
         11    1    4    4    0    0  0.72143851423E+02  0.10173257797E+03 -0.10371839740E+04  0.10446553731E+04  0.00000000000E+00 0. -1.
        -12    1    4    4    0    0 -0.16903093288E+02  0.57560926810E+02 -0.39649021094E+03  0.40100307010E+03  0.00000000000E+00 0.  1.
</event>
<event>
12    1  0.8226261E-002  0.1779517E+03  0.7818608E-02  0.1169805E+00
         21   -1    0    0  503  502  0.00000000000E+00  0.00000000000E+00  0.28880713777E+03  0.28880713777E+03  0.00000000000E+00 0. -1.
         21   -1    0    0  501  503 -0.00000000000E+00 -0.00000000000E+00 -0.19073765286E+03  0.19073765286E+03  0.00000000000E+00 0.  1.
          6    2    1    2  501    0 -0.42956074807E+02 -0.23140779719E+02 -0.10731376938E+03  0.20780533292E+03  0.17113179495E+03 0.  0.
         24    2    3    3    0    0 -0.45608718178E+01  0.50672741115E+02 -0.49832973462E+02  0.10656917649E+03  0.79278848939E+02 0.  0.
         -6    2    1    2    0  502  0.42956074807E+02  0.23140779719E+02  0.20538325429E+03  0.27173945771E+03  0.17111204425E+03 0.  0.
        -24    2    5    5    0    0  0.69971607508E+02  0.32402543399E+02  0.21405771473E+03  0.24152430361E+03  0.81039085165E+02 0.  0.
          5    1    3    3  501    0 -0.38395202989E+02 -0.73813520834E+02 -0.57480795918E+02  0.10123615644E+03  0.47000000000E+01 0. -1.
        -13    1    4    4    0    0  0.82556179232E+00 -0.15678220673E+02 -0.35010689199E+02  0.38369734348E+02  0.00000000000E+00 0.  1.
         14    1    4    4    0    0 -0.53864336101E+01  0.66350961788E+02 -0.14822284262E+02  0.68199442138E+02  0.00000000000E+00 0. -1.
         -5    1    5    5    0  502 -0.27015532701E+02 -0.92617636800E+01 -0.86744604359E+01  0.30215154103E+02  0.47000000000E+01 0.  1.
         13    1    6    6    0    0 -0.19528479996E+01 -0.18129796586E+01 -0.65004483889E+01  0.70254067361E+01  0.00000000000E+00 0. -1.
        -14    1    6    6    0    0  0.71924455508E+02  0.34215523057E+02  0.22055816312E+03  0.23449889687E+03  0.00000000000E+00 0.  1.
</event>
<event>
12    1  0.8226261E-002  0.1947246E+03  0.7818608E-02  0.1154286E+00
         21   -1    0    0  503  502  0.00000000000E+00  0.00000000000E+00  0.15403766089E+04  0.15403766089E+04  0.00000000000E+00 0.  1.
         21   -1    0    0  501  503 -0.00000000000E+00 -0.00000000000E+00 -0.42891828238E+02  0.42891828238E+02  0.00000000000E+00 0.  1.
          6    2    1    2  501    0 -0.90236194239E+02  0.14789003512E+02  0.23174875886E+03  0.30264149625E+03  0.17182288161E+03 0.  0.
         24    2    3    3    0    0 -0.11825771381E+03  0.41917525440E+02  0.14374878802E+03  0.20627113188E+03  0.78371550806E+02 0.  0.
         -6    2    1    2    0  502  0.90236194239E+02 -0.14789003512E+02  0.12657360218E+04  0.12806269409E+04  0.17191974713E+03 0.  0.
        -24    2    5    5    0    0  0.59747447696E+02  0.42244718325E+02  0.10486531570E+04  0.10540668622E+04  0.77647488248E+02 0.  0.
          5    1    3    3  501    0  0.28021519574E+02 -0.27128521927E+02  0.87999970838E+02  0.96370364370E+02  0.47000000000E+01 0. -1.
        -13    1    4    4    0    0 -0.48172524817E+01  0.10065596377E+02 -0.83032560244E+01  0.13909213224E+02  0.00000000000E+00 0.  1.
         14    1    4    4    0    0 -0.11344046133E+03  0.31851929063E+02  0.15205204405E+03  0.19236191866E+03  0.00000000000E+00 0. -1.
         -5    1    5    5    0  502  0.30488746543E+02 -0.57033721838E+02  0.21708286482E+03  0.22656007876E+03  0.47000000000E+01 0.  1.
         13    1    6    6    0    0 -0.51585480901E+01 -0.80377925018E+01  0.20226467464E+02  0.22367984102E+02  0.00000000000E+00 0. -1.
        -14    1    6    6    0    0  0.64905995786E+02  0.50282510827E+02  0.10284266896E+04  0.10316988781E+04  0.00000000000E+00 0.  1.
</event>
<event>
12    1  0.8226261E-002  0.1895544E+03  0.7818608E-02  0.1158978E+00
         21   -1    0    0  501  502  0.00000000000E+00  0.00000000000E+00  0.10187523635E+04  0.10187523635E+04  0.00000000000E+00 0. -1.
         21   -1    0    0  502  503 -0.00000000000E+00 -0.00000000000E+00 -0.37781608771E+02  0.37781608771E+02  0.00000000000E+00 0. -1.
         -6    2    1    2    0  503  0.67227779446E+02 -0.42514950964E+02  0.35113674930E+03  0.39879409082E+03  0.17150106348E+03 0.  0.
        -24    2    3    3    0    0  0.74215525702E+02  0.58744017990E+01  0.32173821946E+03  0.34155143526E+03  0.87174814106E+02 0.  0.
          6    2    1    2  501    0 -0.67227779446E+02  0.42514950964E+02  0.62983400544E+03  0.65773988147E+03  0.17205749585E+03 0.  0.
         24    2    5    5    0    0 -0.32640575586E+02  0.42330344894E+02  0.15965739367E+03  0.18626936806E+03  0.79677655917E+02 0.  0.
          5    1    5    5  501    0 -0.34587203860E+02  0.18460607058E+00  0.47017661178E+03  0.47147051341E+03  0.47000000000E+01 0. -1.
        -13    1    6    6    0    0  0.15373746490E+02  0.16387533420E+02  0.11068692089E+03  0.11294466693E+03  0.00000000000E+00 0.  1.
         14    1    6    6    0    0 -0.48014322076E+02  0.25942811474E+02  0.48970472777E+02  0.73324701129E+02  0.00000000000E+00 0. -1.
         -5    1    3    3    0  503 -0.69877462559E+01 -0.48389352763E+02  0.29398529842E+02  0.57242655559E+02  0.47000000000E+01 0.  1.
         13    1    4    4    0    0  0.84279689303E+02 -0.18770830156E+02  0.21864666564E+03  0.23507823058E+03  0.00000000000E+00 0. -1.
        -14    1    4    4    0    0 -0.10064163601E+02  0.24645231955E+02  0.10309155382E+03  0.10647320468E+03  0.00000000000E+00 0.  1.
</event>
<event>
12    1  0.8226261E-002  0.1922916E+03  0.7818608E-02  0.1156710E+00
         21   -1    0    0  503  502  0.00000000000E+00  0.00000000000E+00  0.13579251015E+03  0.13579251015E+03  0.00000000000E+00 0.  1.
         21   -1    0    0  501  503 -0.00000000000E+00 -0.00000000000E+00 -0.29808140349E+03  0.29808140349E+03  0.00000000000E+00 0.  1.
          6    2    1    2  501    0  0.31660607297E+02  0.76335497733E+02 -0.15290334399E+02  0.19289853193E+03  0.17362761020E+03 0.  0.
         24    2    3    3    0    0  0.78454201133E+02  0.45929559146E+01 -0.46311828925E+01  0.10645583275E+03  0.71660585758E+02 0.  0.
         -6    2    1    2    0  502 -0.31660607297E+02 -0.76335497733E+02 -0.14699855894E+03  0.24097538172E+03  0.17213673634E+03 0.  0.
        -24    2    5    5    0    0  0.38770368836E+02 -0.77784244445E+02 -0.79255664757E+02  0.14312952857E+03  0.81554100875E+02 0.  0.
          5    1    3    3  501    0 -0.46793593835E+02  0.71742541818E+02 -0.10659151507E+02  0.86442699179E+02  0.47000000000E+01 0. -1.
        -11    1    4    4    0    0  0.14481105469E+01  0.23744367385E+02 -0.12216984165E+02  0.26742227072E+02  0.00000000000E+00 0.  1.
         12    1    4    4    0    0  0.77006090586E+02 -0.19151411470E+02  0.75858012721E+01  0.79713605674E+02  0.00000000000E+00 0. -1.
         -5    1    5    5    0  502 -0.70430976134E+02  0.14487467120E+01 -0.67742894183E+02  0.97845853149E+02  0.47000000000E+01 0.  1.
         11    1    6    6    0    0  0.11661195803E+02 -0.30441653654E+02  0.13689498940E+02  0.35356472477E+02  0.00000000000E+00 0. -1.
        -12    1    6    6    0    0  0.27109173033E+02 -0.47342590791E+02 -0.92945163697E+02  0.10777305609E+03  0.00000000000E+00 0.  1.
</event>
<event>
12    1  0.8226261E-002  0.1877095E+03  0.7818608E-02  0.1160725E+00
         21   -1    0    0  503  502  0.00000000000E+00  0.00000000000E+00  0.11516073791E+03  0.11516073791E+03  0.00000000000E+00 0. -1.
         21   -1    0    0  501  503 -0.00000000000E+00 -0.00000000000E+00 -0.45541011039E+03  0.45541011039E+03  0.00000000000E+00 0.  1.
          6    2    1    2  501    0 -0.48540422880E+02 -0.56379165159E+02 -0.33401405548E+03  0.38275781374E+03  0.17147411410E+03 0.  0.
         24    2    3    3    0    0 -0.47508056610E+02 -0.77021264199E+02 -0.33947493818E+03  0.36087007122E+03  0.82429873627E+02 0.  0.
         -6    2    1    2    0  502  0.48540422880E+02  0.56379165159E+02 -0.62353170038E+01  0.18781303455E+03  0.17233709366E+03 0.  0.
        -24    2    5    5    0    0 -0.33524620154E+01  0.92687716178E+02 -0.13821212342E+02  0.12385353027E+03  0.80909945726E+02 0.  0.
          5    1    3    3  501    0 -0.10323662695E+01  0.20642099040E+02  0.54608827043E+01  0.21887742524E+02  0.47000000000E+01 0. -1.
        -13    1    4    4    0    0  0.13491733586E+02  0.94533902278E+01 -0.51190043354E+02  0.53775589263E+02  0.00000000000E+00 0.  1.
         14    1    4    4    0    0 -0.60999790196E+02 -0.86474654426E+02 -0.28828489483E+03  0.30709448196E+03  0.00000000000E+00 0. -1.
         -5    1    5    5    0  502  0.51892884895E+02 -0.36308551019E+02  0.75858953382E+01  0.63959504281E+02  0.47000000000E+01 0.  1.
         11    1    6    6    0    0 -0.15955750344E+02 -0.42341702699E+01  0.14630955413E+02  0.22058536289E+02  0.00000000000E+00 0. -1.
        -12    1    6    6    0    0  0.12603288329E+02  0.96921886447E+02 -0.28452167755E+02  0.10179499398E+03  0.00000000000E+00 0.  1.
</event>
<event>
12    1  0.8226261E-002  0.2087676E+03  0.7818608E-02  0.1142682E+00
         21   -1    0    0  501  502  0.00000000000E+00  0.00000000000E+00  0.15703488219E+04  0.15703488219E+04  0.00000000000E+00 0. -1.
         21   -1    0    0  502  503 -0.00000000000E+00 -0.00000000000E+00 -0.30989577042E+02  0.30989577042E+02  0.00000000000E+00 0. -1.
         -6    2    1    2    0  503 -0.11712968847E+03 -0.13636300324E+02  0.50850452702E+03  0.54969150219E+03  0.17227472526E+03 0.  0.
        -24    2    3    3    0    0 -0.13583674571E+03  0.14540003157E+01  0.49846779089E+03  0.52322459386E+03  0.82704905919E+02 0.  0.
          6    2    1    2  501    0  0.11712968847E+03  0.13636300324E+02  0.10308547178E+04  0.10516468967E+04  0.17144804917E+03 0.  0.
         24    2    5    5    0    0  0.98202882423E+02 -0.29995503534E+02  0.94419442463E+03  0.95268198018E+03  0.74540643283E+02 0.  0.
          5    1    5    5  501    0  0.18926806046E+02  0.43631803858E+02  0.86660293195E+02  0.98964916570E+02  0.47000000000E+01 0. -1.
        -11    1    6    6    0    0  0.49767317608E+02  0.59558192083E+01  0.67282741737E+03  0.67469177500E+03  0.00000000000E+00 0.  1.
         12    1    6    6    0    0  0.48435564815E+02 -0.35951322742E+02  0.27136700726E+03  0.27799020517E+03  0.00000000000E+00 0. -1.
         -5    1    3    3    0  503  0.18707057245E+02 -0.15090300640E+02  0.10036736135E+02  0.26466908327E+02  0.47000000000E+01 0.  1.
         13    1    4    4    0    0 -0.86802503671E+02  0.14055655725E+02  0.42500356406E+03  0.43400491422E+03  0.00000000000E+00 0. -1.
        -14    1    4    4    0    0 -0.49034242043E+02 -0.12601655410E+02  0.73464226825E+02  0.89219679638E+02  0.00000000000E+00 0.  1.
</event>
<event>
12    1  0.8226261E-002  0.2033769E+03  0.7818608E-02  0.1146970E+00
         21   -1    0    0  503  502  0.00000000000E+00  0.00000000000E+00  0.84514824885E+03  0.84514824885E+03  0.00000000000E+00 0.  1.
         21   -1    0    0  501  503 -0.00000000000E+00 -0.00000000000E+00 -0.49592766008E+02  0.49592766008E+02  0.00000000000E+00 0.  1.
          6    2    1    2  501    0  0.91490202655E+02  0.59508982311E+02  0.34403779222E+03  0.39953360855E+03  0.17132812297E+03 0.  0.
         24    2    3    3    0    0  0.42265454022E+01  0.69188140287E+02  0.24412895288E+03  0.26644529893E+03  0.81174437155E+02 0.  0.
         -6    2    1    2    0  502 -0.91490202655E+02 -0.59508982311E+02  0.45151769062E+03  0.49520740632E+03  0.17161111318E+03 0.  0.
        -24    2    5    5    0    0 -0.56178812184E+02  0.30319406478E+02  0.18089835955E+03  0.20785231922E+03  0.80019027552E+02 0.  0.
          5    1    3    3  501    0  0.87263657253E+02 -0.96791579762E+01  0.99908839344E+02  0.13308830961E+03  0.47000000000E+01 0. -1.
        -13    1    4    4    0    0 -0.18349588371E+02  0.32332559391E+02  0.20435385529E+03  0.20770796798E+03  0.00000000000E+00 0.  1.
         14    1    4    4    0    0  0.22576133773E+02  0.36855580895E+02  0.39775097587E+02  0.58737330952E+02  0.00000000000E+00 0. -1.
         -5    1    5    5    0  502 -0.35311390472E+02 -0.89828388789E+02  0.27061933107E+03  0.28735508709E+03  0.47000000000E+01 0.  1.
         13    1    6    6    0    0 -0.70406669210E+02  0.15867376190E+02  0.93407173800E+02  0.11804140296E+03  0.00000000000E+00 0. -1.
        -14    1    6    6    0    0  0.14227857027E+02  0.14452030288E+02  0.87491185753E+02  0.89810916260E+02  0.00000000000E+00 0.  1.
</event>
<event>
12    1  0.8226261E-002  0.2028370E+03  0.7818608E-02  0.1147392E+00
         21   -1    0    0  501  502  0.00000000000E+00  0.00000000000E+00  0.13488431500E+03  0.13488431500E+03  0.00000000000E+00 0. -1.
         21   -1    0    0  502  503 -0.00000000000E+00 -0.00000000000E+00 -0.30585651784E+03  0.30585651784E+03  0.00000000000E+00 0.  1.
         -6    2    1    2    0  503 -0.88507398299E+02  0.62579593046E+02 -0.98153313126E+02  0.22522883204E+03  0.17130145617E+03 0.  0.
        -24    2    3    3    0    0 -0.29455768018E+02  0.17485844865E+02  0.16665012695E+02  0.88386298053E+02  0.79755990340E+02 0.  0.
          6    2    1    2  501    0  0.88507398299E+02 -0.62579593046E+02 -0.72818889707E+02  0.21551200080E+03  0.17144406310E+03 0.  0.
         24    2    5    5    0    0  0.48902021870E+02  0.15676909305E+02 -0.84350950674E+02  0.12692450489E+03  0.79734395544E+02 0.  0.
          5    1    5    5  501    0  0.39605376429E+02 -0.78256502350E+02  0.11532060967E+02  0.88587495914E+02  0.47000000000E+01 0. -1.
        -11    1    6    6    0    0  0.69792178606E+02  0.14542323262E+02 -0.76526136160E+02  0.10458812971E+03  0.00000000000E+00 0.  1.
         12    1    6    6    0    0 -0.20890156735E+02  0.11345860429E+01 -0.78248145140E+01  0.22336375178E+02  0.00000000000E+00 0. -1.
         -5    1    3    3    0  503 -0.59051630281E+02  0.45093748181E+02 -0.11481832582E+03  0.13684253399E+03  0.47000000000E+01 0.  1.
         11    1    4    4    0    0 -0.13022621292E+02 -0.31868652268E+02  0.10565435066E+02  0.36011499286E+02  0.00000000000E+00 0. -1.
        -12    1    4    4    0    0 -0.16433146726E+02  0.49354497133E+02  0.60995776292E+01  0.52374798766E+02  0.00000000000E+00 0.  1.
</event>
<event>
12    1  0.8226261E-002  0.1949739E+03  0.7818608E-02  0.1154310E+00
         21   -1    0    0  503  502  0.00000000000E+00  0.00000000000E+00  0.65824197231E+03  0.65824197231E+03  0.00000000000E+00 0.  1.
         21   -1    0    0  501  503 -0.00000000000E+00 -0.00000000000E+00 -0.15910904980E+03  0.15910904980E+03  0.00000000000E+00 0.  1.
          6    2    1    2  501    0 -0.85472682362E+02  0.26332512259E+02 -0.76903701897E+02  0.20959249000E+03  0.17325083512E+03 0.  0.
         24    2    3    3    0    0 -0.82226351909E+02 -0.25393625862E+02 -0.98022427929E+02  0.15343002375E+03  0.80785930883E+02 0.  0.
         -6    2    1    2    0  502  0.85472682362E+02 -0.26332512259E+02  0.57603662440E+03  0.60775853210E+03  0.17191061648E+03 0.  0.
        -24    2    5    5    0    0  0.22243004361E+02  0.93516530028E+01  0.10067042527E+03  0.12685681126E+03  0.73320606805E+02 0.  0.
          5    1    3    3  501    0 -0.32463304530E+01  0.51726138121E+02  0.21118726032E+02  0.56162466252E+02  0.47000000000E+01 0. -1.
        -13    1    4    4    0    0  0.71349276179E+01  0.64160722169E+01 -0.42395843040E+02  0.43468157102E+02  0.00000000000E+00 0.  1.
         14    1    4    4    0    0 -0.89361279527E+02 -0.31809698079E+02 -0.55626584889E+02  0.10996186665E+03  0.00000000000E+00 0. -1.
         -5    1    5    5    0  502  0.63229678001E+02 -0.35684165262E+02  0.47536619913E+03  0.48090172084E+03  0.47000000000E+01 0.  1.
         13    1    6    6    0    0 -0.15613568597E+02  0.27895134507E+02  0.61503647518E+02  0.69315371394E+02  0.00000000000E+00 0. -1.
        -14    1    6    6    0    0  0.37856572958E+02 -0.18543481504E+02  0.39166777753E+02  0.57541439867E+02  0.00000000000E+00 0.  1.
</event>
<event>
12    1  0.8226261E-002  0.2254303E+03  0.7818608E-02  0.1129921E+00
         21   -1    0    0  501  502  0.00000000000E+00  0.00000000000E+00  0.28941479799E+03  0.28941479799E+03  0.00000000000E+00 0.  1.
         21   -1    0    0  502  503 -0.00000000000E+00 -0.00000000000E+00 -0.24557623657E+03  0.24557623657E+03  0.00000000000E+00 0. -1.
         -6    2    1    2    0  503 -0.10232399008E+03 -0.10332626326E+03 -0.12097411032E+03  0.25583893734E+03  0.17225652634E+03 0.  0.
        -24    2    3    3    0    0 -0.15059743220E+01 -0.86342838275E+02 -0.13109641256E+02  0.10714615771E+03  0.62057092578E+02 0.  0.
          6    2    1    2  501    0  0.10232399008E+03  0.10332626326E+03  0.16481267175E+03  0.27915209722E+03  0.17209346584E+03 0.  0.
         24    2    5    5    0    0  0.12043941667E+03  0.38443198325E+02  0.14376517639E+03  0.20841972940E+03  0.82382189071E+02 0.  0.
          5    1    5    5  501    0 -0.18115426589E+02  0.64883064935E+02  0.21047495363E+02  0.70732367817E+02  0.47000000000E+01 0. -1.
        -11    1    6    6    0    0  0.58450636635E+02 -0.22187009397E+01  0.15896299692E+02  0.60614287927E+02  0.00000000000E+00 0.  1.
         12    1    6    6    0    0  0.61988780035E+02  0.40661899265E+02  0.12786887669E+03  0.14780544147E+03  0.00000000000E+00 0. -1.
         -5    1    3    3    0  503 -0.10081801576E+03 -0.16983424985E+02 -0.10786446907E+03  0.14869277963E+03  0.47000000000E+01 0.  1.
         13    1    4    4    0    0  0.16465568188E+02 -0.47366983533E+02  0.18914568665E+02  0.53595773831E+02  0.00000000000E+00 0. -1.
        -14    1    4    4    0    0 -0.17971542510E+02 -0.38975854742E+02 -0.32024209920E+02  0.53550383884E+02  0.00000000000E+00 0.  1.
</event>
<event>
12    1  0.8226261E-002  0.1925324E+03  0.7818608E-02  0.1157600E+00
         21   -1    0    0  503  502  0.00000000000E+00  0.00000000000E+00  0.96386874665E+03  0.96386874665E+03  0.00000000000E+00 0.  1.
         21   -1    0    0  501  503 -0.00000000000E+00 -0.00000000000E+00 -0.37279504698E+02  0.37279504698E+02  0.00000000000E+00 0.  1.
          6    2    1    2  501    0  0.84380753797E+02 -0.87211134233E+01  0.47468609860E+03  0.50994038567E+03  0.16587988217E+03 0.  0.
         24    2    3    3    0    0  0.18454668017E+02 -0.57416090222E+02  0.21246877379E+03  0.23517236537E+03  0.80782915341E+02 0.  0.
         -6    2    1    2    0  502 -0.84380753797E+02  0.87211134233E+01  0.45190314336E+03  0.49120786568E+03  0.17283676372E+03 0.  0.
        -24    2    5    5    0    0 -0.86383288778E+01 -0.30674313512E+01  0.91886168402E+02  0.12309076885E+03  0.81389431569E+02 0.  0.
          5    1    3    3  501    0  0.65926085780E+02  0.48694976799E+02  0.26221732480E+03  0.27476802030E+03  0.47000000000E+01 0. -1.
        -11    1    4    4    0    0  0.30297743639E+02 -0.49778204010E+02  0.21323979345E+03  0.22105888893E+03  0.00000000000E+00 0.  1.
         12    1    4    4    0    0 -0.11843075622E+02 -0.76378862119E+01 -0.77101966008E+00  0.14113476443E+02  0.00000000000E+00 0. -1.
         -5    1    5    5    0  502 -0.75742424919E+02  0.11788544774E+02  0.36001697496E+03  0.36811709683E+03  0.47000000000E+01 0.  1.
         11    1    6    6    0    0 -0.32079432230E+02 -0.19011270234E+02  0.86552986251E+02  0.94244033218E+02  0.00000000000E+00 0. -1.
        -12    1    6    6    0    0  0.23441103352E+02  0.15943838883E+02  0.53331821505E+01  0.28846735630E+02  0.00000000000E+00 0.  1.
</event>
<event>
12    1  0.8226261E-002  0.1813192E+03  0.7818608E-02  0.1166644E+00
         21   -1    0    0  501  502  0.00000000000E+00  0.00000000000E+00  0.10023596726E+04  0.10023596726E+04  0.00000000000E+00 0.  1.
         21   -1    0    0  502  503 -0.00000000000E+00 -0.00000000000E+00 -0.52391183487E+02  0.52391183487E+02  0.00000000000E+00 0.  1.
         -6    2    1    2    0  503  0.53330495976E+02 -0.22029074122E+02  0.15217480099E+03  0.23671464038E+03  0.17189307434E+03 0.  0.
        -24    2    3    3    0    0  0.35148970631E+02 -0.54191843745E+02  0.16703097073E+03  0.19661716673E+03  0.81158850449E+02 0.  0.
          6    2    1    2  501    0 -0.53330495976E+02  0.22029074122E+02  0.79779368817E+03  0.81803621576E+03  0.17140320738E+03 0.  0.
         24    2    5    5    0    0  0.26738908374E+02 -0.19584204170E+02  0.46338702696E+03  0.47163662063E+03  0.81332987719E+02 0.  0.
          5    1    5    5  501    0 -0.80069404350E+02  0.41613278292E+02  0.33440666121E+03  0.34639959513E+03  0.47000000000E+01 0. -1.
        -13    1    6    6    0    0  0.42918667538E+02  0.73881881185E+01  0.13742059338E+03  0.14415622371E+03  0.00000000000E+00 0.  1.
         14    1    6    6    0    0 -0.16179759164E+02 -0.26972392289E+02  0.32596643358E+03  0.32748039693E+03  0.00000000000E+00 0. -1.
         -5    1    3    3    0  503  0.18181525344E+02  0.32162769623E+02 -0.14856169734E+02  0.40097473647E+02  0.47000000000E+01 0.  1.
         11    1    4    4    0    0  0.33516023820E+01 -0.17470825033E+02  0.13980589020E+03  0.14093313983E+03  0.00000000000E+00 0. -1.
        -12    1    4    4    0    0  0.31797368249E+02 -0.36721018712E+02  0.27225080527E+02  0.55684026906E+02  0.00000000000E+00 0.  1.
</event>
<event>
12    1  0.8226261E-002  0.2277357E+03  0.7818608E-02  0.1128403E+00
         21   -1    0    0  501  502  0.00000000000E+00  0.00000000000E+00  0.78645094888E+02  0.78645094888E+02  0.00000000000E+00 0.  1.
         21   -1    0    0  502  503 -0.00000000000E+00 -0.00000000000E+00 -0.68097066696E+03  0.68097066696E+03  0.00000000000E+00 0. -1.
         -6    2    1    2    0  503 -0.69317282312E+01 -0.14763384511E+03 -0.22915103270E+03  0.32243984296E+03  0.17208560503E+03 0.  0.
        -24    2    3    3    0    0 -0.23884330325E+02 -0.15477121304E+02 -0.13611276066E+03  0.15986370562E+03  0.78865190306E+02 0.  0.
          6    2    1    2  501    0  0.69317282312E+01  0.14763384511E+03 -0.37317453937E+03  0.43717591889E+03  0.17326207360E+03 0.  0.
         24    2    5    5    0    0 -0.43937408854E+02  0.14940702599E+03 -0.30858800044E+03  0.35480890918E+03  0.80061555727E+02 0.  0.
          5    1    5    5  501    0  0.50869137085E+02 -0.17731808799E+01 -0.64586538930E+02  0.82367009713E+02  0.47000000000E+01 0. -1.
        -11    1    6    6    0    0 -0.60051289920E+02  0.84604761091E+02 -0.22542979443E+03  0.24815864933E+03  0.00000000000E+00 0.  1.
         12    1    6    6    0    0  0.16113881066E+02  0.64802264902E+02 -0.83158206008E+02  0.10665025985E+03  0.00000000000E+00 0. -1.
         -5    1    3    3    0  503  0.16952602094E+02 -0.13215672381E+03 -0.93038272047E+02  0.16257613734E+03  0.47000000000E+01 0.  1.
         13    1    4    4    0    0 -0.32869305295E+02 -0.43000810507E+02 -0.98583083925E+02  0.11246370691E+03  0.00000000000E+00 0. -1.
        -14    1    4    4    0    0  0.89849749702E+01  0.27523689202E+02 -0.37529676732E+02  0.47399998715E+02  0.00000000000E+00 0.  1.
</event>
<event>
12    1  0.8226261E-002  0.1878728E+03  0.7818608E-02  0.1160552E+00
         21   -1    0    0  503  502  0.00000000000E+00  0.00000000000E+00  0.74688328045E+03  0.74688328045E+03  0.00000000000E+00 0.  1.
         21   -1    0    0  501  503 -0.00000000000E+00 -0.00000000000E+00 -0.47576107974E+02  0.47576107974E+02  0.00000000000E+00 0.  1.
          6    2    1    2  501    0  0.70294837876E+02  0.14855019997E+02  0.30866746361E+03  0.36099017811E+03  0.17284753326E+03 0.  0.
         24    2    3    3    0    0  0.10604076519E+03  0.37729943698E+02  0.27205816642E+03  0.30474638651E+03  0.78654444494E+02 0.  0.
         -6    2    1    2    0  502 -0.70294837876E+02 -0.14855019997E+02  0.39063970887E+03  0.43346921031E+03  0.17359187277E+03 0.  0.
        -24    2    5    5    0    0 -0.10579209866E+03 -0.37725058721E+02  0.34518006961E+03  0.37124571799E+03  0.77839286210E+02 0.  0.
          5    1    3    3  501    0 -0.35745927314E+02 -0.22874923701E+02  0.36609297182E+02  0.56243791604E+02  0.47000000000E+01 0. -1.
        -11    1    4    4    0    0  0.54189752102E+02  0.21603216826E+02  0.52200612068E+02  0.78282386974E+02  0.00000000000E+00 0.  1.
         12    1    4    4    0    0  0.51851013089E+02  0.16126726872E+02  0.21985755436E+03  0.22646399953E+03  0.00000000000E+00 0. -1.
         -5    1    5    5    0  502  0.35497260786E+02  0.22870038725E+02  0.45459639259E+02  0.62223492317E+02  0.47000000000E+01 0.  1.
         11    1    6    6    0    0 -0.67388243486E+01 -0.57458729697E+01 -0.17591096218E+01  0.90289133591E+01  0.00000000000E+00 0. -1.
        -12    1    6    6    0    0 -0.99053274313E+02 -0.31979185752E+02  0.34693917923E+03  0.36221680463E+03  0.00000000000E+00 0.  1.
</event>
<event>
12    1  0.8226261E-002  0.2457584E+03  0.7818608E-02  0.1118053E+00
         21   -1    0    0  501  502  0.00000000000E+00  0.00000000000E+00  0.12792464364E+04  0.12792464364E+04  0.00000000000E+00 0.  1.
         21   -1    0    0  502  503 -0.00000000000E+00 -0.00000000000E+00 -0.52580272405E+02  0.52580272405E+02  0.00000000000E+00 0.  1.
         -6    2    1    2    0  503  0.58110646209E+02  0.14708766868E+03  0.88142880398E+03  0.91504860469E+03  0.18811056053E+03 0.  0.
        -24    2    3    3    0    0 -0.32497063824E+02  0.74729305082E+02  0.27539448564E+03  0.29800308375E+03  0.79518469629E+02 0.  0.
          6    2    1    2  501    0 -0.58110646209E+02 -0.14708766868E+03  0.34523736003E+03  0.41677810413E+03  0.17176589837E+03 0.  0.
         24    2    5    5    0    0 -0.22550797149E+02 -0.14714757855E+01  0.78909052362E+02  0.11112890004E+03  0.74915219986E+02 0.  0.
          5    1    5    5  501    0 -0.35559849061E+02 -0.14561619289E+03  0.26632830767E+03  0.30564920410E+03  0.47000000000E+01 0. -1.
        -13    1    6    6    0    0  0.23859410195E+02 -0.16346048580E+02  0.22938695679E+02  0.36914069384E+02  0.00000000000E+00 0.  1.
         14    1    6    6    0    0 -0.46410207344E+02  0.14874572795E+02  0.55970356683E+02  0.74214830652E+02  0.00000000000E+00 0. -1.
         -5    1    3    3    0  503  0.90607710033E+02  0.72358363594E+02  0.60603431834E+03  0.61704552094E+03  0.47000000000E+01 0.  1.
         11    1    4    4    0    0  0.40332976838E+01 -0.13153148416E+02  0.73811753767E+02  0.75082939458E+02  0.00000000000E+00 0. -1.
        -12    1    4    4    0    0 -0.36530361508E+02  0.87882453498E+02  0.20158273187E+03  0.22292014430E+03  0.00000000000E+00 0.  1.
</event>
<event>
12    1  0.8226261E-002  0.1936471E+03  0.7818608E-02  0.1155494E+00
         21   -1    0    0  501  502  0.00000000000E+00  0.00000000000E+00  0.13103263461E+03  0.13103263461E+03  0.00000000000E+00 0. -1.
         21   -1    0    0  502  503 -0.00000000000E+00 -0.00000000000E+00 -0.48493337477E+03  0.48493337477E+03  0.00000000000E+00 0. -1.
         -6    2    1    2    0  503 -0.36637566188E+02  0.82790942378E+02 -0.37539155469E+03  0.42239556974E+03  0.17117986624E+03 0.  0.
        -24    2    3    3    0    0 -0.80444797399E+02  0.18156418816E+02 -0.22670393333E+03  0.25438725480E+03  0.80729059488E+02 0.  0.
          6    2    1    2  501    0  0.36637566188E+02 -0.82790942378E+02  0.21490814533E+02  0.19357043964E+03  0.16973805877E+03 0.  0.
         24    2    5    5    0    0 -0.30486714975E+02 -0.40586631014E+02 -0.28036633064E+02  0.99965252361E+02  0.81426558806E+02 0.  0.
          5    1    5    5  501    0  0.67124281162E+02 -0.42204311364E+02  0.49527447597E+02  0.93605187275E+02  0.47000000000E+01 0. -1.
        -13    1    6    6    0    0 -0.25899569650E+02 -0.17312007332E+02  0.26239836025E+02  0.40731097463E+02  0.00000000000E+00 0.  1.
         14    1    6    6    0    0 -0.45871453250E+01 -0.23274623682E+02 -0.54276469089E+02  0.59234154898E+02  0.00000000000E+00 0. -1.
         -5    1    3    3    0  503  0.43807231211E+02  0.64634523562E+02 -0.14868762136E+03  0.16800831494E+03  0.47000000000E+01 0.  1.
         11    1    4    4    0    0 -0.29037376251E+02 -0.16074927184E+02 -0.16030453250E+03  0.16370435438E+03  0.00000000000E+00 0. -1.
        -12    1    4    4    0    0 -0.51407421148E+02  0.34231345999E+02 -0.66399400828E+02  0.90682900419E+02  0.00000000000E+00 0.  1.
</event>
<event>
12    1  0.8226261E-002  0.2133673E+03  0.7818608E-02  0.1138987E+00
         21   -1    0    0  501  502  0.00000000000E+00  0.00000000000E+00  0.34195103840E+03  0.34195103840E+03  0.00000000000E+00 0.  1.
         21   -1    0    0  502  503 -0.00000000000E+00 -0.00000000000E+00 -0.13561018672E+03  0.13561018672E+03  0.00000000000E+00 0. -1.
         -6    2    1    2    0  503  0.74009848773E+01 -0.12619778158E+03  0.13660207365E+03  0.25308602926E+03  0.17149856277E+03 0.  0.
        -24    2    3    3    0    0  0.11903234464E+02 -0.23064903436E+02  0.10340601776E+02  0.89927486478E+02  0.85477178346E+02 0.  0.
          6    2    1    2  501    0 -0.74009848773E+01  0.12619778158E+03  0.69738778033E+02  0.22447519586E+03  0.17188647923E+03 0.  0.
         24    2    5    5    0    0 -0.65408332269E+02  0.10931608105E+03  0.63848570871E+02  0.16359310732E+03  0.80360495617E+02 0.  0.
          5    1    5    5  501    0  0.58007347391E+02  0.16881700528E+02  0.58902071620E+01  0.60882088536E+02  0.47000000000E+01 0. -1.
        -13    1    6    6    0    0 -0.25581296479E+02 -0.16640077644E+01  0.32864102479E+02  0.41679981804E+02  0.00000000000E+00 0.  1.
         14    1    6    6    0    0 -0.39827035790E+02  0.11098008881E+03  0.30984468392E+02  0.12191312552E+03  0.00000000000E+00 0. -1.
         -5    1    3    3    0  503 -0.45022495865E+01 -0.10313287814E+03  0.12626147187E+03  0.16315854279E+03  0.47000000000E+01 0.  1.
         13    1    4    4    0    0 -0.20597833810E+01 -0.54706534368E+02  0.62542371875E+01  0.55101389211E+02  0.00000000000E+00 0. -1.
        -14    1    4    4    0    0  0.13963017845E+02  0.31641630932E+02  0.40863645880E+01  0.34826097268E+02  0.00000000000E+00 0.  1.
</event>
<event>
12    1  0.8226261E-002  0.2142212E+03  0.7818608E-02  0.1138801E+00
         21   -1    0    0  501  502  0.00000000000E+00  0.00000000000E+00  0.22158725316E+04  0.22158725316E+04  0.00000000000E+00 0. -1.
         21   -1    0    0  502  503 -0.00000000000E+00 -0.00000000000E+00 -0.21651994842E+02  0.21651994842E+02  0.00000000000E+00 0.  1.
         -6    2    1    2    0  503 -0.11007543989E+03  0.66186444516E+02  0.83962097642E+03  0.86651837870E+03  0.17144523521E+03 0.  0.
        -24    2    3    3    0    0 -0.12043949754E+03  0.31167530807E+02  0.79549937451E+03  0.80905061588E+03  0.79161585818E+02 0.  0.
          6    2    1    2  501    0  0.11007543989E+03 -0.66186444516E+02  0.13545995603E+04  0.13710061478E+04  0.16799000082E+03 0.  0.
         24    2    5    5    0    0  0.11960691941E+03 -0.60767559619E+02  0.13484800495E+04  0.13575989919E+04  0.81719443509E+02 0.  0.
          5    1    5    5  501    0 -0.95314795211E+01 -0.54188848971E+01  0.61195108805E+01  0.13407155881E+02  0.47000000000E+01 0. -1.
        -11    1    6    6    0    0  0.21408375785E+02 -0.20427818823E+02  0.91991275903E+02  0.96633375072E+02  0.00000000000E+00 0.  1.
         12    1    6    6    0    0  0.98198543628E+02 -0.40339740796E+02  0.12564887736E+04  0.12609656168E+04  0.00000000000E+00 0. -1.
         -5    1    3    3    0  503  0.10364057646E+02  0.35018913709E+02  0.44121601912E+02  0.57467762820E+02  0.47000000000E+01 0.  1.
         13    1    4    4    0    0 -0.18288528137E+02 -0.50915573852E+01  0.35146182396E+03  0.35197415803E+03  0.00000000000E+00 0. -1.
        -14    1    4    4    0    0 -0.10215096940E+03  0.36259088192E+02  0.44403755055E+03  0.45707645785E+03  0.00000000000E+00 0.  1.
</event>
<event>
12    1  0.8226261E-002  0.1831080E+03  0.7818608E-02  0.1165115E+00
         21   -1    0    0  501  502  0.00000000000E+00  0.00000000000E+00  0.80109248117E+03  0.80109248117E+03  0.00000000000E+00 0.  1.
         21   -1    0    0  502  503 -0.00000000000E+00 -0.00000000000E+00 -0.41755656907E+02  0.41755656907E+02  0.00000000000E+00 0.  1.
         -6    2    1    2    0  503 -0.55062798331E+02  0.19407096538E+02  0.35347598380E+03  0.39808769933E+03  0.17355113967E+03 0.  0.
        -24    2    3    3    0    0 -0.12710313539E+02 -0.35754929364E+02  0.29164686298E+03  0.30491306625E+03  0.80461905488E+02 0.  0.
          6    2    1    2  501    0  0.55062798331E+02 -0.19407096538E+02  0.40586084047E+03  0.44476043875E+03  0.17227965316E+03 0.  0.
         24    2    5    5    0    0  0.20312103961E+02 -0.61658718818E+02  0.35771561634E+03  0.37173398497E+03  0.77532665624E+02 0.  0.
          5    1    5    5  501    0  0.34750694370E+02  0.42251622279E+02  0.48145224129E+02  0.73026453774E+02  0.47000000000E+01 0. -1.
        -13    1    6    6    0    0 -0.35471780467E+01  0.31011255867E+01  0.19411258079E+03  0.19416975427E+03  0.00000000000E+00 0.  1.
         14    1    6    6    0    0  0.23859282008E+02 -0.64759844404E+02  0.16360303555E+03  0.17756423071E+03  0.00000000000E+00 0. -1.
         -5    1    3    3    0  503 -0.42352484792E+02  0.55162025903E+02  0.61829120812E+02  0.93174633083E+02  0.47000000000E+01 0.  1.
         13    1    4    4    0    0  0.13777066389E+02  0.21571883196E+01  0.21459105822E+03  0.21504367763E+03  0.00000000000E+00 0. -1.
        -14    1    4    4    0    0 -0.26487379927E+02 -0.37912117684E+02  0.77055804763E+02  0.89869388617E+02  0.00000000000E+00 0.  1.
</event>
<event>
12    1  0.8226261E-002  0.2652479E+03  0.7818608E-02  0.1104118E+00
         21   -1    0    0  503  502  0.00000000000E+00  0.00000000000E+00  0.26481952483E+03  0.26481952483E+03  0.00000000000E+00 0.  1.
         21   -1    0    0  501  503 -0.00000000000E+00 -0.00000000000E+00 -0.27192682611E+03  0.27192682611E+03  0.00000000000E+00 0. -1.
          6    2    1    2  501    0  0.74109544227E+02 -0.18700259370E+03  0.39026426907E+02  0.26810353652E+03  0.17289953643E+03 0.  0.
         24    2    3    3    0    0  0.11910918679E+02 -0.11522899493E+03 -0.43209040682E+02  0.14238607301E+03  0.70619978295E+02 0.  0.
         -6    2    1    2    0  502 -0.74109544227E+02  0.18700259370E+03 -0.46133728186E+02  0.26864281442E+03  0.17198385467E+03 0.  0.
        -24    2    5    5    0    0 -0.26238942607E+02  0.15796233288E+02 -0.18152902520E+01  0.85368631057E+02  0.79664953365E+02 0.  0.
          5    1    3    3  501    0  0.62198625547E+02 -0.71773598774E+02  0.82235467589E+02  0.12571746351E+03  0.47000000000E+01 0. -1.
        -11    1    4    4    0    0  0.16833744232E+02 -0.55334407583E-01 -0.17486110642E+02  0.24272249013E+02  0.00000000000E+00 0.  1.
         12    1    4    4    0    0 -0.49228255524E+01 -0.11517366052E+03 -0.25722930040E+02  0.11811382400E+03  0.00000000000E+00 0. -1.
         -5    1    5    5    0  502 -0.47870601619E+02  0.17120636042E+03 -0.44318437934E+02  0.18327418336E+03  0.47000000000E+01 0.  1.
         11    1    6    6    0    0  0.14700846959E+02  0.52142783765E+01  0.29079933590E+02  0.32999183898E+02  0.00000000000E+00 0. -1.
        -12    1    6    6    0    0 -0.40939789567E+02  0.10581954912E+02 -0.30895223842E+02  0.52369447159E+02  0.00000000000E+00 0.  1.
</event>
<event>
12    1  0.8226261E-002  0.2013213E+03  0.7818608E-02  0.1149411E+00
         21   -1    0    0  503  502  0.00000000000E+00  0.00000000000E+00  0.19403798839E+04  0.19403798839E+04  0.00000000000E+00 0. -1.
         21   -1    0    0  501  503 -0.00000000000E+00 -0.00000000000E+00 -0.31114480820E+02  0.31114480820E+02  0.00000000000E+00 0. -1.
          6    2    1    2  501    0 -0.81588174388E+02 -0.55125466519E+02  0.37321023861E+03  0.42230240576E+03  0.17134174170E+03 0.  0.
         24    2    3    3    0    0 -0.11913036647E+03 -0.24818568997E+02  0.24462879465E+03  0.28488624240E+03  0.80677867803E+02 0.  0.
         -6    2    1    2    0  502  0.81588174388E+02  0.55125466519E+02  0.15360551645E+04  0.15491919590E+04  0.17559843435E+03 0.  0.
        -24    2    5    5    0    0  0.28398421468E+02 -0.20943311477E+01  0.12422171214E+04  0.12451095020E+04  0.79896425220E+02 0.  0.
          5    1    3    3  501    0  0.37542192078E+02 -0.30306897522E+02  0.12858144396E+03  0.13741616336E+03  0.47000000000E+01 0. -1.
        -13    1    4    4    0    0  0.10176212748E+02  0.73189732412E+01  0.25826485055E+02  0.28707664577E+02  0.00000000000E+00 0.  1.
         14    1    4    4    0    0 -0.12930657921E+03 -0.32137542238E+02  0.21880230960E+03  0.25617857782E+03  0.00000000000E+00 0. -1.
         -5    1    5    5    0  502  0.53189752920E+02  0.57219797667E+02  0.29383804307E+03  0.30408245694E+03  0.47000000000E+01 0.  1.
         13    1    6    6    0    0  0.10140389726E+02  0.31632780919E+02  0.25590110840E+03  0.25804813042E+03  0.00000000000E+00 0. -1.
        -14    1    6    6    0    0  0.18258031742E+02 -0.33727112067E+02  0.98631601300E+03  0.98706137161E+03  0.00000000000E+00 0.  1.
</event>
<event>
12    1  0.8226261E-002  0.1835825E+03  0.7818608E-02  0.1164591E+00
         21   -1    0    0  503  502  0.00000000000E+00  0.00000000000E+00  0.54336568318E+03  0.54336568318E+03  0.00000000000E+00 0.  1.
         21   -1    0    0  501  503 -0.00000000000E+00 -0.00000000000E+00 -0.50630753457E+03  0.50630753457E+03  0.00000000000E+00 0. -1.
          6    2    1    2  501    0  0.29208562695E+02 -0.54540091297E+02 -0.47328146226E+03  0.50731813221E+03  0.17189701295E+03 0.  0.
         24    2    3    3    0    0 -0.43740262315E+02 -0.56262086414E+02 -0.30515443659E+03  0.32397887538E+03  0.82246268027E+02 0.  0.
         -6    2    1    2    0  502 -0.29208562695E+02  0.54540091297E+02  0.51033961087E+03  0.54235508555E+03  0.17284316217E+03 0.  0.
        -24    2    5    5    0    0  0.41175657780E+02  0.19476380117E+02  0.17869115293E+03  0.20147946016E+03  0.81170687776E+02 0.  0.
          5    1    3    3  501    0  0.72948825009E+02  0.17219951172E+01 -0.16812702566E+03  0.18333925683E+03  0.47000000000E+01 0. -1.
        -13    1    4    4    0    0 -0.89781290253E+01 -0.35909028669E+02 -0.35346524006E+02  0.51180483586E+02  0.00000000000E+00 0.  1.
         14    1    4    4    0    0 -0.34762133290E+02 -0.20353057745E+02 -0.26980791258E+03  0.27279839179E+03  0.00000000000E+00 0. -1.
         -5    1    5    5    0  502 -0.70384220475E+02  0.35063711179E+02  0.33164845793E+03  0.34087562539E+03  0.47000000000E+01 0.  1.
         11    1    6    6    0    0  0.12428102307E+02 -0.14866171050E+02  0.14273804541E+03  0.14404725049E+03  0.00000000000E+00 0. -1.
        -12    1    6    6    0    0  0.28747555473E+02  0.34342551167E+02  0.35953107527E+02  0.57432209667E+02  0.00000000000E+00 0.  1.
</event>
<event>
12    1  0.8226261E-002  0.2037357E+03  0.7818608E-02  0.1146832E+00
         21   -1    0    0  501  502  0.00000000000E+00  0.00000000000E+00  0.43259516622E+03  0.43259516622E+03  0.00000000000E+00 0. -1.
         21   -1    0    0  502  503 -0.00000000000E+00 -0.00000000000E+00 -0.11274273850E+03  0.11274273850E+03  0.00000000000E+00 0.  1.
         -6    2    1    2    0  503  0.97317297136E+02  0.48688929988E+02  0.53565765160E+02  0.21065971986E+03  0.17224098859E+03 0.  0.
        -24    2    3    3    0    0  0.14980082148E+02  0.73775376670E+01 -0.25126097962E+02  0.89413905791E+02  0.84170629241E+02 0.  0.
          6    2    1    2  501    0 -0.97317297136E+02 -0.48688929988E+02  0.26628666256E+03  0.33467818486E+03  0.17105447243E+03 0.  0.
         24    2    5    5    0    0 -0.16588074634E+02 -0.79127170602E+02  0.11987586077E+03  0.16467257689E+03  0.78807120481E+02 0.  0.
          5    1    5    5  501    0 -0.80729222502E+02  0.30438240614E+02  0.14641080180E+03  0.17000560797E+03  0.47000000000E+01 0. -1.
        -13    1    6    6    0    0 -0.43118440609E+02 -0.72542322493E+02  0.79678734791E+02  0.11606157526E+03  0.00000000000E+00 0.  1.
         14    1    6    6    0    0  0.26530365975E+02 -0.65848481093E+01  0.40197125975E+02  0.48611001636E+02  0.00000000000E+00 0. -1.
         -5    1    3    3    0  503  0.82337214988E+02  0.41311392321E+02  0.78691863122E+02  0.12124581407E+03  0.47000000000E+01 0.  1.
         13    1    4    4    0    0  0.81680628147E+01 -0.33356037112E+02  0.93767958321E+01  0.35598690454E+02  0.00000000000E+00 0. -1.
        -14    1    4    4    0    0  0.68120193332E+01  0.40733574779E+02 -0.34502893794E+02  0.53815215337E+02  0.00000000000E+00 0.  1.
</event>
<event>
12    1  0.8226261E-002  0.2209767E+03  0.7818608E-02  0.1133358E+00
         21   -1    0    0  503  502  0.00000000000E+00  0.00000000000E+00  0.29590431311E+03  0.29590431311E+03  0.00000000000E+00 0.  1.
         21   -1    0    0  501  503 -0.00000000000E+00 -0.00000000000E+00 -0.20813668719E+03  0.20813668719E+03  0.00000000000E+00 0. -1.
          6    2    1    2  501    0  0.12859426930E+03  0.52027716569E+02 -0.71801823521E+02  0.23234930701E+03  0.17200967769E+03 0.  0.
         24    2    3    3    0    0  0.19043491887E+02  0.58615874728E+01 -0.77926359074E+02  0.11321793313E+03  0.79679170127E+02 0.  0.
         -6    2    1    2    0  502 -0.12859426930E+03 -0.52027716569E+02  0.15956944944E+03  0.27169169330E+03  0.17061828046E+03 0.  0.
        -24    2    5    5    0    0 -0.15673249295E+02 -0.34370899888E+02  0.20671863866E+02  0.91754067410E+02  0.81021438076E+02 0.  0.
          5    1    3    3  501    0  0.10955077741E+03  0.46166129096E+02  0.61245355532E+01  0.11913137388E+03  0.47000000000E+01 0. -1.
        -13    1    4    4    0    0  0.20090228315E+02 -0.32499398882E+02 -0.18433333894E+02  0.42421881145E+02  0.00000000000E+00 0.  1.
         14    1    4    4    0    0 -0.10467364273E+01  0.38360986355E+02 -0.59493025180E+02  0.70796051983E+02  0.00000000000E+00 0. -1.
         -5    1    5    5    0  502 -0.11292102000E+03 -0.17656816680E+02  0.13889758557E+03  0.17993762589E+03  0.47000000000E+01 0.  1.
         13    1    6    6    0    0 -0.39324253096E+02 -0.15463774403E+02 -0.15113693365E+02  0.44877042321E+02  0.00000000000E+00 0. -1.
        -14    1    6    6    0    0  0.23651003800E+02 -0.18907125485E+02  0.35785557231E+02  0.46877025089E+02  0.00000000000E+00 0.  1.
</event>
<event>
12    1  0.8226261E-002  0.1740419E+03  0.7818608E-02  0.1174057E+00
         21   -1    0    0  503  502  0.00000000000E+00  0.00000000000E+00  0.34379640852E+02  0.34379640852E+02  0.00000000000E+00 0.  1.
         21   -1    0    0  501  503 -0.00000000000E+00 -0.00000000000E+00 -0.11589573236E+04  0.11589573236E+04  0.00000000000E+00 0.  1.
          6    2    1    2  501    0 -0.20048496433E+02 -0.14451285328E+02 -0.85993803537E+03  0.87737334884E+03  0.17227822476E+03 0.  0.
         24    2    3    3    0    0 -0.25016159618E+02  0.13818949285E+02 -0.21068071039E+03  0.22746485692E+03  0.80852506444E+02 0.  0.
         -6    2    1    2    0  502  0.20048496433E+02  0.14451285328E+02 -0.26463964734E+03  0.31596361557E+03  0.17084519766E+03 0.  0.
        -24    2    5    5    0    0 -0.38861278567E+01 -0.41983374629E+00 -0.27622630088E+03  0.28513575540E+03  0.70612686233E+02 0.  0.
          5    1    3    3  501    0  0.49676631856E+01 -0.28270234613E+02 -0.64925732497E+03  0.64990849192E+03  0.47000000000E+01 0. -1.
        -11    1    4    4    0    0  0.16241226084E+02 -0.59304568348E+01 -0.15240195860E+03  0.15337960989E+03  0.00000000000E+00 0.  1.
         12    1    4    4    0    0 -0.41257385703E+02  0.19749406119E+02 -0.58278751792E+02  0.74085247030E+02  0.00000000000E+00 0. -1.
         -5    1    5    5    0  502  0.23934624289E+02  0.14871119075E+02  0.11586653545E+02  0.30827860172E+02  0.47000000000E+01 0.  1.
         11    1    6    6    0    0  0.28418122593E+00  0.33674955889E+02 -0.17583502088E+03  0.17903082969E+03  0.00000000000E+00 0. -1.
        -12    1    6    6    0    0 -0.41703090827E+01 -0.34094789635E+02 -0.10039128001E+03  0.10610492571E+03  0.00000000000E+00 0.  1.
</event>
<event>
12    1  0.8226261E-002  0.1908170E+03  0.7818608E-02  0.1158585E+00
         21   -1    0    0  501  502  0.00000000000E+00  0.00000000000E+00  0.27766439690E+03  0.27766439690E+03  0.00000000000E+00 0.  1.
         21   -1    0    0  502  503 -0.00000000000E+00 -0.00000000000E+00 -0.33812408660E+03  0.33812408660E+03  0.00000000000E+00 0. -1.
         -6    2    1    2    0  503 -0.61947140870E+02 -0.61650605905E+02 -0.27251369504E+03  0.33052017099E+03  0.16535302832E+03 0.  0.
        -24    2    3    3    0    0 -0.75016700144E+02 -0.92034214477E+02 -0.25556904428E+03  0.29306101671E+03  0.80445143971E+02 0.  0.
          6    2    1    2  501    0  0.61947140870E+02  0.61650605905E+02  0.21205400534E+03  0.28526831252E+03  0.16962565690E+03 0.  0.
         24    2    5    5    0    0  0.77416047423E+01 -0.28565797853E+02  0.91867741139E+02  0.12544319636E+03  0.80127251292E+02 0.  0.
          5    1    5    5  501    0  0.54205536128E+02  0.90216403758E+02  0.12018626420E+03  0.15982511616E+03  0.47000000000E+01 0. -1.
        -13    1    6    6    0    0  0.27815826185E+02  0.16967586950E+02  0.20694021333E+02  0.38598726821E+02  0.00000000000E+00 0.  1.
         14    1    6    6    0    0 -0.20074221443E+02 -0.45533384803E+02  0.71173719806E+02  0.86844469537E+02  0.00000000000E+00 0. -1.
         -5    1    3    3    0  503  0.13069559274E+02  0.30383608572E+02 -0.16944650762E+02  0.37459154274E+02  0.47000000000E+01 0.  1.
         13    1    4    4    0    0 -0.63888673881E+02 -0.59344189081E+02 -0.95545419229E+02  0.12935386567E+03  0.00000000000E+00 0. -1.
        -14    1    4    4    0    0 -0.11128026263E+02 -0.32690025396E+02 -0.16002362505E+03  0.16370715104E+03  0.00000000000E+00 0.  1.
</event>
<event>
12    1  0.8226261E-002  0.2363648E+03  0.7818608E-02  0.1123642E+00
         21   -1    0    0  501  502  0.00000000000E+00  0.00000000000E+00  0.34035778180E+02  0.34035778180E+02  0.00000000000E+00 0.  1.
         21   -1    0    0  502  503 -0.00000000000E+00 -0.00000000000E+00 -0.20742742763E+04  0.20742742763E+04  0.00000000000E+00 0. -1.
         -6    2    1    2    0  503  0.11465102426E+03  0.97705787855E+02 -0.15180995897E+04  0.15351631446E+04  0.17148830270E+03 0.  0.
        -24    2    3    3    0    0  0.14203715567E+03  0.74151010177E+02 -0.10065365430E+04  0.10223048129E+04  0.79488313586E+02 0.  0.
          6    2    1    2  501    0 -0.11465102426E+03 -0.97705787855E+02 -0.52213890841E+03  0.57314690987E+03  0.18214571713E+03 0.  0.
         24    2    5    5    0    0 -0.46687044359E+02  0.16482974165E+02 -0.16759125958E+03  0.19448571403E+03  0.85360963726E+02 0.  0.
          5    1    5    5  501    0 -0.67963979898E+02 -0.11418876202E+03 -0.35454764884E+03  0.37866119584E+03  0.47000000000E+01 0. -1.
        -11    1    6    6    0    0  0.63701097557E+01  0.39794745799E+02 -0.77759121353E+02  0.87582424293E+02  0.00000000000E+00 0.  1.
         12    1    6    6    0    0 -0.53057154114E+02 -0.23311771634E+02 -0.89832138223E+02  0.10690328974E+03  0.00000000000E+00 0. -1.
         -5    1    3    3    0  503 -0.27386131410E+02  0.23554777678E+02 -0.51156304664E+03  0.51285833174E+03  0.47000000000E+01 0.  1.
         11    1    4    4    0    0  0.64569119719E+02  0.48109731568E+02 -0.71530878741E+03  0.71982663109E+03  0.00000000000E+00 0. -1.
        -12    1    4    4    0    0  0.77468035948E+02  0.26041278608E+02 -0.29122775564E+03  0.30247818176E+03  0.00000000000E+00 0.  1.
</event>
<event>
12    1  0.8226261E-002  0.1788387E+03  0.7818608E-02  0.1169280E+00
         21   -1    0    0  501  502  0.00000000000E+00  0.00000000000E+00  0.59899050544E+03  0.59899050544E+03  0.00000000000E+00 0. -1.
         21   -1    0    0  502  503 -0.00000000000E+00 -0.00000000000E+00 -0.57012480576E+02  0.57012480576E+02  0.00000000000E+00 0. -1.
         -6    2    1    2    0  503 -0.16569539756E+02  0.40624736593E+02  0.18467249899E+03  0.25707432114E+03  0.17337345771E+03 0.  0.
        -24    2    3    3    0    0  0.30346511443E+02  0.37326501179E+02  0.18737281091E+03  0.20973114950E+03  0.81021024136E+02 0.  0.
          6    2    1    2  501    0  0.16569539756E+02 -0.40624736593E+02  0.35730552587E+03  0.39892866487E+03  0.17190672461E+03 0.  0.
         24    2    5    5    0    0  0.16907533070E+01 -0.82904960340E+02  0.17678780949E+03  0.21287025594E+03  0.84756859213E+02 0.  0.
          5    1    5    5  501    0  0.14878786449E+02  0.42280223747E+02  0.18051771639E+03  0.18605840894E+03  0.47000000000E+01 0. -1.
        -11    1    6    6    0    0  0.28551171320E+02  0.27521614513E+01  0.47017767328E+02  0.55076439799E+02  0.00000000000E+00 0.  1.
         12    1    6    6    0    0 -0.26860418013E+02 -0.85657121792E+02  0.12977004216E+03  0.15779381614E+03  0.00000000000E+00 0. -1.
         -5    1    3    3    0  503 -0.46916051198E+02  0.32982354140E+01 -0.27003119267E+01  0.47343171645E+02  0.47000000000E+01 0.  1.
         11    1    4    4    0    0 -0.17871107908E+02  0.11824259730E+02  0.12520711888E+03  0.12702760422E+03  0.00000000000E+00 0. -1.
        -12    1    4    4    0    0  0.48217619351E+02  0.25502241449E+02  0.62165692032E+02  0.82703545272E+02  0.00000000000E+00 0.  1.
</event>
<event>
12    1  0.8226261E-002  0.2246702E+03  0.7818608E-02  0.1130579E+00
         21   -1    0    0  503  502  0.00000000000E+00  0.00000000000E+00  0.86166090508E+02  0.86166090508E+02  0.00000000000E+00 0.  1.
         21   -1    0    0  501  503 -0.00000000000E+00 -0.00000000000E+00 -0.60220025258E+03  0.60220025258E+03  0.00000000000E+00 0.  1.
          6    2    1    2  501    0  0.14339436051E+03  0.22450709442E+02 -0.31836681590E+03  0.38965898513E+03  0.17149553419E+03 0.  0.
         24    2    3    3    0    0  0.16927495371E+03  0.31019135107E+02 -0.22863323276E+03  0.29575781918E+03  0.74721722327E+02 0.  0.
         -6    2    1    2    0  502 -0.14339436051E+03 -0.22450709442E+02 -0.19766734617E+03  0.29870735795E+03  0.17055125029E+03 0.  0.
        -24    2    5    5    0    0 -0.15074555552E+02 -0.32888932336E+02 -0.12056984735E+03  0.14857060974E+03  0.78912697914E+02 0.  0.
          5    1    3    3  501    0 -0.25880593207E+02 -0.85684256647E+01 -0.89733583147E+02  0.93901165954E+02  0.47000000000E+01 0. -1.
        -13    1    4    4    0    0  0.11325741018E+03 -0.15659492848E+02 -0.13052765710E+03  0.17352213099E+03  0.00000000000E+00 0.  1.
         14    1    4    4    0    0  0.56017543538E+02  0.46678627955E+02 -0.98105575655E+02  0.12223568819E+03  0.00000000000E+00 0. -1.
         -5    1    5    5    0  502 -0.12831980495E+03  0.10438222893E+02 -0.77097498812E+02  0.15013674821E+03  0.47000000000E+01 0.  1.
         13    1    6    6    0    0 -0.36458577630E+02 -0.41415338517E+02 -0.11036455996E+03  0.12338879302E+03  0.00000000000E+00 0. -1.
        -14    1    6    6    0    0  0.21384022078E+02  0.85264061817E+01 -0.10205287396E+02  0.25181816723E+02  0.00000000000E+00 0.  1.
</event>
<event>
12    1  0.8226261E-002  0.2932150E+03  0.7818608E-02  0.1088793E+00
         21   -1    0    0  503  502  0.00000000000E+00  0.00000000000E+00  0.11776908912E+04  0.11776908912E+04  0.00000000000E+00 0. -1.
         21   -1    0    0  501  503 -0.00000000000E+00 -0.00000000000E+00 -0.76260626853E+02  0.76260626853E+02  0.00000000000E+00 0.  1.
          6    2    1    2  501    0 -0.18778207016E+03  0.14514725119E+03  0.68371021238E+03  0.74359374117E+03  0.17071077002E+03 0.  0.
         24    2    3    3    0    0 -0.19515918103E+03  0.13061941265E+03  0.68288210799E+03  0.72661564900E+03  0.80584062047E+02 0.  0.
         -6    2    1    2    0  502  0.18778207016E+03 -0.14514725119E+03  0.41772005198E+03  0.51035777689E+03  0.17217778081E+03 0.  0.
        -24    2    5    5    0    0  0.27060870366E+02 -0.66089896127E+02  0.16187783544E+03  0.19801389714E+03  0.88909531432E+02 0.  0.
          5    1    3    3  501    0  0.73771108647E+01  0.14527838531E+02  0.82810439021E+00  0.16978092177E+02  0.47000000000E+01 0. -1.
        -13    1    4    4    0    0  0.79098552825E+01  0.67770370771E+01  0.27376689805E+02  0.29291247615E+02  0.00000000000E+00 0.  1.
         14    1    4    4    0    0 -0.20306903631E+03  0.12384237558E+03  0.65550541818E+03  0.69732440138E+03  0.00000000000E+00 0. -1.
         -5    1    5    5    0  502  0.16072119980E+03 -0.79057355059E+02  0.25584221653E+03  0.31234387974E+03  0.47000000000E+01 0.  1.
         13    1    6    6    0    0  0.38302152791E+02  0.77511852421E+01  0.49261846636E+02  0.62879768726E+02  0.00000000000E+00 0. -1.
        -14    1    6    6    0    0 -0.11241282425E+02 -0.73841081369E+02  0.11261598881E+03  0.13513412842E+03  0.00000000000E+00 0.  1.
</event>
<event>
12    1  0.8226261E-002  0.2107833E+03  0.7818608E-02  0.1141104E+00
         21   -1    0    0  501  502  0.00000000000E+00  0.00000000000E+00  0.45561294592E+02  0.45561294592E+02  0.00000000000E+00 0. -1.
         21   -1    0    0  502  503 -0.00000000000E+00 -0.00000000000E+00 -0.10803675924E+04  0.10803675924E+04  0.00000000000E+00 0. -1.
         -6    2    1    2    0  503 -0.12118957132E+03  0.75567442821E+01 -0.69698504650E+03  0.72816051408E+03  0.17229498729E+03 0.  0.
        -24    2    3    3    0    0 -0.45450977614E+02  0.85333543242E+00 -0.58894472726E+03  0.59596342316E+03  0.79056880979E+02 0.  0.
          6    2    1    2  501    0  0.12118957132E+03 -0.75567442821E+01 -0.33782125136E+03  0.39776837296E+03  0.17132560834E+03 0.  0.
         24    2    5    5    0    0  0.12840551706E+03 -0.17046345554E+02 -0.16736246916E+03  0.22682859165E+03  0.81623888648E+02 0.  0.
          5    1    5    5  501    0 -0.72159457396E+01  0.94896012719E+01 -0.17045878220E+03  0.17093978131E+03  0.47000000000E+01 0. -1.
        -13    1    6    6    0    0  0.46821487010E+01  0.22514540866E+02 -0.21044846831E+02  0.31172305738E+02  0.00000000000E+00 0.  1.
         14    1    6    6    0    0  0.12372336836E+03 -0.39560886420E+02 -0.14631762233E+03  0.19565628592E+03  0.00000000000E+00 0. -1.
         -5    1    3    3    0  503 -0.75738593709E+02  0.67034088496E+01 -0.10804031924E+03  0.13219709092E+03  0.47000000000E+01 0.  1.
         13    1    4    4    0    0 -0.39222310295E+02 -0.31973578595E+02 -0.23180420273E+03  0.23726332999E+03  0.00000000000E+00 0. -1.
        -14    1    4    4    0    0 -0.62286673187E+01  0.32826914028E+02 -0.35714052453E+03  0.35870009318E+03  0.00000000000E+00 0.  1.
</event>
<event>
12    1  0.8226261E-002  0.2382022E+03  0.7818608E-02  0.1121067E+00
         21   -1    0    0  503  502  0.00000000000E+00  0.00000000000E+00  0.64344812420E+03  0.64344812420E+03  0.00000000000E+00 0. -1.
         21   -1    0    0  501  503 -0.00000000000E+00 -0.00000000000E+00 -0.93123636082E+02  0.93123636082E+02  0.00000000000E+00 0. -1.
          6    2    1    2  501    0  0.65046341106E+02  0.15119679594E+03  0.36109902893E+03  0.43235705814E+03  0.17160600058E+03 0.  0.
         24    2    3    3    0    0  0.21175391312E+02  0.41026109376E+02  0.26189351938E+03  0.27767653726E+03  0.79903097590E+02 0.  0.
         -6    2    1    2    0  502 -0.65046341106E+02 -0.15119679594E+03  0.18922545919E+03  0.30421470214E+03  0.17218830681E+03 0.  0.
        -24    2    5    5    0    0 -0.83399652812E+02 -0.13102408791E+03  0.20677222276E+03  0.27144640783E+03  0.82495978788E+02 0.  0.
          5    1    3    3  501    0  0.43870949794E+02  0.11017068656E+03  0.99205509548E+02  0.15468052088E+03  0.47000000000E+01 0. -1.
        -11    1    4    4    0    0 -0.18560231148E+02  0.12029910167E+02  0.18551233482E+03  0.18682619540E+03  0.00000000000E+00 0.  1.
         12    1    4    4    0    0  0.39735622460E+02  0.28996199209E+02  0.76381184563E+02  0.90850341860E+02  0.00000000000E+00 0. -1.
         -5    1    5    5    0  502  0.18353311706E+02 -0.20172708033E+02 -0.17546763578E+02  0.32768294311E+02  0.47000000000E+01 0.  1.
         11    1    6    6    0    0 -0.85801847243E+02 -0.12283783856E+03  0.14305761143E+03  0.20716315251E+03  0.00000000000E+00 0. -1.
        -12    1    6    6    0    0  0.24021944311E+01 -0.81862493517E+01  0.63714611338E+02  0.64283255319E+02  0.00000000000E+00 0.  1.
</event>
<event>
12    1  0.8226261E-002  0.1870457E+03  0.7818608E-02  0.1161237E+00
         21   -1    0    0  501  502  0.00000000000E+00  0.00000000000E+00  0.95378051195E+03  0.95378051195E+03  0.00000000000E+00 0. -1.
         21   -1    0    0  502  503 -0.00000000000E+00 -0.00000000000E+00 -0.36761742050E+02  0.36761742050E+02  0.00000000000E+00 0. -1.
         -6    2    1    2    0  503 -0.58065736764E+02  0.42355987493E+02  0.42712321309E+03  0.46628354932E+03  0.17268598596E+03 0.  0.
        -24    2    3    3    0    0 -0.89331451143E+02  0.76687855471E+02  0.32802262391E+03  0.35674251213E+03  0.76192144088E+02 0.  0.
          6    2    1    2  501    0  0.58065736764E+02 -0.42355987493E+02  0.48989555681E+03  0.52425870468E+03  0.17229008499E+03 0.  0.
         24    2    5    5    0    0 -0.23828816119E+02  0.15281728316E+02  0.26004144783E+03  0.27349222866E+03  0.79844228680E+02 0.  0.
          5    1    5    5  501    0  0.81894552884E+02 -0.57637715810E+02  0.22985410899E+03  0.25076647602E+03  0.47000000000E+01 0. -1.
        -13    1    6    6    0    0 -0.34248287509E+02 -0.11919605446E+02  0.22509770327E+03  0.22799999607E+03  0.00000000000E+00 0.  1.
         14    1    6    6    0    0  0.10419471390E+02  0.27201333763E+02  0.34943744556E+02  0.45492232591E+02  0.00000000000E+00 0. -1.
         -5    1    3    3    0  503  0.31265714379E+02 -0.34331867978E+02  0.99100589177E+02  0.10954103720E+03  0.47000000000E+01 0.  1.
         13    1    4    4    0    0  0.18097719582E+01  0.11113833481E+02  0.13839889563E+01  0.11344954588E+02  0.00000000000E+00 0. -1.
        -14    1    4    4    0    0 -0.91141223101E+02  0.65574021991E+02  0.32663863496E+03  0.34539755754E+03  0.00000000000E+00 0.  1.
</event>
<event>
12    1  0.8226261E-002  0.3279929E+03  0.7818608E-02  0.1072143E+00
         21   -1    0    0  503  502  0.00000000000E+00  0.00000000000E+00  0.11612640672E+04  0.11612640672E+04  0.00000000000E+00 0. -1.
         21   -1    0    0  501  503 -0.00000000000E+00 -0.00000000000E+00 -0.10306545264E+03  0.10306545264E+03  0.00000000000E+00 0. -1.
          6    2    1    2  501    0 -0.25569583223E+03  0.10977465290E+03  0.73368065236E+03  0.80365827347E+03  0.17363319912E+03 0.  0.
         24    2    3    3    0    0 -0.17763404052E+03  0.26706491906E+02  0.32851504738E+03  0.38273640406E+03  0.79359495798E+02 0.  0.
         -6    2    1    2    0  502  0.25569583223E+03 -0.10977465290E+03  0.32451796222E+03  0.46067124639E+03  0.17168359388E+03 0.  0.
        -24    2    5    5    0    0  0.15152312242E+03 -0.10599991158E+03  0.12504240655E+03  0.23555174601E+03  0.75191646670E+02 0.  0.
          5    1    3    3  501    0 -0.78061791715E+02  0.83068160994E+02  0.40516560498E+03  0.42092186942E+03  0.47000000000E+01 0. -1.
        -13    1    4    4    0    0 -0.13436835770E+03 -0.16083269390E+02  0.21847859276E+03  0.25699498555E+03  0.00000000000E+00 0.  1.
         14    1    4    4    0    0 -0.43265682817E+02  0.42789761296E+02  0.11003645462E+03  0.12574141850E+03  0.00000000000E+00 0. -1.
         -5    1    5    5    0  502  0.10417270981E+03 -0.37747413213E+01  0.19947555568E+03  0.22511950039E+03  0.47000000000E+01 0.  1.
         13    1    6    6    0    0  0.13809798206E+03 -0.11134610066E+03  0.13037214150E+03  0.22014972646E+03  0.00000000000E+00 0. -1.
        -14    1    6    6    0    0  0.13425140358E+02  0.53461890841E+01 -0.53297349527E+01  0.15402019543E+02  0.00000000000E+00 0.  1.
</event>
<event>
12    1  0.8226261E-002  0.1881440E+03  0.7818608E-02  0.1160312E+00
         21   -1    0    0  501  502  0.00000000000E+00  0.00000000000E+00  0.65112372601E+03  0.65112372601E+03  0.00000000000E+00 0.  1.
         21   -1    0    0  502  503 -0.00000000000E+00 -0.00000000000E+00 -0.55989753529E+02  0.55989753529E+02  0.00000000000E+00 0.  1.
         -6    2    1    2    0  503  0.18474099681E+02 -0.75126136822E+02  0.36211987499E+03  0.40807961547E+03  0.17150201136E+03 0.  0.
        -24    2    3    3    0    0  0.48175617326E+02 -0.20527024975E+02  0.79932995667E+02  0.11909039762E+03  0.71070318354E+02 0.  0.
          6    2    1    2  501    0 -0.18474099681E+02  0.75126136822E+02  0.23301409749E+03  0.29903386407E+03  0.17070575105E+03 0.  0.
         24    2    5    5    0    0  0.53951717045E+02  0.40097393148E+02  0.10478184565E+03  0.14758053059E+03  0.79260261936E+02 0.  0.
          5    1    5    5  501    0 -0.72425816726E+02  0.35028743674E+02  0.12823225183E+03  0.15145333348E+03  0.47000000000E+01 0. -1.
        -11    1    6    6    0    0  0.48209738680E+02  0.63134657542E+02  0.87727185808E+02  0.11834788978E+03  0.00000000000E+00 0.  1.
         12    1    6    6    0    0  0.57419783657E+01 -0.23037264393E+02  0.17054659846E+02  0.29232640810E+02  0.00000000000E+00 0. -1.
         -5    1    3    3    0  503 -0.29701517645E+02 -0.54599111847E+02  0.28218687933E+03  0.28898921784E+03  0.47000000000E+01 0.  1.
         11    1    4    4    0    0  0.93453698581E+01  0.69889875015E+01  0.69365277380E+02  0.70340056796E+02  0.00000000000E+00 0. -1.
        -12    1    4    4    0    0  0.38830247468E+02 -0.27516012477E+02  0.10567718287E+02  0.48750340828E+02  0.00000000000E+00 0.  1.
</event>
<event>
12    1  0.8226261E-002  0.2037384E+03  0.7818608E-02  0.1146698E+00
         21   -1    0    0  501  502  0.00000000000E+00  0.00000000000E+00  0.13415714124E+03  0.13415714124E+03  0.00000000000E+00 0.  1.
         21   -1    0    0  502  503 -0.00000000000E+00 -0.00000000000E+00 -0.39095243633E+03  0.39095243633E+03  0.00000000000E+00 0.  1.
         -6    2    1    2    0  503 -0.78472830205E+02 -0.78194782119E+02 -0.24862412654E+03  0.32120739426E+03  0.17055153120E+03 0.  0.
        -24    2    3    3    0    0  0.13691761362E+02 -0.16617722188E+02 -0.63087830413E+02  0.10503187892E+03  0.81166546213E+02 0.  0.
          6    2    1    2  501    0  0.78472830205E+02  0.78194782119E+02 -0.81711685549E+01  0.20390218332E+03  0.17098807951E+03 0.  0.
         24    2    5    5    0    0  0.52925223312E+02 -0.17387872034E+02 -0.31857910560E+02  0.10205977692E+03  0.79359021187E+02 0.  0.
          5    1    5    5  501    0  0.25547606892E+02  0.95582654153E+02  0.23686742006E+02  0.10184240639E+03  0.47000000000E+01 0. -1.
        -13    1    6    6    0    0  0.12285303651E+02  0.12861975795E+02  0.21885542077E+02  0.28201703125E+02  0.00000000000E+00 0.  1.
         14    1    6    6    0    0  0.40639919661E+02 -0.30249847830E+02 -0.53743452637E+02  0.73858073798E+02  0.00000000000E+00 0. -1.
         -5    1    3    3    0  503 -0.92164591567E+02 -0.61577059931E+02 -0.18553629613E+03  0.21617551533E+03  0.47000000000E+01 0.  1.
         13    1    4    4    0    0  0.33785611315E+02  0.25722288850E+01 -0.68776780537E+02  0.76670264343E+02  0.00000000000E+00 0. -1.
        -14    1    4    4    0    0 -0.20093849953E+02 -0.19189951073E+02  0.56889501242E+01  0.28361614581E+02  0.00000000000E+00 0.  1.
</event>
<event>
12    1  0.8226261E-002  0.2619785E+03  0.7818608E-02  0.1108395E+00
         21   -1    0    0  501  502  0.00000000000E+00  0.00000000000E+00  0.34467316829E+03  0.34467316829E+03  0.00000000000E+00 0.  1.
         21   -1    0    0  502  503 -0.00000000000E+00 -0.00000000000E+00 -0.33361895062E+03  0.33361895062E+03  0.00000000000E+00 0.  1.
         -6    2    1    2    0  503  0.24391816244E+02  0.17439438674E+03 -0.21912969948E+03  0.32955530188E+03  0.17198985137E+03 0.  0.
        -24    2    3    3    0    0  0.12389077715E+02  0.10353029629E+03 -0.40404415114E+02  0.13686227575E+03  0.78909785611E+02 0.  0.
          6    2    1    2  501    0 -0.24391816244E+02 -0.17439438674E+03  0.23018391715E+03  0.34873681704E+03  0.19397002092E+03 0.  0.
         24    2    5    5    0    0  0.18292013319E+01 -0.19900839544E+03  0.15566068675E+03  0.26585622187E+03  0.82713927929E+02 0.  0.
          5    1    5    5  501    0 -0.26221017575E+02  0.24614008693E+02  0.74523230398E+02  0.82880595169E+02  0.47000000000E+01 0. -1.
        -13    1    6    6    0    0  0.48951358785E+01 -0.67926388642E+02  0.10529160892E+03  0.12539648934E+03  0.00000000000E+00 0.  1.
         14    1    6    6    0    0 -0.30659345466E+01 -0.13108200679E+03  0.50369077827E+02  0.14045973253E+03  0.00000000000E+00 0. -1.
         -5    1    3    3    0  503  0.12002738529E+02  0.70864090449E+02 -0.17872528437E+03  0.19269302613E+03  0.47000000000E+01 0.  1.
         13    1    4    4    0    0  0.40485912564E+02  0.79026805783E+02 -0.11185397418E+02  0.89495576783E+02  0.00000000000E+00 0. -1.
        -14    1    4    4    0    0 -0.28096834850E+02  0.24503490512E+02 -0.29219017697E+02  0.47366698967E+02  0.00000000000E+00 0.  1.
</event>
<event>
12    1  0.8226261E-002  0.2520586E+03  0.7818608E-02  0.1112176E+00
         21   -1    0    0  501  502  0.00000000000E+00  0.00000000000E+00  0.36600738432E+03  0.36600738432E+03  0.00000000000E+00 0. -1.
         21   -1    0    0  502  503 -0.00000000000E+00 -0.00000000000E+00 -0.19437401355E+03  0.19437401355E+03  0.00000000000E+00 0. -1.
         -6    2    1    2    0  503 -0.18327166280E+03  0.19611855557E+02  0.17919176342E+03  0.30926239845E+03  0.17193142747E+03 0.  0.
        -24    2    3    3    0    0 -0.98216763155E+02 -0.55615121421E+02  0.10033830552E+03  0.17093889415E+03  0.80079683331E+02 0.  0.
          6    2    1    2  501    0  0.18327166280E+03 -0.19611855557E+02 -0.75583926498E+01  0.25111899942E+03  0.17038337743E+03 0.  0.
         24    2    5    5    0    0  0.10122510372E+03 -0.60661947915E+02 -0.47235480609E+02  0.15105347464E+03  0.81606176387E+02 0.  0.
          5    1    5    5  501    0  0.82046559079E+02  0.41050092358E+02  0.39677087959E+02  0.10006552477E+03  0.47000000000E+01 0. -1.
        -13    1    6    6    0    0  0.72912848179E+01 -0.13211084771E+02 -0.43175780329E+02  0.45736676772E+02  0.00000000000E+00 0.  1.
         14    1    6    6    0    0  0.93933818906E+02 -0.47450863144E+02 -0.40597002801E+01  0.10531679787E+03  0.00000000000E+00 0. -1.
         -5    1    3    3    0  503 -0.85054899649E+02  0.75226976978E+02  0.78853457896E+02  0.13832350430E+03  0.47000000000E+01 0.  1.
         11    1    4    4    0    0 -0.94311835709E+02 -0.14332933616E+02  0.57827782974E+02  0.11155360964E+03  0.00000000000E+00 0. -1.
        -12    1    4    4    0    0 -0.39049274455E+01 -0.41282187805E+02  0.42510522550E+02  0.59385284506E+02  0.00000000000E+00 0.  1.
</event>
<event>
12    1  0.8226261E-002  0.1776110E+03  0.7818608E-02  0.1170452E+00
         21   -1    0    0  503  502  0.00000000000E+00  0.00000000000E+00  0.38445456394E+02  0.38445456394E+02  0.00000000000E+00 0. -1.
         21   -1    0    0  501  503 -0.00000000000E+00 -0.00000000000E+00 -0.11792219698E+04  0.11792219698E+04  0.00000000000E+00 0.  1.
          6    2    1    2  501    0 -0.11561979859E+02  0.42512848767E+02 -0.91034968849E+03  0.92751400812E+03  0.17206004255E+03 0.  0.
         24    2    3    3    0    0  0.49724730702E+01 -0.31458058302E+02 -0.29511104861E+03  0.30760614624E+03  0.80725926884E+02 0.  0.
         -6    2    1    2    0  502  0.11561979859E+02 -0.42512848767E+02 -0.23042682488E+03  0.29015341804E+03  0.17073799426E+03 0.  0.
        -24    2    5    5    0    0 -0.46387627088E+02 -0.67531424559E+02 -0.16168661813E+03  0.19671149969E+03  0.76423467456E+02 0.  0.
          5    1    3    3  501    0 -0.16534452929E+02  0.73970907069E+02 -0.61523863988E+03  0.61990786188E+03  0.47000000000E+01 0. -1.
        -13    1    4    4    0    0 -0.27107175623E+02 -0.37546107528E+02 -0.23169536359E+03  0.23627790982E+03  0.00000000000E+00 0.  1.
         14    1    4    4    0    0  0.32079648694E+02  0.60880492256E+01 -0.63415685019E+02  0.71328236415E+02  0.00000000000E+00 0. -1.
         -5    1    5    5    0  502  0.57949606947E+02  0.25018575793E+02 -0.68740206750E+02  0.93441918345E+02  0.47000000000E+01 0.  1.
         11    1    6    6    0    0  0.77099131149E+00 -0.11918618084E+02  0.63572083878E+01  0.13530040027E+02  0.00000000000E+00 0. -1.
        -12    1    6    6    0    0 -0.47158618399E+02 -0.55612806475E+02 -0.16804382652E+03  0.18318145966E+03  0.00000000000E+00 0.  1.
</event>
<event>
12    1  0.8226261E-002  0.2742351E+03  0.7818608E-02  0.1098913E+00
         21   -1    0    0  503  502  0.00000000000E+00  0.00000000000E+00  0.77391407361E+03  0.77391407361E+03  0.00000000000E+00 0.  1.
         21   -1    0    0  501  503 -0.00000000000E+00 -0.00000000000E+00 -0.26544435234E+03  0.26544435234E+03  0.00000000000E+00 0. -1.
          6    2    1    2  501    0 -0.20080085728E+03  0.74231433844E+02 -0.15959082834E+03  0.31729188090E+03  0.17138732491E+03 0.  0.
         24    2    3    3    0    0 -0.15488433262E+03  0.10044978341E+03 -0.16938613451E+03  0.26331255973E+03  0.81009419625E+02 0.  0.
         -6    2    1    2    0  502  0.20080085728E+03 -0.74231433844E+02  0.66806054960E+03  0.72206654505E+03  0.17100850124E+03 0.  0.
        -24    2    5    5    0    0  0.27826263991E+02 -0.25358047936E+02  0.15157072609E+03  0.17517291229E+03  0.79338090649E+02 0.  0.
          5    1    3    3  501    0 -0.45916524660E+02 -0.26218349567E+02  0.97953061774E+01  0.53979321170E+02  0.47000000000E+01 0. -1.
        -11    1    4    4    0    0  0.30082480388E+00  0.94828921761E+01 -0.41584121518E+02  0.42652724438E+02  0.00000000000E+00 0.  1.
         12    1    4    4    0    0 -0.15518515742E+03  0.90966891235E+02 -0.12780201299E+03  0.22065983529E+03  0.00000000000E+00 0. -1.
         -5    1    5    5    0  502  0.17297459328E+03 -0.48873385908E+02  0.51648982350E+03  0.54689363276E+03  0.47000000000E+01 0.  1.
         11    1    6    6    0    0  0.43993345826E+02 -0.13401559990E+02  0.37490936833E+02  0.59334531529E+02  0.00000000000E+00 0. -1.
        -12    1    6    6    0    0 -0.16167081835E+02 -0.11956487946E+02  0.11407978926E+03  0.11583838076E+03  0.00000000000E+00 0.  1.
</event>
<event>
12    1  0.8226261E-002  0.1853215E+03  0.7818608E-02  0.1163293E+00
         21   -1    0    0  503  502  0.00000000000E+00  0.00000000000E+00  0.38019626221E+02  0.38019626221E+02  0.00000000000E+00 0. -1.
         21   -1    0    0  501  503 -0.00000000000E+00 -0.00000000000E+00 -0.12250586702E+04  0.12250586702E+04  0.00000000000E+00 0. -1.
          6    2    1    2  501    0 -0.58630120487E+02  0.33965434824E+02 -0.92548417434E+03  0.94385646884E+03  0.17249039116E+03 0.  0.
         24    2    3    3    0    0 -0.15954889271E+02 -0.44632917101E+02 -0.56461960453E+03  0.57204441413E+03  0.78694714849E+02 0.  0.
         -6    2    1    2    0  502  0.58630120487E+02 -0.33965434824E+02 -0.26155486967E+03  0.31922182760E+03  0.17000142228E+03 0.  0.
        -24    2    5    5    0    0 -0.12691925086E+02 -0.40491253738E+02 -0.21797839653E+03  0.23525505138E+03  0.77651344192E+02 0.  0.
          5    1    3    3  501    0 -0.42675231217E+02  0.78598351925E+02 -0.36086456981E+03  0.37181205471E+03  0.47000000000E+01 0. -1.
        -11    1    4    4    0    0  0.10281740050E+02  0.19695138194E+02 -0.12216586689E+03  0.12416968906E+03  0.00000000000E+00 0.  1.
         12    1    4    4    0    0 -0.26236629321E+02 -0.64328055295E+02 -0.44245373764E+03  0.44787472508E+03  0.00000000000E+00 0. -1.
         -5    1    5    5    0  502  0.71322045574E+02  0.65258189142E+01 -0.43576473132E+02  0.83966776215E+02  0.47000000000E+01 0.  1.
         13    1    6    6    0    0 -0.12211058042E+02 -0.61722422985E+02 -0.12573866692E+03  0.14060220410E+03  0.00000000000E+00 0. -1.
        -14    1    6    6    0    0 -0.48086704393E+00  0.21231169247E+02 -0.92239729610E+02  0.94652847286E+02  0.00000000000E+00 0.  1.
</event>
<event>
12    1  0.8226261E-002  0.1771020E+03  0.7818608E-02  0.1171173E+00
         21   -1    0    0  503  502  0.00000000000E+00  0.00000000000E+00  0.51726201105E+03  0.51726201105E+03  0.00000000000E+00 0.  1.
         21   -1    0    0  501  503 -0.00000000000E+00 -0.00000000000E+00 -0.59953820253E+02  0.59953820253E+02  0.00000000000E+00 0.  1.
          6    2    1    2  501    0  0.33926352522E+02  0.50104770190E+01  0.23578134920E+03  0.29359767945E+03  0.17155363732E+03 0.  0.
         24    2    3    3    0    0 -0.28600865641E+02 -0.14078012735E+01  0.20640091439E+03  0.22405526609E+03  0.82337314632E+02 0.  0.
         -6    2    1    2    0  502 -0.33926352522E+02 -0.50104770190E+01  0.22152684160E+03  0.28361815185E+03  0.17374985535E+03 0.  0.
        -24    2    5    5    0    0 -0.85858969833E+01  0.32128960194E+02  0.36235669280E+02  0.92892209663E+02  0.78803243447E+02 0.  0.
          5    1    3    3  501    0  0.62527218163E+02  0.64182782925E+01  0.29380434807E+02  0.69542413367E+02  0.47000000000E+01 0. -1.
        -13    1    4    4    0    0  0.24143780277E+02  0.17388877693E+02  0.53394963918E+02  0.61125423232E+02  0.00000000000E+00 0.  1.
         14    1    4    4    0    0 -0.52744645918E+02 -0.18796678967E+02  0.15300595047E+03  0.16292984286E+03  0.00000000000E+00 0. -1.
         -5    1    5    5    0  502 -0.25340455539E+02 -0.37139437213E+02  0.18529117232E+03  0.19072594219E+03  0.47000000000E+01 0.  1.
         13    1    6    6    0    0 -0.31679137273E+02  0.24383664799E+02  0.50699110002E+02  0.64564158806E+02  0.00000000000E+00 0. -1.
        -14    1    6    6    0    0  0.23093240290E+02  0.77452953947E+01 -0.14463440722E+02  0.28328050857E+02  0.00000000000E+00 0.  1.
</event>
<event>
12    1  0.8226261E-002  0.2048874E+03  0.7818608E-02  0.1146476E+00
         21   -1    0    0  503  502  0.00000000000E+00  0.00000000000E+00  0.28937896851E+03  0.28937896851E+03  0.00000000000E+00 0. -1.
         21   -1    0    0  501  503 -0.00000000000E+00 -0.00000000000E+00 -0.38109393697E+03  0.38109393697E+03  0.00000000000E+00 0. -1.
          6    2    1    2  501    0  0.11400439838E+03  0.16460747387E+02 -0.31135485402E+03  0.37272064414E+03  0.16944283517E+03 0.  0.
         24    2    3    3    0    0 -0.75981344365E+00  0.33943215717E+02 -0.10963145425E+03  0.13993129510E+03  0.80056182623E+02 0.  0.
         -6    2    1    2    0  502 -0.11400439838E+03 -0.16460747387E+02  0.21963988555E+03  0.29775226134E+03  0.16476277115E+03 0.  0.
        -24    2    5    5    0    0 -0.70425074675E+02 -0.68074037269E+02  0.10419549386E+03  0.16391434923E+03  0.80108971085E+02 0.  0.
          5    1    3    3  501    0  0.11476421182E+03 -0.17482468330E+02 -0.20172339977E+03  0.23278934904E+03  0.47000000000E+01 0. -1.
        -11    1    4    4    0    0  0.92268663126E+01  0.65776121786E+01  0.11023910654E+02  0.15809068601E+02  0.00000000000E+00 0.  1.
         12    1    4    4    0    0 -0.99866797563E+01  0.27365603538E+02 -0.12065536491E+03  0.12412222650E+03  0.00000000000E+00 0. -1.
         -5    1    5    5    0  502 -0.43579323704E+02  0.51613289882E+02  0.11544439169E+03  0.13383791212E+03  0.47000000000E+01 0.  1.
         13    1    6    6    0    0  0.15203787438E+02 -0.25514488075E+01  0.27742126611E+02  0.31737842277E+02  0.00000000000E+00 0. -1.
        -14    1    6    6    0    0 -0.85628862114E+02 -0.65522588462E+02  0.76453367248E+02  0.13217650695E+03  0.00000000000E+00 0.  1.
</event>
<event>
12    1  0.8226261E-002  0.2443568E+03  0.7818608E-02  0.1116963E+00
         21   -1    0    0  503  502  0.00000000000E+00  0.00000000000E+00  0.12777204959E+03  0.12777204959E+03  0.00000000000E+00 0. -1.
         21   -1    0    0  501  503 -0.00000000000E+00 -0.00000000000E+00 -0.78474633469E+03  0.78474633469E+03  0.00000000000E+00 0.  1.
          6    2    1    2  501    0 -0.86421951167E+02 -0.14982765489E+03 -0.61878216167E+03  0.66519492329E+03  0.17226677730E+03 0.  0.
         24    2    3    3    0    0 -0.11171620182E+03 -0.72493182218E+02 -0.47447408831E+03  0.49946221736E+03  0.81246999173E+02 0.  0.
         -6    2    1    2    0  502  0.86421951167E+02  0.14982765489E+03 -0.38192123436E+02  0.24732346098E+03  0.17260699942E+03 0.  0.
        -24    2    5    5    0    0  0.12541292149E+03  0.10864323453E+03 -0.38889203817E+02  0.19041100041E+03  0.84924823331E+02 0.  0.
          5    1    3    3  501    0  0.25294250649E+02 -0.77334472671E+02 -0.14430807335E+03  0.16573270593E+03  0.47000000000E+01 0. -1.
        -13    1    4    4    0    0 -0.33309839840E+02 -0.62279095774E+02 -0.15473411234E+03  0.17009078964E+03  0.00000000000E+00 0.  1.
         14    1    4    4    0    0 -0.78406361976E+02 -0.10214086444E+02 -0.31973997597E+03  0.32937142772E+03  0.00000000000E+00 0. -1.
         -5    1    5    5    0  502 -0.38990970326E+02  0.41184420359E+02  0.69708038092E+00  0.56912460572E+02  0.47000000000E+01 0.  1.
         13    1    6    6    0    0  0.70134105150E+02  0.90509687222E+02  0.92838266616E+01  0.11487813379E+03  0.00000000000E+00 0. -1.
        -14    1    6    6    0    0  0.55278816343E+02  0.18133547309E+02 -0.48173030479E+02  0.75532866619E+02  0.00000000000E+00 0.  1.
</event>
<event>
12    1  0.8226261E-002  0.1806010E+03  0.7818608E-02  0.1167314E+00
         21   -1    0    0  501  502  0.00000000000E+00  0.00000000000E+00  0.25590283530E+04  0.25590283530E+04  0.00000000000E+00 0.  1.
         21   -1    0    0  502  503 -0.00000000000E+00 -0.00000000000E+00 -0.36613375961E+02  0.36613375961E+02  0.00000000000E+00 0.  1.
         -6    2    1    2    0  503  0.51687450767E+02 -0.14874508048E+01  0.21231366201E+03  0.27849157833E+03  0.17264606294E+03 0.  0.
        -24    2    3    3    0    0  0.27609766090E+02 -0.14920489352E+02  0.22988235334E+03  0.24546234371E+03  0.80130803161E+02 0.  0.
          6    2    1    2  501    0 -0.51687450767E+02  0.14874508048E+01  0.23101013151E+04  0.23171501507E+04  0.17304025482E+03 0.  0.
         24    2    5    5    0    0 -0.26983224963E+02  0.31257838163E+00  0.22546317449E+04  0.22562351089E+04  0.80649670910E+02 0.  0.
          5    1    5    5  501    0 -0.24704225804E+02  0.11748724232E+01  0.55469570131E+02  0.60915041725E+02  0.47000000000E+01 0. -1.
        -11    1    6    6    0    0 -0.33522131746E+02  0.84451797393E+01  0.37875452181E+03  0.38032886056E+03  0.00000000000E+00 0.  1.
         12    1    6    6    0    0  0.65389067826E+01 -0.81326013577E+01  0.18758772231E+04  0.18759062484E+04  0.00000000000E+00 0. -1.
         -5    1    3    3    0  503  0.24077684677E+02  0.13433038547E+02 -0.17568691338E+02  0.33029234616E+02  0.47000000000E+01 0.  1.
         13    1    4    4    0    0  0.29249736996E+02 -0.45937824786E+02  0.15917488151E+03  0.16823339075E+03  0.00000000000E+00 0. -1.
        -14    1    4    4    0    0 -0.16399709057E+01  0.31017335434E+02  0.70707471836E+02  0.77228952961E+02  0.00000000000E+00 0.  1.
</event>
<event>
12    1  0.8226261E-002  0.2367905E+03  0.7818608E-02  0.1122027E+00
         21   -1    0    0  503  502  0.00000000000E+00  0.00000000000E+00  0.39311142745E+03  0.39311142745E+03  0.00000000000E+00 0.  1.
         21   -1    0    0  501  503 -0.00000000000E+00 -0.00000000000E+00 -0.18276581554E+03  0.18276581554E+03  0.00000000000E+00 0.  1.
          6    2    1    2  501    0  0.15167900966E+03  0.52821408412E+02 -0.30300474348E+02  0.23826758460E+03  0.17336868220E+03 0.  0.
         24    2    3    3    0    0  0.13534776273E+03 -0.22586519647E+02 -0.13388044391E+02  0.15913993123E+03  0.79480250590E+02 0.  0.
         -6    2    1    2    0  502 -0.15167900966E+03 -0.52821408412E+02  0.24064608626E+03  0.33760965839E+03  0.17399172237E+03 0.  0.
        -24    2    5    5    0    0 -0.10583264521E+03 -0.24479178681E+02  0.57599635259E+02  0.14673466175E+03  0.80084730112E+02 0.  0.
          5    1    3    3  501    0  0.16331246926E+02  0.75407928060E+02 -0.16912429956E+02  0.79127653368E+02  0.47000000000E+01 0. -1.
        -13    1    4    4    0    0  0.24481796363E+02 -0.37307639920E+02  0.78330798825E+01  0.45305358293E+02  0.00000000000E+00 0.  1.
         14    1    4    4    0    0  0.11086596637E+03  0.14721120273E+02 -0.21221124274E+02  0.11383457294E+03  0.00000000000E+00 0. -1.
         -5    1    5    5    0  502 -0.45846364451E+02 -0.28342229732E+02  0.18304645100E+03  0.19087499664E+03  0.47000000000E+01 0.  1.
         11    1    6    6    0    0 -0.10324942077E+03  0.44903744487E+01  0.56146401021E+02  0.11761387971E+03  0.00000000000E+00 0. -1.
        -12    1    6    6    0    0 -0.25832244331E+01 -0.28969553129E+02  0.14532342373E+01  0.29120782042E+02  0.00000000000E+00 0.  1.
</event>
<event>
12    1  0.8226261E-002  0.1740418E+03  0.7818608E-02  0.1174548E+00
         21   -1    0    0  501  502  0.00000000000E+00  0.00000000000E+00  0.57637005302E+03  0.57637005302E+03  0.00000000000E+00 0. -1.
         21   -1    0    0  502  503 -0.00000000000E+00 -0.00000000000E+00 -0.53708857009E+02  0.53708857009E+02  0.00000000000E+00 0. -1.
         -6    2    1    2    0  503  0.35049256881E+01  0.47370193237E+01  0.20064075222E+03  0.26560730937E+03  0.17394196585E+03 0.  0.
        -24    2    3    3    0    0  0.59741263814E+02  0.39170787882E+02  0.13595645619E+03  0.17311753536E+03  0.79888383664E+02 0.  0.
          6    2    1    2  501    0 -0.35049256881E+01 -0.47370193237E+01  0.32202044380E+03  0.36447160067E+03  0.17060966448E+03 0.  0.
         24    2    5    5    0    0 -0.24660172053E+02  0.26259201121E+02  0.31371450498E+03  0.32574965921E+03  0.79989875048E+02 0.  0.
          5    1    5    5  501    0  0.21155246365E+02 -0.30996220444E+02  0.83059388152E+01  0.38721941457E+02  0.47000000000E+01 0. -1.
        -13    1    6    6    0    0 -0.89779787737E+01  0.53443640618E+02  0.16202558495E+03  0.17084822798E+03  0.00000000000E+00 0.  1.
         14    1    6    6    0    0 -0.15682193279E+02 -0.27184439497E+02  0.15168892003E+03  0.15490143123E+03  0.00000000000E+00 0. -1.
         -5    1    3    3    0  503 -0.56236338126E+02 -0.34433768559E+02  0.64684296023E+02  0.92489774002E+02  0.47000000000E+01 0.  1.
         11    1    4    4    0    0  0.34430561339E+01  0.46060954370E+02  0.37512533688E+02  0.59503414497E+02  0.00000000000E+00 0. -1.
        -12    1    4    4    0    0  0.56298207680E+02 -0.68901664879E+01  0.98443922506E+02  0.11361412087E+03  0.00000000000E+00 0.  1.
</event>
<event>
12    1  0.8226261E-002  0.2048899E+03  0.7818608E-02  0.1146144E+00
         21   -1    0    0  501  502  0.00000000000E+00  0.00000000000E+00  0.10009702971E+03  0.10009702971E+03  0.00000000000E+00 0. -1.
         21   -1    0    0  502  503 -0.00000000000E+00 -0.00000000000E+00 -0.43154305256E+03  0.43154305256E+03  0.00000000000E+00 0.  1.
         -6    2    1    2    0  503 -0.89982589159E+02 -0.61462618573E+02 -0.21902238488E+03  0.29991778853E+03  0.17350894779E+03 0.  0.
        -24    2    3    3    0    0 -0.25866073761E+02 -0.30967948487E+02 -0.20990501419E+03  0.22818168256E+03  0.79866749458E+02 0.  0.
          6    2    1    2  501    0  0.89982589159E+02  0.61462618573E+02 -0.11242363797E+03  0.23172229374E+03  0.17082630713E+03 0.  0.
         24    2    5    5    0    0 -0.49361262092E+01  0.64750038111E+02 -0.31893731002E+02  0.10711280144E+03  0.78987400118E+02 0.  0.
          5    1    5    5  501    0  0.94918715368E+02 -0.32874195378E+01 -0.80529906973E+02  0.12460949230E+03  0.47000000000E+01 0. -1.
        -13    1    6    6    0    0 -0.19099060084E+02 -0.12674245506E+02 -0.23509141931E+01  0.23042078743E+02  0.00000000000E+00 0.  1.
         14    1    6    6    0    0  0.14162933875E+02  0.77424283617E+02 -0.29542816809E+02  0.84070722695E+02  0.00000000000E+00 0. -1.
         -5    1    3    3    0  503 -0.64116515397E+02 -0.30494670087E+02 -0.91173706829E+01  0.71736105962E+02  0.47000000000E+01 0.  1.
         11    1    4    4    0    0 -0.35730665677E+02 -0.75570009327E+01 -0.32258284086E+02  0.48727667961E+02  0.00000000000E+00 0. -1.
        -12    1    4    4    0    0  0.98645919154E+01 -0.23410947554E+02 -0.17764673011E+03  0.17945401460E+03  0.00000000000E+00 0.  1.
</event>
<event>
12    1  0.8226261E-002  0.1769128E+03  0.7818608E-02  0.1171707E+00
         21   -1    0    0  501  502  0.00000000000E+00  0.00000000000E+00  0.10574598608E+04  0.10574598608E+04  0.00000000000E+00 0.  1.
         21   -1    0    0  502  503 -0.00000000000E+00 -0.00000000000E+00 -0.29015252212E+02  0.29015252212E+02  0.00000000000E+00 0.  1.
         -6    2    1    2    0  503  0.19457280215E+02 -0.36606318085E+02  0.51589678642E+03  0.54425431545E+03  0.16835871635E+03 0.  0.
        -24    2    3    3    0    0  0.77446518645E+02 -0.19469624952E+02  0.31073601309E+03  0.33031635496E+03  0.78581136267E+02 0.  0.
          6    2    1    2  501    0 -0.19457280215E+02  0.36606318085E+02  0.51254782213E+03  0.54222079752E+03  0.17198696177E+03 0.  0.
         24    2    5    5    0    0 -0.26998525487E+02  0.81723482451E+02  0.44988446164E+03  0.46449554006E+03  0.77151992474E+02 0.  0.
          5    1    5    5  501    0  0.75412452715E+01 -0.45117164367E+02  0.62663360489E+02  0.77725257468E+02  0.47000000000E+01 0. -1.
        -13    1    6    6    0    0 -0.92652056541E+01  0.50513898001E+02  0.39861127207E+03  0.40190601407E+03  0.00000000000E+00 0.  1.
         14    1    6    6    0    0 -0.17733319833E+02  0.31209584450E+02  0.51273189571E+02  0.62589525982E+02  0.00000000000E+00 0. -1.
         -5    1    3    3    0  503 -0.57989238430E+02 -0.17136693132E+02  0.20516077333E+03  0.21393796049E+03  0.47000000000E+01 0.  1.
         13    1    4    4    0    0  0.34759142353E+02  0.19526795993E+02  0.53840022793E+02  0.66994341501E+02  0.00000000000E+00 0. -1.
        -14    1    4    4    0    0  0.42687376292E+02 -0.38996420945E+02  0.25689599030E+03  0.26332201346E+03  0.00000000000E+00 0.  1.
</event>
<event>
12    1  0.8226261E-002  0.2093551E+03  0.7818608E-02  0.1142434E+00
         21   -1    0    0  503  502  0.00000000000E+00  0.00000000000E+00  0.62798742171E+03  0.62798742171E+03  0.00000000000E+00 0.  1.
         21   -1    0    0  501  503 -0.00000000000E+00 -0.00000000000E+00 -0.30346198753E+03  0.30346198753E+03  0.00000000000E+00 0.  1.
          6    2    1    2  501    0 -0.24188269538E+02 -0.11527047426E+03 -0.24677089310E+03  0.32361308838E+03  0.17308149140E+03 0.  0.
         24    2    3    3    0    0  0.51594097529E+02 -0.85327678657E+02 -0.15854840431E+03  0.20342641817E+03  0.79384806198E+02 0.  0.
         -6    2    1    2    0  502  0.24188269538E+02  0.11527047426E+03  0.57129632729E+03  0.60783632086E+03  0.17091853254E+03 0.  0.
        -24    2    5    5    0    0  0.62954238641E+02  0.12673642239E+03  0.39812908908E+03  0.42995082197E+03  0.79533520092E+02 0.  0.
          5    1    3    3  501    0 -0.75782367068E+02 -0.29942795604E+02 -0.88222488794E+02  0.12018667021E+03  0.47000000000E+01 0. -1.
        -11    1    4    4    0    0  0.17164979780E+02 -0.86971433718E+02 -0.13563984229E+03  0.16203960513E+03  0.00000000000E+00 0.  1.
         12    1    4    4    0    0  0.34429117749E+02  0.16437550613E+01 -0.22908562013E+02  0.41386813035E+02  0.00000000000E+00 0. -1.
         -5    1    5    5    0  502 -0.38765969102E+02 -0.11465948126E+02  0.17316723821E+03  0.17788549889E+03  0.47000000000E+01 0.  1.
         11    1    6    6    0    0 -0.83730747103E+01  0.22975107404E+02  0.20585557945E+02  0.31964498060E+02  0.00000000000E+00 0. -1.
        -12    1    6    6    0    0  0.71327313351E+02  0.10376131498E+03  0.37754353113E+03  0.39798632391E+03  0.00000000000E+00 0.  1.
</event>
<event>
12    1  0.8226261E-002  0.3217178E+03  0.7818608E-02  0.1074980E+00
         21   -1    0    0  503  502  0.00000000000E+00  0.00000000000E+00  0.39023166369E+03  0.39023166369E+03  0.00000000000E+00 0. -1.
         21   -1    0    0  501  503 -0.00000000000E+00 -0.00000000000E+00 -0.30997185938E+03  0.30997185938E+03  0.00000000000E+00 0. -1.
          6    2    1    2  501    0 -0.21834734817E+03  0.16097914717E+03 -0.94086683063E+02  0.33519340889E+03  0.17295221062E+03 0.  0.
         24    2    3    3    0    0 -0.21350409365E+03  0.11606775310E+03 -0.12032317812E+03  0.28274406090E+03  0.80067568128E+02 0.  0.
         -6    2    1    2    0  502  0.21834734817E+03 -0.16097914717E+03  0.17434648737E+03  0.36501011417E+03  0.17101413833E+03 0.  0.
        -24    2    5    5    0    0  0.21049611423E+03 -0.18483591096E+03  0.17361762387E+03  0.33944826183E+03  0.81296463982E+02 0.  0.
          5    1    3    3  501    0 -0.48432545227E+01  0.44911394074E+02  0.26236495061E+02  0.52449347995E+02  0.47000000000E+01 0. -1.
        -13    1    4    4    0    0 -0.64103510417E+02 -0.39525072046E+01 -0.30400119363E+02  0.71056664841E+02  0.00000000000E+00 0.  1.
         14    1    4    4    0    0 -0.14940058323E+03  0.12002026030E+03 -0.89923058762E+02  0.21168739606E+03  0.00000000000E+00 0. -1.
         -5    1    5    5    0  502  0.78512339375E+01  0.23856763789E+02  0.72886350767E+00  0.25561852336E+02  0.47000000000E+01 0.  1.
         13    1    6    6    0    0  0.41989583004E+02 -0.34751622219E+01  0.40157278106E+02  0.58204886549E+02  0.00000000000E+00 0. -1.
        -14    1    6    6    0    0  0.16850653123E+03 -0.18136074874E+03  0.13346034576E+03  0.28124337528E+03  0.00000000000E+00 0.  1.
</event>
<event>
12    1  0.8226261E-002  0.3072604E+03  0.7818608E-02  0.1081790E+00
         21   -1    0    0  503  502  0.00000000000E+00  0.00000000000E+00  0.60196883682E+03  0.60196883682E+03  0.00000000000E+00 0.  1.
         21   -1    0    0  501  503 -0.00000000000E+00 -0.00000000000E+00 -0.15632324674E+03  0.15632324674E+03  0.00000000000E+00 0.  1.
          6    2    1    2  501    0  0.57744965442E+02 -0.24687741261E+03  0.22554612797E+03  0.38033347302E+03  0.17175435064E+03 0.  0.
         24    2    3    3    0    0 -0.24600167268E+02 -0.13149881081E+03  0.74995198786E+02  0.17349872035E+03  0.81119791957E+02 0.  0.
         -6    2    1    2    0  502 -0.57744965442E+02  0.24687741261E+03  0.22009946211E+03  0.37795861054E+03  0.17356843080E+03 0.  0.
        -24    2    5    5    0    0  0.24263187860E+02  0.18898853580E+03  0.15340749103E+03  0.25735028465E+03  0.79937111281E+02 0.  0.
          5    1    3    3  501    0  0.82345132709E+02 -0.11537860180E+03  0.15055092918E+03  0.20683475267E+03  0.47000000000E+01 0. -1.
        -11    1    4    4    0    0 -0.20981550589E+02 -0.80446313631E+02  0.52771957672E+00  0.83139120334E+02  0.00000000000E+00 0.  1.
         12    1    4    4    0    0 -0.36186166786E+01 -0.51052497181E+02  0.74467479209E+02  0.90359600015E+02  0.00000000000E+00 0. -1.
         -5    1    5    5    0  502 -0.82008153301E+02  0.57888876814E+02  0.66691971083E+02  0.12060832589E+03  0.47000000000E+01 0.  1.
         11    1    6    6    0    0 -0.23568374692E+01  0.94238482910E+02  0.28811450524E+02  0.98572541944E+02  0.00000000000E+00 0. -1.
        -12    1    6    6    0    0  0.26620025329E+02  0.94750052886E+02  0.12459604050E+03  0.15877774271E+03  0.00000000000E+00 0.  1.
</event>
<event>
12    1  0.8226261E-002  0.1860284E+03  0.7818608E-02  0.1162479E+00
         21   -1    0    0  501  502  0.00000000000E+00  0.00000000000E+00  0.27608385093E+03  0.27608385093E+03  0.00000000000E+00 0. -1.
         21   -1    0    0  502  503 -0.00000000000E+00 -0.00000000000E+00 -0.18824651363E+03  0.18824651363E+03  0.00000000000E+00 0. -1.
         -6    2    1    2    0  503 -0.38044701180E+02 -0.55674278174E+02 -0.91334445771E+02  0.20724030523E+03  0.17337686867E+03 0.  0.
        -24    2    3    3    0    0  0.40916449508E+02 -0.75117828347E+01 -0.60602441604E+02  0.10966451236E+03  0.81382225458E+02 0.  0.
          6    2    1    2  501    0  0.38044701180E+02  0.55674278174E+02  0.17917178307E+03  0.25709005933E+03  0.17159762884E+03 0.  0.
         24    2    5    5    0    0  0.64573524135E+01 -0.24756692542E+02  0.46447405769E+02  0.98645267745E+02  0.83180142582E+02 0.  0.
          5    1    5    5  501    0  0.31587348766E+02  0.80430970715E+02  0.13272437730E+03  0.15844479159E+03  0.47000000000E+01 0. -1.
        -11    1    6    6    0    0  0.36129181678E+02 -0.71342542070E+01 -0.45096039752E+01  0.37101912077E+02  0.00000000000E+00 0.  1.
         12    1    6    6    0    0 -0.29671829264E+02 -0.17622438335E+02  0.50957009744E+02  0.61543355667E+02  0.00000000000E+00 0. -1.
         -5    1    3    3    0  503 -0.78961150688E+02 -0.48162495339E+02 -0.30732004166E+02  0.97575792875E+02  0.47000000000E+01 0.  1.
         11    1    4    4    0    0  0.28133754989E+02 -0.43326886575E+02 -0.24294975666E+02  0.57087416413E+02  0.00000000000E+00 0. -1.
        -12    1    4    4    0    0  0.12782694518E+02  0.35815103740E+02 -0.36307465939E+02  0.52577095945E+02  0.00000000000E+00 0.  1.
</event>
<event>
12    1  0.8226261E-002  0.1995988E+03  0.7818608E-02  0.1150307E+00
         21   -1    0    0  503  502  0.00000000000E+00  0.00000000000E+00  0.95915904629E+02  0.95915904629E+02  0.00000000000E+00 0.  1.
         21   -1    0    0  501  503 -0.00000000000E+00 -0.00000000000E+00 -0.46090362537E+03  0.46090362537E+03  0.00000000000E+00 0.  1.
          6    2    1    2  501    0 -0.15623562397E+02  0.10020742493E+03 -0.27169375771E+03  0.33649375970E+03  0.17066027255E+03 0.  0.
         24    2    3    3    0    0 -0.12951132848E+02  0.13477750063E+03 -0.25131775271E+03  0.29600297565E+03  0.78258815767E+02 0.  0.
         -6    2    1    2    0  502  0.15623562397E+02 -0.10020742493E+03 -0.93293963030E+02  0.22032577030E+03  0.17191293670E+03 0.  0.
        -24    2    5    5    0    0  0.38633124650E+02  0.18513505783E+01 -0.27721565168E+02  0.96765003971E+02  0.84255771310E+02 0.  0.
          5    1    3    3  501    0 -0.26724295491E+01 -0.34570075700E+02 -0.20376004993E+02  0.40490784051E+02  0.47000000000E+01 0. -1.
        -13    1    4    4    0    0 -0.36932854555E+02  0.34139242436E+02 -0.10911707221E+03  0.12015015217E+03  0.00000000000E+00 0.  1.
         14    1    4    4    0    0  0.23981721707E+02  0.10063825819E+03 -0.14220068051E+03  0.17585282348E+03  0.00000000000E+00 0. -1.
         -5    1    5    5    0  502 -0.23009562253E+02 -0.10205877551E+03 -0.65572397862E+02  0.12356076632E+03  0.47000000000E+01 0.  1.
         11    1    6    6    0    0 -0.60523902442E+01  0.30599347228E+02  0.86562384392E+01  0.32371004655E+02  0.00000000000E+00 0. -1.
        -12    1    6    6    0    0  0.44685514894E+02 -0.28747996650E+02 -0.36377803607E+02  0.64393999317E+02  0.00000000000E+00 0.  1.
</event>
<event>
12    1  0.8226261E-002  0.2447052E+03  0.7818608E-02  0.1116841E+00
         21   -1    0    0  503  502  0.00000000000E+00  0.00000000000E+00  0.35507300381E+03  0.35507300381E+03  0.00000000000E+00 0.  1.
         21   -1    0    0  501  503 -0.00000000000E+00 -0.00000000000E+00 -0.72306132193E+03  0.72306132193E+03  0.00000000000E+00 0. -1.
          6    2    1    2  501    0  0.10863378667E+03 -0.13402127549E+03 -0.65620969862E+03  0.70004414493E+03  0.17230099941E+03 0.  0.
         24    2    3    3    0    0  0.14171254176E+03 -0.13157867732E+03 -0.54390737351E+03  0.58285168549E+03  0.80532375508E+02 0.  0.
         -6    2    1    2    0  502 -0.10863378667E+03  0.13402127549E+03  0.28822138050E+03  0.37809018081E+03  0.17354428471E+03 0.  0.
        -24    2    5    5    0    0 -0.17057790391E+02  0.12447655647E+03  0.16518125022E+03  0.22434289330E+03  0.85202740731E+02 0.  0.
          5    1    3    3  501    0 -0.33078755090E+02 -0.24425981733E+01 -0.11230232510E+03  0.11719245943E+03  0.47000000000E+01 0. -1.
        -11    1    4    4    0    0 -0.10489443310E+02 -0.95433123601E+01 -0.43937522929E+02  0.46169352961E+02  0.00000000000E+00 0.  1.
         12    1    4    4    0    0  0.15220198507E+03 -0.12203536496E+03 -0.49996985058E+03  0.53668233253E+03  0.00000000000E+00 0. -1.
         -5    1    5    5    0  502 -0.91575996280E+02  0.95447190190E+01  0.12304013028E+03  0.15374728751E+03  0.47000000000E+01 0.  1.
         11    1    6    6    0    0 -0.23849248612E+02  0.78121941212E+02  0.40541407767E+02  0.91188980155E+02  0.00000000000E+00 0. -1.
        -12    1    6    6    0    0  0.67914582206E+01  0.46354615262E+02  0.12463984245E+03  0.13315391315E+03  0.00000000000E+00 0.  1.
</event>
<event>
12    1  0.8226261E-002  0.1918900E+03  0.7818608E-02  0.1156985E+00
         21   -1    0    0  501  502  0.00000000000E+00  0.00000000000E+00  0.21578204769E+04  0.21578204769E+04  0.00000000000E+00 0. -1.
         21   -1    0    0  502  503 -0.00000000000E+00 -0.00000000000E+00 -0.26772158543E+02  0.26772158543E+02  0.00000000000E+00 0. -1.
         -6    2    1    2    0  503  0.44974459471E+02  0.68144588180E+02  0.40313314168E+03  0.44605513634E+03  0.17257597697E+03 0.  0.
        -24    2    3    3    0    0  0.96378767000E+02  0.48603689596E+02  0.30619724764E+03  0.33450735687E+03  0.80543354586E+02 0.  0.
          6    2    1    2  501    0 -0.44974459471E+02 -0.68144588180E+02  0.17279151767E+04  0.17385374991E+04  0.17365307689E+03 0.  0.
         24    2    5    5    0    0  0.16216231304E+02 -0.40423456113E+02  0.46594802892E+03  0.47477488935E+03  0.80041288989E+02 0.  0.
          5    1    5    5  501    0 -0.61190690776E+02 -0.27721132068E+02  0.12619671478E+04  0.12637626098E+04  0.47000000000E+01 0. -1.
        -13    1    6    6    0    0 -0.12086390047E+02  0.14839908804E+02  0.22997678508E+03  0.23077180372E+03  0.00000000000E+00 0.  1.
         14    1    6    6    0    0  0.28302621352E+02 -0.55263364917E+02  0.23597124384E+03  0.24400308563E+03  0.00000000000E+00 0. -1.
         -5    1    3    3    0  503 -0.51404307528E+02  0.19540898584E+02  0.96935894043E+02  0.11154777947E+03  0.47000000000E+01 0.  1.
         13    1    4    4    0    0  0.65761285998E+02  0.60359370477E+02  0.27544761323E+03  0.28954997492E+03  0.00000000000E+00 0. -1.
        -14    1    4    4    0    0  0.30617481001E+02 -0.11755680881E+02  0.30749634411E+02  0.44957381955E+02  0.00000000000E+00 0.  1.
</event>
<event>
12    1  0.8226261E-002  0.1919479E+03  0.7818608E-02  0.1156723E+00
         21   -1    0    0  503  502  0.00000000000E+00  0.00000000000E+00  0.39316659124E+03  0.39316659124E+03  0.00000000000E+00 0. -1.
         21   -1    0    0  501  503 -0.00000000000E+00 -0.00000000000E+00 -0.10125600311E+03  0.10125600311E+03  0.00000000000E+00 0.  1.
          6    2    1    2  501    0  0.81977330318E+02 -0.17974452907E+02  0.78396853270E+02  0.20731268936E+03  0.17259525174E+03 0.  0.
         24    2    3    3    0    0 -0.50312793347E+01  0.23954700297E+02  0.70677863628E+02  0.11030637594E+03  0.81074007722E+02 0.  0.
         -6    2    1    2    0  502 -0.81977330318E+02  0.17974452907E+02  0.21351373486E+03  0.28710990499E+03  0.17262855767E+03 0.  0.
        -24    2    5    5    0    0 -0.27386531324E+02 -0.37217997226E+01  0.21220666233E+03  0.22816347887E+03  0.79139318068E+02 0.  0.
          5    1    3    3  501    0  0.87008609652E+02 -0.41929153205E+02  0.77189896423E+01  0.97006313419E+02  0.47000000000E+01 0. -1.
        -13    1    4    4    0    0  0.78569293393E+01  0.52567277941E+02  0.47639734029E+02  0.71376426831E+02  0.00000000000E+00 0.  1.
         14    1    4    4    0    0 -0.12888208674E+02 -0.28612577644E+02  0.23038129599E+02  0.38929949110E+02  0.00000000000E+00 0. -1.
         -5    1    5    5    0  502 -0.54590798994E+02  0.21696252630E+02  0.13070725314E+01  0.58946426114E+02  0.47000000000E+01 0.  1.
         11    1    6    6    0    0 -0.24553437697E+02  0.22475166659E+02  0.19224724067E+03  0.19510767787E+03  0.00000000000E+00 0. -1.
        -12    1    6    6    0    0 -0.28330936271E+01 -0.26196966381E+02  0.19959421661E+02  0.33055801005E+02  0.00000000000E+00 0.  1.
</event>
<event>
12    1  0.8226261E-002  0.2524231E+03  0.7818608E-02  0.1111825E+00
         21   -1    0    0  503  502  0.00000000000E+00  0.00000000000E+00  0.19405652509E+03  0.19405652509E+03  0.00000000000E+00 0.  1.
         21   -1    0    0  501  503 -0.00000000000E+00 -0.00000000000E+00 -0.67135930952E+03  0.67135930952E+03  0.00000000000E+00 0.  1.
          6    2    1    2  501    0  0.16129124064E+03  0.90195720274E+02 -0.54816822204E+03  0.60349468636E+03  0.17195145983E+03 0.  0.
         24    2    3    3    0    0  0.16558419310E+03  0.75892181676E+02 -0.33323314304E+03  0.38799016472E+03  0.79462519822E+02 0.  0.
         -6    2    1    2    0  502 -0.16129124064E+03 -0.90195720274E+02  0.70865437619E+02  0.26192114826E+03  0.17155362249E+03 0.  0.
        -24    2    5    5    0    0 -0.10432726685E+03 -0.59128493867E+02  0.11429148935E+03  0.18370363848E+03  0.79398519223E+02 0.  0.
          5    1    3    3  501    0 -0.42929524603E+01  0.14303538599E+02 -0.21493507901E+03  0.21550452163E+03  0.47000000000E+01 0. -1.
        -11    1    4    4    0    0  0.90994180176E+02  0.11205968180E+02 -0.21643878647E+03  0.23505587174E+03  0.00000000000E+00 0.  1.
         12    1    4    4    0    0  0.74590012929E+02  0.64686213496E+02 -0.11679435657E+03  0.15293429299E+03  0.00000000000E+00 0. -1.
         -5    1    5    5    0  502 -0.56963973792E+02 -0.31067226407E+02 -0.43426051735E+02  0.78217509779E+02  0.47000000000E+01 0.  1.
         13    1    6    6    0    0 -0.38609802067E+02 -0.58445375776E+02  0.89058998576E+02  0.11330526904E+03  0.00000000000E+00 0. -1.
        -14    1    6    6    0    0 -0.65717464786E+02 -0.68311809077E+00  0.25232490778E+02  0.70398369435E+02  0.00000000000E+00 0.  1.
</event>
<event>
12    1  0.8226261E-002  0.2252955E+03  0.7818608E-02  0.1131458E+00
         21   -1    0    0  503  502  0.00000000000E+00  0.00000000000E+00  0.66644360235E+02  0.66644360235E+02  0.00000000000E+00 0. -1.
         21   -1    0    0  501  503 -0.00000000000E+00 -0.00000000000E+00 -0.20431048970E+04  0.20431048970E+04  0.00000000000E+00 0. -1.
          6    2    1    2  501    0 -0.88096014722E+02  0.10338549237E+03 -0.18258633997E+04  0.18387556435E+04  0.16969294076E+03 0.  0.
         24    2    3    3    0    0  0.11048165546E+01  0.75777297165E+02 -0.12972284667E+04  0.13019167634E+04  0.80262971843E+02 0.  0.
         -6    2    1    2    0  502  0.88096014722E+02 -0.10338549237E+03 -0.15059713712E+03  0.27099361383E+03  0.17974585722E+03 0.  0.
        -24    2    5    5    0    0  0.77446559579E+01 -0.97876475904E+02 -0.35839150909E+02  0.13071469340E+03  0.78499057969E+02 0.  0.
          5    1    3    3  501    0 -0.89200831277E+02  0.27608195206E+02 -0.52863493301E+03  0.53683888006E+03  0.47000000000E+01 0. -1.
        -13    1    4    4    0    0 -0.48828548789E+01 -0.58113193731E+01 -0.12768523927E+02  0.14854255549E+02  0.00000000000E+00 0.  1.
         14    1    4    4    0    0  0.59876714334E+01  0.81588616538E+02 -0.12844599428E+04  0.12870625078E+04  0.00000000000E+00 0. -1.
         -5    1    5    5    0  502  0.80351358764E+02 -0.55090164675E+01 -0.11475798621E+03  0.14027892043E+03  0.47000000000E+01 0.  1.
         13    1    6    6    0    0  0.23116939486E+02 -0.58538067100E+02 -0.55697784170E+02  0.84043687166E+02  0.00000000000E+00 0. -1.
        -14    1    6    6    0    0 -0.15372283528E+02 -0.39338408803E+02  0.19858633261E+02  0.46671006236E+02  0.00000000000E+00 0.  1.
</event>
<event>
12    1  0.8226261E-002  0.1981520E+03  0.7818608E-02  0.1151478E+00
         21   -1    0    0  503  502  0.00000000000E+00  0.00000000000E+00  0.20428971121E+03  0.20428971121E+03  0.00000000000E+00 0.  1.
         21   -1    0    0  501  503 -0.00000000000E+00 -0.00000000000E+00 -0.19327360600E+03  0.19327360600E+03  0.00000000000E+00 0. -1.
          6    2    1    2  501    0 -0.99550645640E+02 -0.18620847107E+02  0.24959278468E+02  0.19971771738E+03  0.17031480869E+03 0.  0.
         24    2    3    3    0    0 -0.13479812489E+03 -0.27878528656E+02  0.30735777722E+02  0.16252165032E+03  0.80751792278E+02 0.  0.
         -6    2    1    2    0  502  0.99550645640E+02  0.18620847107E+02 -0.13943173255E+02  0.19784559982E+03  0.16938536624E+03 0.  0.
        -24    2    5    5    0    0  0.18093129331E+02 -0.39821317242E+02 -0.28694165429E+02  0.96403521241E+02  0.80976448070E+02 0.  0.
          5    1    3    3  501    0  0.35247479252E+02  0.92576815486E+01 -0.57764992535E+01  0.37196067062E+02  0.47000000000E+01 0. -1.
        -11    1    4    4    0    0 -0.42836327445E+02 -0.46760702934E+02 -0.99723438592E+00  0.63423250975E+02  0.00000000000E+00 0.  1.
         12    1    4    4    0    0 -0.91961797447E+02  0.18882174278E+02  0.31733012108E+02  0.99098399345E+02  0.00000000000E+00 0. -1.
         -5    1    5    5    0  502  0.81457516309E+02  0.58442164349E+02  0.14750992174E+02  0.10144207858E+03  0.47000000000E+01 0.  1.
         11    1    6    6    0    0  0.47787782787E+02 -0.16097214128E+02 -0.29434771183E+02  0.58388339940E+02  0.00000000000E+00 0. -1.
        -12    1    6    6    0    0 -0.29694653456E+02 -0.23724103114E+02  0.74060575386E+00  0.38015181301E+02  0.00000000000E+00 0.  1.
</event>
<event>
12    1  0.8226261E-002  0.2029981E+03  0.7818608E-02  0.1147559E+00
         21   -1    0    0  503  502  0.00000000000E+00  0.00000000000E+00  0.44307276179E+03  0.44307276179E+03  0.00000000000E+00 0. -1.
         21   -1    0    0  501  503 -0.00000000000E+00 -0.00000000000E+00 -0.29708877074E+03  0.29708877074E+03  0.00000000000E+00 0. -1.
          6    2    1    2  501    0  0.75979473969E+01  0.10599381598E+03 -0.23436340465E+03  0.30903235163E+03  0.17112092533E+03 0.  0.
         24    2    3    3    0    0  0.68600221341E+02  0.43700397476E+02 -0.13384036936E+03  0.17588311942E+03  0.80036942209E+02 0.  0.
         -6    2    1    2    0  502 -0.75979473969E+01 -0.10599381598E+03  0.38034739569E+03  0.43112918090E+03  0.17296187841E+03 0.  0.
        -24    2    5    5    0    0  0.83578695915E+01  0.11615533006E+02  0.16446097789E+03  0.18472385941E+03  0.82889784637E+02 0.  0.
          5    1    3    3  501    0 -0.61002273944E+02  0.62293418505E+02 -0.10052303528E+03  0.13314923221E+03  0.47000000000E+01 0. -1.
        -11    1    4    4    0    0  0.68869839312E+02  0.24225024516E+02 -0.46865714551E+02  0.86754260876E+02  0.00000000000E+00 0.  1.
         12    1    4    4    0    0 -0.26961797154E+00  0.19475372960E+02 -0.86974654812E+02  0.89128858544E+02  0.00000000000E+00 0. -1.
         -5    1    5    5    0  502 -0.15955816988E+02 -0.11760934899E+03  0.21588641780E+03  0.24640532149E+03  0.47000000000E+01 0.  1.
         13    1    6    6    0    0 -0.28124815830E+02 -0.19990673720E+02  0.85194481728E+02  0.91916984383E+02  0.00000000000E+00 0. -1.
        -14    1    6    6    0    0  0.36482685421E+02  0.31606206726E+02  0.79266496163E+02  0.92806875031E+02  0.00000000000E+00 0.  1.
</event>
<event>
12    1  0.8226261E-002  0.2106576E+03  0.7818608E-02  0.1141225E+00
         21   -1    0    0  503  502  0.00000000000E+00  0.00000000000E+00  0.40415187735E+02  0.40415187735E+02  0.00000000000E+00 0.  1.
         21   -1    0    0  501  503 -0.00000000000E+00 -0.00000000000E+00 -0.10935457261E+04  0.10935457261E+04  0.00000000000E+00 0.  1.
          6    2    1    2  501    0  0.13966891055E+02  0.11943794942E+03 -0.53622318919E+03  0.57611797169E+03  0.17296274418E+03 0.  0.
         24    2    3    3    0    0  0.65945401341E+02  0.90431977138E+02 -0.27653108149E+03  0.30964997594E+03  0.82987529920E+02 0.  0.
         -6    2    1    2    0  502 -0.13966891055E+02 -0.11943794942E+03 -0.51690734919E+03  0.55784294216E+03  0.17185762323E+03 0.  0.
        -24    2    5    5    0    0  0.30889684543E+02 -0.10355800906E+03 -0.23543725843E+03  0.27234025063E+03  0.84024256032E+02 0.  0.
          5    1    3    3  501    0 -0.51978510286E+02  0.29005972282E+02 -0.25969210770E+03  0.26646799575E+03  0.47000000000E+01 0. -1.
        -11    1    4    4    0    0  0.44807364547E+02  0.30182808556E+02 -0.47671314308E+02  0.72050371671E+02  0.00000000000E+00 0.  1.
         12    1    4    4    0    0  0.21138036794E+02  0.60249168581E+02 -0.22885976718E+03  0.23759960427E+03  0.00000000000E+00 0. -1.
         -5    1    5    5    0  502 -0.44856575598E+02 -0.15879940359E+02 -0.28147009076E+03  0.28550269153E+03  0.47000000000E+01 0.  1.
         11    1    6    6    0    0  0.53453808208E+02 -0.46810597217E+02 -0.16153194449E+03  0.17646844113E+03  0.00000000000E+00 0. -1.
        -12    1    6    6    0    0 -0.22564123665E+02 -0.56747411843E+02 -0.73905313948E+02  0.95871809503E+02  0.00000000000E+00 0.  1.
</event>
<event>
12    1  0.8226261E-002  0.1766817E+03  0.7818608E-02  0.1171166E+00
         21   -1    0    0  501  502  0.00000000000E+00  0.00000000000E+00  0.15633039663E+02  0.15633039663E+02  0.00000000000E+00 0.  1.
         21   -1    0    0  502  503 -0.00000000000E+00 -0.00000000000E+00 -0.30906430664E+04  0.30906430664E+04  0.00000000000E+00 0.  1.
         -6    2    1    2    0  503 -0.38513488027E+02 -0.31612205923E+01 -0.24623589761E+04  0.24686573208E+04  0.17194172930E+03 0.  0.
        -24    2    3    3    0    0 -0.14608810918E+02 -0.25650200519E+02 -0.23492910261E+04  0.23508284656E+04  0.79716993746E+02 0.  0.
          6    2    1    2  501    0  0.38513488027E+02  0.31612205923E+01 -0.61265105070E+03  0.63761878533E+03  0.17240395414E+03 0.  0.
         24    2    5    5    0    0  0.14313881423E+02 -0.10831492250E+02 -0.12586699401E+03  0.15001010532E+03  0.79613586095E+02 0.  0.
          5    1    5    5  501    0  0.24199606605E+02  0.13992712842E+02 -0.48678405669E+03  0.48760868001E+03  0.47000000000E+01 0. -1.
        -13    1    6    6    0    0  0.34083424747E+02  0.23597772728E+02 -0.56367835742E+02  0.69970476821E+02  0.00000000000E+00 0.  1.
         14    1    6    6    0    0 -0.19769543325E+02 -0.34429264978E+02 -0.69499158269E+02  0.80039628500E+02  0.00000000000E+00 0. -1.
         -5    1    3    3    0  503 -0.23904677109E+02  0.22488979927E+02 -0.11306794994E+03  0.11782885516E+03  0.47000000000E+01 0.  1.
         11    1    4    4    0    0 -0.24902340375E+02 -0.49069652053E+02 -0.12103952476E+04  0.12116454154E+04  0.00000000000E+00 0. -1.
        -12    1    4    4    0    0  0.10293529457E+02  0.23419451533E+02 -0.11388957785E+04  0.11391830502E+04  0.00000000000E+00 0.  1.
</event>
<event>
12    1  0.8226261E-002  0.2626547E+03  0.7818608E-02  0.1105742E+00
         21   -1    0    0  501  502  0.00000000000E+00  0.00000000000E+00  0.58040488141E+02  0.58040488141E+02  0.00000000000E+00 0.  1.
         21   -1    0    0  502  503 -0.00000000000E+00 -0.00000000000E+00 -0.21045191165E+04  0.21045191165E+04  0.00000000000E+00 0. -1.
         -6    2    1    2    0  503  0.19549118187E+03 -0.18761158323E+02 -0.17373773217E+04  0.17569352296E+04  0.17254755785E+03 0.  0.
        -24    2    3    3    0    0  0.92629999681E+02  0.51212828373E+02 -0.10517133200E+04  0.10600607826E+04  0.80155378621E+02 0.  0.
          6    2    1    2  501    0 -0.19549118187E+03  0.18761158323E+02 -0.30910130661E+03  0.40562437502E+03  0.17440966891E+03 0.  0.
         24    2    5    5    0    0 -0.62661411174E+02 -0.28708432434E+02 -0.65349045348E+02  0.12396080815E+03  0.79656498081E+02 0.  0.
          5    1    5    5  501    0 -0.13282977069E+03  0.47469590756E+02 -0.24375226127E+03  0.28166356687E+03  0.47000000000E+01 0. -1.
        -11    1    6    6    0    0 -0.74873802824E+02 -0.42289264599E+02 -0.46683092342E+02  0.97845691577E+02  0.00000000000E+00 0.  1.
         12    1    6    6    0    0  0.12212391649E+02  0.13580832165E+02 -0.18665953005E+02  0.26115116574E+02  0.00000000000E+00 0. -1.
         -5    1    3    3    0  503  0.10286118218E+03 -0.69973986696E+02 -0.68566400174E+03  0.69687444701E+03  0.47000000000E+01 0.  1.
         11    1    4    4    0    0  0.21566714955E+02  0.38591831844E+02 -0.67811479094E+03  0.67955435571E+03  0.00000000000E+00 0. -1.
        -12    1    4    4    0    0  0.71063284726E+02  0.12620996530E+02 -0.37359852905E+03  0.38050642688E+03  0.00000000000E+00 0.  1.
</event>
<event>
12    1  0.8226261E-002  0.2450962E+03  0.7818608E-02  0.1116530E+00
         21   -1    0    0  501  502  0.00000000000E+00  0.00000000000E+00  0.61251148915E+03  0.61251148915E+03  0.00000000000E+00 0. -1.
         21   -1    0    0  502  503 -0.00000000000E+00 -0.00000000000E+00 -0.24400427542E+03  0.24400427542E+03  0.00000000000E+00 0.  1.
         -6    2    1    2    0  503  0.16615529102E+03 -0.53703626451E+02 -0.14709812945E+03  0.28584964788E+03  0.17198982900E+03 0.  0.
        -24    2    3    3    0    0  0.63073782867E+02 -0.45588901329E+02 -0.53443542876E+01  0.11032794307E+03  0.78019503270E+02 0.  0.
          6    2    1    2  501    0 -0.16615529102E+03  0.53703626451E+02  0.51560534317E+03  0.57066611669E+03  0.17122875520E+03 0.  0.
         24    2    5    5    0    0 -0.15693670795E+03  0.89463204327E+01  0.29021114967E+03  0.34063822451E+03  0.84277646233E+02 0.  0.
          5    1    5    5  501    0 -0.92185830663E+01  0.44757306018E+02  0.22539419351E+03  0.23002789218E+03  0.47000000000E+01 0. -1.
        -13    1    6    6    0    0 -0.97856938393E+02 -0.33537721234E+02  0.14381608279E+03  0.17715480464E+03  0.00000000000E+00 0.  1.
         14    1    6    6    0    0 -0.59079769558E+02  0.42484041666E+02  0.14639506687E+03  0.16348341987E+03  0.00000000000E+00 0. -1.
         -5    1    3    3    0  503  0.10308150815E+03 -0.81147251220E+01 -0.14175377516E+03  0.17552170481E+03  0.47000000000E+01 0.  1.
         13    1    4    4    0    0  0.71707059776E+02 -0.35826651399E+02 -0.27397747141E+02  0.84711793280E+02  0.00000000000E+00 0. -1.
        -14    1    4    4    0    0 -0.86332769093E+01 -0.97622499293E+01  0.22053392854E+02  0.25616149793E+02  0.00000000000E+00 0.  1.
</event>
<event>
12    1  0.8226261E-002  0.2108555E+03  0.7818608E-02  0.1140898E+00
         21   -1    0    0  501  502  0.00000000000E+00  0.00000000000E+00  0.23314378557E+02  0.23314378557E+02  0.00000000000E+00 0.  1.
         21   -1    0    0  502  503 -0.00000000000E+00 -0.00000000000E+00 -0.19066172967E+04  0.19066172967E+04  0.00000000000E+00 0.  1.
         -6    2    1    2    0  503 -0.76678234384E+02 -0.96091822454E+02 -0.94115259421E+03  0.96448340192E+03  0.17130918548E+03 0.  0.
        -24    2    3    3    0    0  0.13188626925E+02 -0.58048940942E+02 -0.63258493988E+03  0.64081783240E+03  0.83307675142E+02 0.  0.
          6    2    1    2  501    0  0.76678234384E+02  0.96091822454E+02 -0.94215032394E+03  0.96544827334E+03  0.17125987745E+03 0.  0.
         24    2    5    5    0    0  0.87411318158E+02  0.17197209042E+02 -0.37891544669E+03  0.39659400723E+03  0.75982947395E+02 0.  0.
          5    1    5    5  501    0 -0.10733083774E+02  0.78894613412E+02 -0.56323487725E+03  0.56885426610E+03  0.47000000000E+01 0. -1.
        -13    1    6    6    0    0 -0.40054837164E+01  0.11760118908E+02 -0.85670277145E+01  0.15090999317E+02  0.00000000000E+00 0.  1.
         14    1    6    6    0    0  0.91416801874E+02  0.54370901338E+01 -0.37034841897E+03  0.38150300792E+03  0.00000000000E+00 0. -1.
         -5    1    3    3    0  503 -0.89866861309E+02 -0.38042881512E+02 -0.30856765433E+03  0.32366556952E+03  0.47000000000E+01 0.  1.
         11    1    4    4    0    0  0.47284053261E+02 -0.20453918584E+02 -0.33408441864E+03  0.33803334637E+03  0.00000000000E+00 0. -1.
        -12    1    4    4    0    0 -0.34095426336E+02 -0.37595022358E+02 -0.29850052124E+03  0.30278448603E+03  0.00000000000E+00 0.  1.
</event>
<event>
12    1  0.8226261E-002  0.2926199E+03  0.7818608E-02  0.1088994E+00
         21   -1    0    0  503  502  0.00000000000E+00  0.00000000000E+00  0.23964650870E+03  0.23964650870E+03  0.00000000000E+00 0. -1.
         21   -1    0    0  501  503 -0.00000000000E+00 -0.00000000000E+00 -0.36800072347E+03  0.36800072347E+03  0.00000000000E+00 0. -1.
          6    2    1    2  501    0  0.18100573887E+03  0.15270751032E+03 -0.11609159156E+03  0.31480736885E+03  0.17188298531E+03 0.  0.
         24    2    3    3    0    0  0.14046911860E+03  0.45563705446E+02 -0.10954333756E+03  0.19996842886E+03  0.78613009129E+02 0.  0.
         -6    2    1    2    0  502 -0.18100573887E+03 -0.15270751032E+03 -0.12262623215E+02  0.29283986332E+03  0.17182011643E+03 0.  0.
        -24    2    5    5    0    0 -0.38253255456E+02 -0.61340179231E+02 -0.33291812227E+01  0.12305129746E+03  0.99521903208E+02 0.  0.
          5    1    3    3  501    0  0.40536620271E+02  0.10714380488E+03 -0.65482539948E+01  0.11483893998E+03  0.47000000000E+01 0. -1.
        -13    1    4    4    0    0  0.75411384215E+02  0.20139918573E+02 -0.10478110380E+02  0.78754580733E+02  0.00000000000E+00 0.  1.
         14    1    4    4    0    0  0.65057734384E+02  0.25423786873E+02 -0.99065227182E+02  0.12121384813E+03  0.00000000000E+00 0. -1.
         -5    1    5    5    0  502 -0.14275248341E+03 -0.91367331092E+02 -0.89334419922E+01  0.16978856586E+03  0.47000000000E+01 0.  1.
         11    1    6    6    0    0 -0.24364612865E+02 -0.55354514380E+02  0.43070968547E+02  0.74248669711E+02  0.00000000000E+00 0. -1.
        -12    1    6    6    0    0 -0.13888642591E+02 -0.59856648516E+01 -0.46400149769E+02  0.48802627751E+02  0.00000000000E+00 0.  1.
</event>
<event>
12    1  0.8226261E-002  0.2463915E+03  0.7818608E-02  0.1115804E+00
         21   -1    0    0  503  502  0.00000000000E+00  0.00000000000E+00  0.10486284777E+03  0.10486284777E+03  0.00000000000E+00 0. -1.
         21   -1    0    0  501  503 -0.00000000000E+00 -0.00000000000E+00 -0.63968259827E+03  0.63968259827E+03  0.00000000000E+00 0. -1.
          6    2    1    2  501    0 -0.14060643296E+03  0.10305440642E+03 -0.38421066753E+03  0.45576898703E+03  0.17238663759E+03 0.  0.
         24    2    3    3    0    0 -0.88422648631E+02  0.13794561702E+02 -0.11068389666E+03  0.16331479983E+03  0.80074616081E+02 0.  0.
         -6    2    1    2    0  502  0.14060643296E+03 -0.10305440642E+03 -0.15060908297E+03  0.28877645901E+03  0.17412170380E+03 0.  0.
        -24    2    5    5    0    0  0.95797095142E+02 -0.88600116502E+02 -0.17735682733E+03  0.23442266355E+03  0.80445490240E+02 0.  0.
          5    1    3    3  501    0 -0.52183784331E+02  0.89259844713E+02 -0.27352677087E+03  0.29245418720E+03  0.47000000000E+01 0. -1.
        -11    1    4    4    0    0 -0.25056733252E+02 -0.32787993073E+02 -0.42324093558E+02  0.59111938443E+02  0.00000000000E+00 0.  1.
         12    1    4    4    0    0 -0.63365915379E+02  0.46582554775E+02 -0.68359803100E+02  0.10420286139E+03  0.00000000000E+00 0. -1.
         -5    1    5    5    0  502  0.44809337821E+02 -0.14454289914E+02  0.26747744366E+02  0.54353795466E+02  0.47000000000E+01 0.  1.
         11    1    6    6    0    0  0.76837710439E+02 -0.41626260586E+02 -0.58336510921E+02  0.10507106082E+03  0.00000000000E+00 0. -1.
        -12    1    6    6    0    0  0.18959384702E+02 -0.46973855916E+02 -0.11902031641E+03  0.12935160272E+03  0.00000000000E+00 0.  1.
</event>
<event>
12    1  0.8226261E-002  0.2242653E+03  0.7818608E-02  0.1131992E+00
         21   -1    0    0  503  502  0.00000000000E+00  0.00000000000E+00  0.51923349760E+03  0.51923349760E+03  0.00000000000E+00 0.  1.
         21   -1    0    0  501  503 -0.00000000000E+00 -0.00000000000E+00 -0.16401218954E+03  0.16401218954E+03  0.00000000000E+00 0. -1.
          6    2    1    2  501    0  0.73823763338E+02  0.12431864187E+03 -0.44073488723E+02  0.22855505241E+03  0.17143473050E+03 0.  0.
         24    2    3    3    0    0  0.54590934430E+02  0.99539158060E+01 -0.55195462586E+02  0.11195753709E+03  0.80054359407E+02 0.  0.
         -6    2    1    2    0  502 -0.73823763338E+02 -0.12431864187E+03  0.39929479678E+03  0.45469063474E+03  0.16248743285E+03 0.  0.
        -24    2    5    5    0    0 -0.64191172404E+02 -0.14873366856E+03  0.28676869257E+03  0.33904853832E+03  0.80469978985E+02 0.  0.
          5    1    3    3  501    0  0.19232828908E+02  0.11436472606E+03  0.11121973863E+02  0.11659751531E+03  0.47000000000E+01 0. -1.
        -11    1    4    4    0    0  0.14850823740E+02 -0.29630750789E+02 -0.43452611620E+02  0.54650323097E+02  0.00000000000E+00 0.  1.
         12    1    4    4    0    0  0.39740110691E+02  0.39584666595E+02 -0.11742850966E+02  0.57307213996E+02  0.00000000000E+00 0. -1.
         -5    1    5    5    0  502 -0.96325909338E+01  0.24415026691E+02  0.11252610421E+03  0.11564209642E+03  0.47000000000E+01 0.  1.
         11    1    6    6    0    0 -0.12986677517E+02 -0.10820888785E+03  0.13273729896E+03  0.17174692934E+03  0.00000000000E+00 0. -1.
        -12    1    6    6    0    0 -0.51204494887E+02 -0.40524780709E+02  0.15403139362E+03  0.16730160898E+03  0.00000000000E+00 0.  1.
</event>
<event>
12    1  0.8226261E-002  0.1781848E+03  0.7818608E-02  0.1170138E+00
         21   -1    0    0  501  502  0.00000000000E+00  0.00000000000E+00  0.25289433426E+02  0.25289433426E+02  0.00000000000E+00 0.  1.
         21   -1    0    0  502  503 -0.00000000000E+00 -0.00000000000E+00 -0.17304665074E+04  0.17304665074E+04  0.00000000000E+00 0. -1.
         -6    2    1    2    0  503 -0.19729495388E+02 -0.32068944473E+02 -0.13163014957E+04  0.13280013007E+04  0.17181430941E+03 0.  0.
        -24    2    3    3    0    0 -0.44087273064E+02 -0.80635334996E+02 -0.87321433872E+03  0.88157066298E+03  0.78853075953E+02 0.  0.
          6    2    1    2  501    0  0.19729495388E+02  0.32068944473E+02 -0.38887557831E+03  0.42775464015E+03  0.17416126601E+03 0.  0.
         24    2    5    5    0    0  0.14533077266E+02  0.74117455439E+02 -0.15730993694E+03  0.19229802781E+03  0.80792992899E+02 0.  0.
          5    1    5    5  501    0  0.51964181213E+01 -0.42048510966E+02 -0.23156564136E+03  0.23545661234E+03  0.47000000000E+01 0. -1.
        -11    1    6    6    0    0 -0.11958983072E+02  0.33356545035E+02 -0.94824552576E+01  0.36682329950E+02  0.00000000000E+00 0.  1.
         12    1    6    6    0    0  0.26492060339E+02  0.40760910404E+02 -0.14782748169E+03  0.15561569786E+03  0.00000000000E+00 0. -1.
         -5    1    3    3    0  503  0.24357777677E+02  0.48566390523E+02 -0.44308715700E+03  0.44643063775E+03  0.47000000000E+01 0.  1.
         13    1    4    4    0    0 -0.36307920930E+02 -0.78801235119E+02 -0.86729675078E+03  0.87162581059E+03  0.00000000000E+00 0. -1.
        -14    1    4    4    0    0 -0.77793521347E+01 -0.18340998763E+01 -0.59175879390E+01  0.99448523874E+01  0.00000000000E+00 0.  1.
</event>
<event>
12    1  0.8226261E-002  0.1950340E+03  0.7818608E-02  0.1154084E+00
         21   -1    0    0  503  502  0.00000000000E+00  0.00000000000E+00  0.24580183542E+03  0.24580183542E+03  0.00000000000E+00 0. -1.
         21   -1    0    0  501  503 -0.00000000000E+00 -0.00000000000E+00 -0.16065465640E+03  0.16065465640E+03  0.00000000000E+00 0. -1.
          6    2    1    2  501    0  0.79417994408E+02  0.47972919324E+02  0.25515699255E+01  0.19465399371E+03  0.17109952640E+03 0.  0.
         24    2    3    3    0    0 -0.22490817068E+02  0.93558111316E+01 -0.12270766342E+02  0.84570032328E+02  0.80050925085E+02 0.  0.
         -6    2    1    2    0  502 -0.79417994408E+02 -0.47972919324E+02  0.82595609101E+02  0.21180249811E+03  0.17155070603E+03 0.  0.
        -24    2    5    5    0    0 -0.10719239476E+03  0.37898335679E+00  0.35525492802E+02  0.13867924834E+03  0.80495466709E+02 0.  0.
          5    1    3    3  501    0  0.10190881148E+03  0.38617108193E+02  0.14822336268E+02  0.11008396138E+03  0.47000000000E+01 0. -1.
        -13    1    4    4    0    0  0.16666693659E+02  0.38006471929E+01  0.24960446839E+02  0.30253057746E+02  0.00000000000E+00 0.  1.
         14    1    4    4    0    0 -0.39157510728E+02  0.55551639386E+01 -0.37231213181E+02  0.54316974581E+02  0.00000000000E+00 0. -1.
         -5    1    5    5    0  502  0.27774400348E+02 -0.48351902681E+02  0.47070116300E+02  0.73123249764E+02  0.47000000000E+01 0.  1.
         13    1    6    6    0    0 -0.10420817531E+03 -0.11541074137E+02  0.52871343282E+02  0.11742197041E+03  0.00000000000E+00 0. -1.
        -14    1    6    6    0    0 -0.29842194440E+01  0.11920057494E+02 -0.17345850481E+02  0.21257277936E+02  0.00000000000E+00 0.  1.
</event>
<event>
12    1  0.8226261E-002  0.1826427E+03  0.7818608E-02  0.1165781E+00
         21   -1    0    0  501  502  0.00000000000E+00  0.00000000000E+00  0.83456576792E+03  0.83456576792E+03  0.00000000000E+00 0.  1.
         21   -1    0    0  502  503 -0.00000000000E+00 -0.00000000000E+00 -0.15004605745E+03  0.15004605745E+03  0.00000000000E+00 0.  1.
         -6    2    1    2    0  503  0.24123830396E+00 -0.54577666512E+02 -0.79765739225E+02  0.19930108241E+03  0.17429735631E+03 0.  0.
        -24    2    3    3    0    0 -0.30294542325E+02 -0.91046274061E+01  0.17481713353E+02  0.87589900261E+02  0.79785504893E+02 0.  0.
          6    2    1    2  501    0 -0.24123830396E+00  0.54577666512E+02  0.76428544969E+03  0.78531074296E+03  0.17205212733E+03 0.  0.
         24    2    5    5    0    0  0.50475096281E+02  0.29964603124E+02  0.27253298189E+03  0.29031525907E+03  0.81013027626E+02 0.  0.
          5    1    5    5  501    0 -0.50716334585E+02  0.24613063388E+02  0.49175246779E+03  0.49499548388E+03  0.47000000000E+01 0. -1.
        -13    1    6    6    0    0  0.58941773737E+02  0.24066697560E+02  0.27266176451E+03  0.27999602935E+03  0.00000000000E+00 0.  1.
         14    1    6    6    0    0 -0.84666774566E+01  0.58979055639E+01 -0.12878261700E+00  0.10319229727E+02  0.00000000000E+00 0. -1.
         -5    1    3    3    0  503  0.30535780628E+02 -0.45473039106E+02 -0.97247452579E+02  0.11171118215E+03  0.47000000000E+01 0.  1.
         11    1    4    4    0    0  0.21823964440E+02 -0.21723552686E+02 -0.11681166062E+01  0.30814974632E+02  0.00000000000E+00 0. -1.
        -12    1    4    4    0    0 -0.52118506765E+02  0.12618925280E+02  0.18649829960E+02  0.56774925629E+02  0.00000000000E+00 0.  1.
</event>
<event>
12    1  0.8226261E-002  0.2141485E+03  0.7818608E-02  0.1138431E+00
         21   -1    0    0  503  502  0.00000000000E+00  0.00000000000E+00  0.21850824089E+02  0.21850824089E+02  0.00000000000E+00 0. -1.
         21   -1    0    0  501  503 -0.00000000000E+00 -0.00000000000E+00 -0.31712387056E+04  0.31712387056E+04  0.00000000000E+00 0. -1.
          6    2    1    2  501    0  0.99559031097E+02 -0.79056912494E+02 -0.25069084648E+04  0.25160384837E+04  0.17232992962E+03 0.  0.
         24    2    3    3    0    0 -0.87558390227E+01 -0.51539272427E+01 -0.85140365062E+03  0.85534223152E+03  0.81356800934E+02 0.  0.
         -6    2    1    2    0  502 -0.99559031097E+02  0.79056912494E+02 -0.64247941676E+03  0.67705104600E+03  0.17162844126E+03 0.  0.
        -24    2    5    5    0    0 -0.23315726648E+01  0.83058351722E+02 -0.19765400952E+03  0.22168204935E+03  0.56317825798E+02 0.  0.
          5    1    3    3  501    0  0.10831487012E+03 -0.73902985251E+02 -0.16555048141E+04  0.16606962522E+04  0.47000000000E+01 0. -1.
        -13    1    4    4    0    0 -0.19103312253E+02  0.14406556915E+02 -0.78468198134E+03  0.78504668477E+03  0.00000000000E+00 0.  1.
         14    1    4    4    0    0  0.10347473230E+02 -0.19560484157E+02 -0.66721669275E+02  0.70295546755E+02  0.00000000000E+00 0. -1.
         -5    1    5    5    0  502 -0.97227458432E+02 -0.40014392288E+01 -0.44482540724E+03  0.45536899665E+03  0.47000000000E+01 0.  1.
         13    1    6    6    0    0 -0.44985719118E+00  0.15382635128E+02 -0.31179407503E+01  0.15701891271E+02  0.00000000000E+00 0. -1.
        -14    1    6    6    0    0 -0.18817154736E+01  0.67675716594E+02 -0.19453606877E+03  0.20598015808E+03  0.00000000000E+00 0.  1.
</event>
<event>
12    1  0.8226261E-002  0.1947021E+03  0.7818608E-02  0.1154390E+00
         21   -1    0    0  503  502  0.00000000000E+00  0.00000000000E+00  0.59158818436E+02  0.59158818436E+02  0.00000000000E+00 0. -1.
         21   -1    0    0  501  503 -0.00000000000E+00 -0.00000000000E+00 -0.66123526442E+03  0.66123526442E+03  0.00000000000E+00 0. -1.
          6    2    1    2  501    0  0.89791134359E+02 -0.11964998089E+02 -0.36705609250E+03  0.41549857364E+03  0.17234639732E+03 0.  0.
         24    2    3    3    0    0  0.96698167566E+02 -0.57623499194E+02 -0.22267717228E+03  0.26384182821E+03  0.85769365098E+02 0.  0.
         -6    2    1    2    0  502 -0.89791134359E+02  0.11964998089E+02 -0.23502035349E+03  0.30489550922E+03  0.17181704222E+03 0.  0.
        -24    2    5    5    0    0 -0.74180400132E+02 -0.11490377502E+02 -0.58501668989E+02  0.12608056117E+03  0.82698863910E+02 0.  0.
          5    1    3    3  501    0 -0.69070332070E+01  0.45658501105E+02 -0.14437892022E+03  0.15165674543E+03  0.47000000000E+01 0. -1.
        -13    1    4    4    0    0  0.49185191566E+00  0.63177165334E+01 -0.80059950610E+02  0.80310342747E+02  0.00000000000E+00 0.  1.
         14    1    4    4    0    0  0.96206315650E+02 -0.63941215727E+02 -0.14261722167E+03  0.18353148546E+03  0.00000000000E+00 0. -1.
         -5    1    5    5    0  502 -0.15610734227E+02  0.23455375591E+02 -0.17651868450E+03  0.17881494804E+03  0.47000000000E+01 0.  1.
         13    1    6    6    0    0 -0.25897251392E+02  0.35034315165E+02 -0.31665097181E+02  0.53858604217E+02  0.00000000000E+00 0. -1.
        -14    1    6    6    0    0 -0.48283148740E+02 -0.46524692667E+02 -0.26836571808E+02  0.72221956955E+02  0.00000000000E+00 0.  1.
</event>
<event>
12    1  0.8226261E-002  0.1796551E+03  0.7818608E-02  0.1168791E+00
         21   -1    0    0  503  502  0.00000000000E+00  0.00000000000E+00  0.45648381564E+03  0.45648381564E+03  0.00000000000E+00 0. -1.
         21   -1    0    0  501  503 -0.00000000000E+00 -0.00000000000E+00 -0.11235632946E+03  0.11235632946E+03  0.00000000000E+00 0. -1.
          6    2    1    2  501    0  0.30317282233E+02  0.25015254201E+02 -0.40677395556E+01  0.17702913889E+03  0.17256265230E+03 0.  0.
         24    2    3    3    0    0  0.25720471391E+02  0.84637461458E+02 -0.13981731355E+01  0.11698619715E+03  0.76542621495E+02 0.  0.
         -6    2    1    2    0  502 -0.30317282233E+02 -0.25015254201E+02  0.34819522574E+03  0.39181100621E+03  0.17530273475E+03 0.  0.
        -24    2    5    5    0    0  0.38038233203E+01  0.53549033463E+02  0.19565491730E+03  0.21680462678E+03  0.76429257965E+02 0.  0.
          5    1    3    3  501    0  0.45968108419E+01 -0.59622207258E+02 -0.26695664201E+01  0.60042941742E+02  0.47000000000E+01 0. -1.
        -13    1    4    4    0    0  0.40188484737E+02  0.40629857704E+02  0.26410350226E+02  0.62955589439E+02  0.00000000000E+00 0.  1.
         14    1    4    4    0    0 -0.14468013346E+02  0.44007603754E+02 -0.27808523361E+02  0.54030607713E+02  0.00000000000E+00 0. -1.
         -5    1    5    5    0  502 -0.34121105553E+02 -0.78564287664E+02  0.15254030845E+03  0.17500637943E+03  0.47000000000E+01 0.  1.
         13    1    6    6    0    0 -0.31034918713E+02  0.45064701643E+01  0.47679232714E+02  0.57068237094E+02  0.00000000000E+00 0. -1.
        -14    1    6    6    0    0  0.34838742033E+02  0.49042563299E+02  0.14797568458E+03  0.15973638968E+03  0.00000000000E+00 0.  1.
</event>
<event>
12    1  0.8226261E-002  0.2414115E+03  0.7818608E-02  0.1118941E+00
         21   -1    0    0  501  502  0.00000000000E+00  0.00000000000E+00  0.50018481742E+03  0.50018481742E+03  0.00000000000E+00 0. -1.
         21   -1    0    0  502  503 -0.00000000000E+00 -0.00000000000E+00 -0.11633135970E+03  0.11633135970E+03  0.00000000000E+00 0. -1.
         -6    2    1    2    0  503 -0.28876298765E+02  0.16674607950E+03  0.18453301169E+03  0.30345360747E+03  0.17144551271E+03 0.  0.
        -24    2    3    3    0    0 -0.23178815931E+02  0.16502631052E+03  0.76404292446E+02  0.19505928640E+03  0.66630088062E+02 0.  0.
          6    2    1    2  501    0  0.28876298765E+02 -0.16674607950E+03  0.19932044604E+03  0.31306256965E+03  0.17216688603E+03 0.  0.
         24    2    5    5    0    0 -0.45946929415E+02 -0.57534467776E+02  0.84084297733E+02  0.13748594396E+03  0.80067973351E+02 0.  0.
          5    1    5    5  501    0  0.74823228180E+02 -0.10921161173E+03  0.11523614831E+03  0.17557662569E+03  0.47000000000E+01 0. -1.
        -13    1    6    6    0    0 -0.18585521476E+02 -0.40645762647E+02 -0.28616920804E+01  0.44784918346E+02  0.00000000000E+00 0.  1.
         14    1    6    6    0    0 -0.27361407939E+02 -0.16888705129E+02  0.86945989814E+02  0.92701025615E+02  0.00000000000E+00 0. -1.
         -5    1    3    3    0  503 -0.56974828334E+01  0.17197689792E+01  0.10812871924E+03  0.10839432107E+03  0.47000000000E+01 0.  1.
         13    1    4    4    0    0 -0.32358751379E+01  0.56278766784E+02 -0.66711913920E+01  0.56765088507E+02  0.00000000000E+00 0. -1.
        -14    1    4    4    0    0 -0.19942940793E+02  0.10874754374E+03  0.83075483838E+02  0.13829419790E+03  0.00000000000E+00 0.  1.
</event>
<event>
12    1  0.8226261E-002  0.1916708E+03  0.7818608E-02  0.1157238E+00
         21   -1    0    0  503  502  0.00000000000E+00  0.00000000000E+00  0.43580115006E+03  0.43580115006E+03  0.00000000000E+00 0. -1.
         21   -1    0    0  501  503 -0.00000000000E+00 -0.00000000000E+00 -0.84313610310E+02  0.84313610310E+02  0.00000000000E+00 0. -1.
          6    2    1    2  501    0 -0.18856821086E+02 -0.81594921321E+02  0.15410631862E+03  0.24498377367E+03  0.17104087534E+03 0.  0.
         24    2    3    3    0    0 -0.88030298669E+01  0.19078727120E+02  0.34313814560E+02  0.88112500849E+02  0.78389309047E+02 0.  0.
         -6    2    1    2    0  502  0.18856821086E+02  0.81594921321E+02  0.19738122113E+03  0.27513098670E+03  0.17240766369E+03 0.  0.
        -24    2    5    5    0    0  0.79297335638E+02  0.56370882805E+02  0.13461062317E+03  0.18429296665E+03  0.79863219434E+02 0.  0.
          5    1    3    3  501    0 -0.10053791219E+02 -0.10067364844E+03  0.11979250406E+03  0.15687127282E+03  0.47000000000E+01 0. -1.
        -13    1    4    4    0    0 -0.36637333372E+01  0.47822766924E+02  0.34208715899E+02  0.58912445389E+02  0.00000000000E+00 0.  1.
         14    1    4    4    0    0 -0.51392965298E+01 -0.28744039804E+02  0.10509866044E+00  0.29200055459E+02  0.00000000000E+00 0. -1.
         -5    1    5    5    0  502 -0.60440514552E+02  0.25224038516E+02  0.62770597954E+02  0.90838020046E+02  0.47000000000E+01 0.  1.
         11    1    6    6    0    0  0.40377973594E+02  0.47788050126E+02  0.12987483332E+03  0.14415807579E+03  0.00000000000E+00 0. -1.
        -12    1    6    6    0    0  0.38919362045E+02  0.85828326783E+01  0.47357898555E+01  0.40134890860E+02  0.00000000000E+00 0.  1.
</event>
<event>
12    1  0.8226261E-002  0.2254967E+03  0.7818608E-02  0.1129925E+00
         21   -1    0    0  503  502  0.00000000000E+00  0.00000000000E+00  0.53982084356E+02  0.53982084356E+02  0.00000000000E+00 0. -1.
         21   -1    0    0  501  503 -0.00000000000E+00 -0.00000000000E+00 -0.12058533955E+04  0.12058533955E+04  0.00000000000E+00 0. -1.
          6    2    1    2  501    0  0.10161051762E+03 -0.10309620822E+03 -0.87200004410E+03  0.90068464170E+03  0.17290234653E+03 0.  0.
         24    2    3    3    0    0  0.75758153738E+02 -0.17755157183E+02 -0.68169978480E+03  0.69047589212E+03  0.77380989492E+02 0.  0.
         -6    2    1    2    0  502 -0.10161051762E+03  0.10309620822E+03 -0.27987126699E+03  0.35915083811E+03  0.17235971973E+03 0.  0.
        -24    2    5    5    0    0 -0.31291621939E+02  0.38393783421E+02 -0.39439036436E+02  0.10038279844E+03  0.77897499434E+02 0.  0.
          5    1    3    3  501    0  0.25852363887E+02 -0.85341051033E+02 -0.19030025930E+03  0.21020874958E+03  0.47000000000E+01 0. -1.
        -13    1    4    4    0    0 -0.38171875474E+01 -0.11691302339E+02 -0.31283172890E+03  0.31307339088E+03  0.00000000000E+00 0.  1.
         14    1    4    4    0    0  0.79575341285E+02 -0.60638548435E+01 -0.36886805590E+03  0.37740250124E+03  0.00000000000E+00 0. -1.
         -5    1    5    5    0  502 -0.70318895685E+02  0.64702424795E+02 -0.24043223056E+03  0.25876803967E+03  0.47000000000E+01 0.  1.
         11    1    6    6    0    0 -0.52849617092E+02  0.13370129279E+02 -0.39555434264E+02  0.67353357478E+02  0.00000000000E+00 0. -1.
        -12    1    6    6    0    0  0.21557995153E+02  0.25023654143E+02  0.11639782771E+00  0.33029440960E+02  0.00000000000E+00 0.  1.
</event>
<event>
12    1  0.8226261E-002  0.1747630E+03  0.7818608E-02  0.1173085E+00
         21   -1    0    0  503  502  0.00000000000E+00  0.00000000000E+00  0.12274694376E+03  0.12274694376E+03  0.00000000000E+00 0. -1.
         21   -1    0    0  501  503 -0.00000000000E+00 -0.00000000000E+00 -0.25230551339E+03  0.25230551339E+03  0.00000000000E+00 0. -1.
          6    2    1    2  501    0  0.55338048754E+01 -0.30370341455E+02 -0.88870839976E+02  0.19606159037E+03  0.17201494232E+03 0.  0.
         24    2    3    3    0    0 -0.41192944041E+02 -0.27447840041E+02 -0.10761357331E+03  0.14541269964E+03  0.84344113569E+02 0.  0.
         -6    2    1    2    0  502 -0.55338048754E+01  0.30370341455E+02 -0.40687729664E+02  0.17899086678E+03  0.17154958004E+03 0.  0.
        -24    2    5    5    0    0 -0.13219499708E+02 -0.27835825408E+01 -0.88330156443E+02  0.12025294538E+03  0.80473913978E+02 0.  0.
          5    1    3    3  501    0  0.46726748916E+02 -0.29225014143E+01  0.18742733338E+02  0.50648890726E+02  0.47000000000E+01 0. -1.
        -13    1    4    4    0    0 -0.25377600079E+02  0.28245969462E+02 -0.28993033948E+02  0.47775028981E+02  0.00000000000E+00 0.  1.
         14    1    4    4    0    0 -0.15815343962E+02 -0.55693809503E+02 -0.78620539366E+02  0.97637670660E+02  0.00000000000E+00 0. -1.
         -5    1    5    5    0  502  0.76856948324E+01  0.33153923996E+02  0.47642426780E+02  0.58737921404E+02  0.47000000000E+01 0.  1.
         11    1    6    6    0    0  0.28074958601E+02  0.85862226052E+01 -0.10067724563E+02  0.31036842574E+02  0.00000000000E+00 0. -1.
        -12    1    6    6    0    0 -0.41294458309E+02 -0.11369805146E+02 -0.78262431880E+02  0.89216102806E+02  0.00000000000E+00 0.  1.
</event>
<event>
12    1  0.8226261E-002  0.2015581E+03  0.7818608E-02  0.1148527E+00
         21   -1    0    0  501  502  0.00000000000E+00  0.00000000000E+00  0.12842796205E+03  0.12842796205E+03  0.00000000000E+00 0. -1.
         21   -1    0    0  502  503 -0.00000000000E+00 -0.00000000000E+00 -0.31787500037E+03  0.31787500037E+03  0.00000000000E+00 0.  1.
         -6    2    1    2    0  503 -0.46319441039E+02  0.93260625270E+02 -0.11367246530E+03  0.23140247932E+03  0.17257648515E+03 0.  0.
        -24    2    3    3    0    0  0.39629304934E+02  0.31261518160E+02 -0.13791134204E+02  0.85699196866E+02  0.67870410589E+02 0.  0.
          6    2    1    2  501    0  0.46319441039E+02 -0.93260625270E+02 -0.75774573020E+02  0.21490048309E+03  0.17203893999E+03 0.  0.
         24    2    5    5    0    0 -0.12178607201E+02  0.11809769716E+02 -0.29538042924E+02  0.85975247913E+02  0.78939585379E+02 0.  0.
          5    1    5    5  501    0  0.58498048241E+02 -0.10507039499E+03 -0.46236530096E+02  0.12892523518E+03  0.47000000000E+01 0. -1.
        -11    1    6    6    0    0 -0.22054514225E+02 -0.71599913583E+01  0.20883500978E+02  0.31205571410E+02  0.00000000000E+00 0.  1.
         12    1    6    6    0    0  0.98759070236E+01  0.18969761074E+02 -0.50421543902E+02  0.54769676503E+02  0.00000000000E+00 0. -1.
         -5    1    3    3    0  503 -0.85948745974E+02  0.61999107110E+02 -0.99881331101E+02  0.14570328246E+03  0.47000000000E+01 0.  1.
         13    1    4    4    0    0  0.29119456156E+01  0.36276786278E+02  0.14397951524E+02  0.39138033394E+02  0.00000000000E+00 0. -1.
        -14    1    4    4    0    0  0.36717359319E+02 -0.50152681174E+01 -0.28189085728E+02  0.46561163471E+02  0.00000000000E+00 0.  1.
</event>
<event>
12    1  0.8226261E-002  0.2275642E+03  0.7818608E-02  0.1128686E+00
         21   -1    0    0  501  502  0.00000000000E+00  0.00000000000E+00  0.40230997676E+03  0.40230997676E+03  0.00000000000E+00 0. -1.
         21   -1    0    0  502  503 -0.00000000000E+00 -0.00000000000E+00 -0.17151461503E+03  0.17151461503E+03  0.00000000000E+00 0.  1.
         -6    2    1    2    0  503 -0.51506462579E+00  0.14394009014E+03  0.26073180097E+03  0.34607302289E+03  0.17625677375E+03 0.  0.
        -24    2    3    3    0    0 -0.45123493220E+02  0.12595335502E+03  0.11776116917E+03  0.19515540928E+03  0.79483102126E+02 0.  0.
          6    2    1    2  501    0  0.51506462579E+00 -0.14394009014E+03 -0.29936439240E+02  0.22775156890E+03  0.17394128866E+03 0.  0.
         24    2    5    5    0    0 -0.61684813950E+02 -0.10724224570E+03  0.32069481124E+01  0.14815175227E+03  0.81441645680E+02 0.  0.
          5    1    5    5  501    0  0.62199878576E+02 -0.36697844446E+02 -0.33143387353E+02  0.79599816627E+02  0.47000000000E+01 0. -1.
        -11    1    6    6    0    0 -0.78116979762E+01 -0.91681270262E+02  0.33926496184E+01  0.92075990429E+02  0.00000000000E+00 0.  1.
         12    1    6    6    0    0 -0.53873115974E+02 -0.15560975435E+02 -0.18570150591E+00  0.56075761843E+02  0.00000000000E+00 0. -1.
         -5    1    3    3    0  503  0.44608428594E+02  0.17986735119E+02  0.14297063180E+03  0.15091761361E+03  0.47000000000E+01 0.  1.
         11    1    4    4    0    0 -0.12192863832E+02  0.88125887310E+02  0.11435616990E+03  0.14488675418E+03  0.00000000000E+00 0. -1.
        -12    1    4    4    0    0 -0.32930629388E+02  0.37827467714E+02  0.34049992739E+01  0.50268655100E+02  0.00000000000E+00 0.  1.
</event>
<event>
12    1  0.8226261E-002  0.3143411E+03  0.7818608E-02  0.1078630E+00
         21   -1    0    0  503  502  0.00000000000E+00  0.00000000000E+00  0.53659301597E+03  0.53659301597E+03  0.00000000000E+00 0. -1.
         21   -1    0    0  501  503 -0.00000000000E+00 -0.00000000000E+00 -0.23955212736E+03  0.23955212736E+03  0.00000000000E+00 0.  1.
          6    2    1    2  501    0 -0.67497196003E+01 -0.25922256853E+03 -0.41509249323E+02  0.31416408759E+03  0.17243595159E+03 0.  0.
         24    2    3    3    0    0 -0.50065740840E+02 -0.24894797758E+03 -0.29136125989E+02  0.26772026027E+03  0.79646405898E+02 0.  0.
         -6    2    1    2    0  502  0.67497196003E+01  0.25922256853E+03  0.33855013793E+03  0.46198105574E+03  0.17767498762E+03 0.  0.
        -24    2    5    5    0    0  0.29119692364E+02  0.22262523602E+03  0.18282298249E+03  0.30038644763E+03  0.79986391345E+02 0.  0.
          5    1    3    3  501    0  0.43316021240E+02 -0.10274590947E+02 -0.12373123335E+02  0.46443827321E+02  0.47000000000E+01 0. -1.
        -11    1    4    4    0    0  0.78983519287E+01 -0.45033034233E+02 -0.31831303082E+02  0.55709873374E+02  0.00000000000E+00 0.  1.
         12    1    4    4    0    0 -0.57964092769E+02 -0.20391494335E+03  0.26951770935E+01  0.21201038689E+03  0.00000000000E+00 0. -1.
         -5    1    5    5    0  502 -0.22369972764E+02  0.36597332512E+02  0.15572715544E+03  0.16159460811E+03  0.47000000000E+01 0.  1.
         11    1    6    6    0    0  0.36093697459E+02  0.19247634752E+03  0.18495726893E+03  0.26936794665E+03  0.00000000000E+00 0. -1.
        -12    1    6    6    0    0 -0.69740050946E+01  0.30148888499E+02 -0.21342864435E+01  0.31018500985E+02  0.00000000000E+00 0.  1.
</event>
<event>
12    1  0.8226261E-002  0.2030955E+03  0.7818608E-02  0.1147405E+00
         21   -1    0    0  501  502  0.00000000000E+00  0.00000000000E+00  0.12954400827E+04  0.12954400827E+04  0.00000000000E+00 0. -1.
         21   -1    0    0  502  503 -0.00000000000E+00 -0.00000000000E+00 -0.51135062577E+02  0.51135062577E+02  0.00000000000E+00 0.  1.
         -6    2    1    2    0  503  0.27076702899E+02  0.10182096137E+03  0.10389132442E+04  0.10585785271E+04  0.17362924049E+03 0.  0.
        -24    2    3    3    0    0  0.23672182523E+02  0.21320015379E+02  0.80987928803E+03  0.81573982318E+03  0.92260948753E+02 0.  0.
          6    2    1    2  501    0 -0.27076702899E+02 -0.10182096137E+03  0.20539177597E+03  0.28799661817E+03  0.17220805565E+03 0.  0.
         24    2    5    5    0    0 -0.61697050571E+02 -0.94891179808E+02  0.84601262350E+02  0.16206398330E+03  0.79350482279E+02 0.  0.
          5    1    5    5  501    0  0.34620347672E+02 -0.69297815618E+01  0.12079051362E+03  0.12593263487E+03  0.47000000000E+01 0. -1.
        -11    1    6    6    0    0 -0.29171178667E+02 -0.90460301572E+02  0.87394053676E+02  0.12911910952E+03  0.00000000000E+00 0.  1.
         12    1    6    6    0    0 -0.32525871904E+02 -0.44308782352E+01 -0.27927913263E+01  0.32944873781E+02  0.00000000000E+00 0. -1.
         -5    1    3    3    0  503  0.34045203766E+01  0.80500945990E+02  0.22903395612E+03  0.24283870392E+03  0.47000000000E+01 0.  1.
         11    1    4    4    0    0  0.35050625012E+02  0.47507303434E+02  0.34746876075E+03  0.35244862022E+03  0.00000000000E+00 0. -1.
        -12    1    4    4    0    0 -0.11378442489E+02 -0.26187288055E+02  0.46241052728E+03  0.46329120297E+03  0.00000000000E+00 0.  1.
</event>
<event>
12    1  0.8226261E-002  0.2315603E+03  0.7818608E-02  0.1125578E+00
         21   -1    0    0  503  502  0.00000000000E+00  0.00000000000E+00  0.13523290579E+03  0.13523290579E+03  0.00000000000E+00 0.  1.
         21   -1    0    0  501  503 -0.00000000000E+00 -0.00000000000E+00 -0.62503795060E+03  0.62503795060E+03  0.00000000000E+00 0.  1.
          6    2    1    2  501    0  0.12742572046E+03  0.88635211078E+02 -0.47498097488E+03  0.52841944547E+03  0.17183325925E+03 0.  0.
         24    2    3    3    0    0  0.15189413207E+03  0.43850131107E+02 -0.33364110345E+03  0.37807498828E+03  0.81422659588E+02 0.  0.
         -6    2    1    2    0  502 -0.12742572046E+03 -0.88635211078E+02 -0.14824069929E+02  0.23185141092E+03  0.17158615567E+03 0.  0.
        -24    2    5    5    0    0 -0.48303599392E+02 -0.61353692664E+02 -0.69186555777E+02  0.13194164584E+03  0.80773170606E+02 0.  0.
          5    1    3    3  501    0 -0.24468411610E+02  0.44785079971E+02 -0.14133987143E+03  0.15034445720E+03  0.47000000000E+01 0. -1.
        -13    1    4    4    0    0  0.52247942964E+02  0.45536985255E+02 -0.19784115285E+03  0.20962964087E+03  0.00000000000E+00 0.  1.
         14    1    4    4    0    0  0.99646189111E+02 -0.16868541479E+01 -0.13579995060E+03  0.16844534741E+03  0.00000000000E+00 0. -1.
         -5    1    5    5    0  502 -0.79122121073E+02 -0.27281518415E+02  0.54362485848E+02  0.99909765077E+02  0.47000000000E+01 0.  1.
         13    1    6    6    0    0  0.10683786347E+02 -0.44820109811E+01 -0.45059174533E+02  0.46524841996E+02  0.00000000000E+00 0. -1.
        -14    1    6    6    0    0 -0.58987385739E+02 -0.56871681682E+02 -0.24127381243E+02  0.85416803846E+02  0.00000000000E+00 0.  1.
</event>
<event>
12    1  0.8226261E-002  0.1764459E+03  0.7818608E-02  0.1171482E+00
         21   -1    0    0  503  502  0.00000000000E+00  0.00000000000E+00  0.65702554489E+03  0.65702554489E+03  0.00000000000E+00 0. -1.
         21   -1    0    0  501  503 -0.00000000000E+00 -0.00000000000E+00 -0.75439200655E+02  0.75439200655E+02  0.00000000000E+00 0. -1.
          6    2    1    2  501    0 -0.22378779316E+02  0.27637328148E+02  0.67029835947E+02  0.18874894726E+03  0.17282515590E+03 0.  0.
         24    2    3    3    0    0  0.26318437989E+02  0.40567858708E+02 -0.18103746661E+02  0.89711406487E+02  0.73361975658E+02 0.  0.
         -6    2    1    2    0  502  0.22378779316E+02 -0.27637328148E+02  0.51455650829E+03  0.54371579829E+03  0.17202859476E+03 0.  0.
        -24    2    5    5    0    0  0.80874209092E+02 -0.27030826933E+02  0.33286269885E+03  0.35277912414E+03  0.79901381964E+02 0.  0.
          5    1    3    3  501    0 -0.48697217305E+02 -0.12930530560E+02  0.85133582608E+02  0.99037540769E+02  0.47000000000E+01 0. -1.
        -11    1    4    4    0    0  0.42452305569E+02  0.29275001328E+02  0.12738785284E+02  0.53117799290E+02  0.00000000000E+00 0.  1.
         12    1    4    4    0    0 -0.16133867581E+02  0.11292857380E+02 -0.30842531945E+02  0.36593607197E+02  0.00000000000E+00 0. -1.
         -5    1    5    5    0  502 -0.58495429776E+02 -0.60650121528E+00  0.18169380943E+03  0.19093667415E+03  0.47000000000E+01 0.  1.
         13    1    6    6    0    0  0.68055905479E+02  0.16017944803E+02  0.23335470572E+03  0.24360336514E+03  0.00000000000E+00 0. -1.
        -14    1    6    6    0    0  0.12818303613E+02 -0.43048771736E+02  0.99507993130E+02  0.10917575900E+03  0.00000000000E+00 0.  1.
</event>
<event>
12    1  0.8226261E-002  0.2715674E+03  0.7818608E-02  0.1100592E+00
         21   -1    0    0  503  502  0.00000000000E+00  0.00000000000E+00  0.32849598689E+03  0.32849598689E+03  0.00000000000E+00 0. -1.
         21   -1    0    0  501  503 -0.00000000000E+00 -0.00000000000E+00 -0.29445286995E+03  0.29445286995E+03  0.00000000000E+00 0.  1.
          6    2    1    2  501    0  0.20806071750E+03  0.12429438733E+02 -0.13611353192E+03  0.30247714040E+03  0.17181901459E+03 0.  0.
         24    2    3    3    0    0  0.19394984386E+03  0.38476305459E+02 -0.15797377308E+03  0.26536223551E+03  0.79777409316E+02 0.  0.
         -6    2    1    2    0  502 -0.20806071750E+03 -0.12429438733E+02  0.17015664885E+03  0.32047171645E+03  0.17408355115E+03 0.  0.
        -24    2    5    5    0    0 -0.19033099953E+03 -0.24989338926E+02  0.19590153245E+03  0.28645726329E+03  0.82643794899E+02 0.  0.
          5    1    3    3  501    0  0.14110873644E+02 -0.26046866726E+02  0.21860241164E+02  0.37114904890E+02  0.47000000000E+01 0. -1.
        -13    1    4    4    0    0  0.41349654136E+02 -0.24513313234E+02 -0.38228295331E+02  0.61417415989E+02  0.00000000000E+00 0.  1.
         14    1    4    4    0    0  0.15260018972E+03  0.62989618693E+02 -0.11974547775E+03  0.20394481952E+03  0.00000000000E+00 0. -1.
         -5    1    5    5    0  502 -0.17729717972E+02  0.12559900193E+02 -0.25744883596E+02  0.34014453157E+02  0.47000000000E+01 0.  1.
         11    1    6    6    0    0 -0.63525126433E+01 -0.75667268835E+01  0.50099215009E+02  0.51064088332E+02  0.00000000000E+00 0. -1.
        -12    1    6    6    0    0 -0.18397848689E+03 -0.17422612042E+02  0.14580231744E+03  0.23539317496E+03  0.00000000000E+00 0.  1.
</event>
<event>
12    1  0.8226261E-002  0.3082800E+03  0.7818608E-02  0.1081255E+00
         21   -1    0    0  503  502  0.00000000000E+00  0.00000000000E+00  0.57065710394E+03  0.57065710394E+03  0.00000000000E+00 0. -1.
         21   -1    0    0  501  503 -0.00000000000E+00 -0.00000000000E+00 -0.24894720348E+03  0.24894720348E+03  0.00000000000E+00 0. -1.
          6    2    1    2  501    0 -0.25216785071E+03 -0.34490919982E+02 -0.75560962352E+02  0.31675176170E+03  0.17275407671E+03 0.  0.
         24    2    3    3    0    0 -0.14922718615E+03 -0.74866312799E+02 -0.44293744534E+01  0.18518905588E+03  0.80010306734E+02 0.  0.
         -6    2    1    2    0  502  0.25216785071E+03  0.34490919982E+02  0.39727086280E+03  0.50285254572E+03  0.17394911845E+03 0.  0.
        -24    2    5    5    0    0  0.26505696443E+03  0.56087704129E+02  0.35753519976E+03  0.45559195690E+03  0.79571271020E+02 0.  0.
          5    1    3    3  501    0 -0.10294066456E+03  0.40375392817E+02 -0.71131587899E+02  0.13156270582E+03  0.47000000000E+01 0. -1.
        -11    1    4    4    0    0 -0.50568288288E+02 -0.69818102868E+02  0.15364851348E+01  0.86221111423E+02  0.00000000000E+00 0.  1.
         12    1    4    4    0    0 -0.98658897858E+02 -0.50482099312E+01 -0.59658595882E+01  0.98967944460E+02  0.00000000000E+00 0. -1.
         -5    1    5    5    0  502 -0.12889113726E+02 -0.21596784147E+02  0.39735663041E+02  0.47260588818E+02  0.47000000000E+01 0.  1.
         13    1    6    6    0    0  0.67477649142E+02  0.29408014349E+01  0.42026154947E+02  0.79549224675E+02  0.00000000000E+00 0. -1.
        -14    1    6    6    0    0  0.19757931529E+03  0.53146902694E+02  0.31550904482E+03  0.37604273222E+03  0.00000000000E+00 0.  1.
</event>
<event>
12    1  0.8226261E-002  0.2050878E+03  0.7818608E-02  0.1147913E+00
         21   -1    0    0  501  502  0.00000000000E+00  0.00000000000E+00  0.28860893809E+03  0.28860893809E+03  0.00000000000E+00 0. -1.
         21   -1    0    0  502  503 -0.00000000000E+00 -0.00000000000E+00 -0.32823053215E+03  0.32823053215E+03  0.00000000000E+00 0. -1.
         -6    2    1    2    0  503  0.60189030372E+00 -0.89612620337E+02 -0.25495450133E+03  0.32720455587E+03  0.18447286964E+03 0.  0.
        -24    2    3    3    0    0  0.65283558677E+02 -0.95165691940E+02 -0.16740904845E+03  0.21811353356E+03  0.78925737635E+02 0.  0.
          6    2    1    2  501    0 -0.60189030372E+00  0.89612620337E+02  0.21533290727E+03  0.28963491437E+03  0.17172460125E+03 0.  0.
         24    2    5    5    0    0 -0.20611126871E+02  0.25037705230E+01  0.47716754535E+02  0.99620215149E+02  0.84948285358E+02 0.  0.
          5    1    5    5  501    0  0.20009236568E+02  0.87108849814E+02  0.16761615273E+03  0.19001469922E+03  0.47000000000E+01 0. -1.
        -13    1    6    6    0    0 -0.35781555224E+02  0.34881912072E+02  0.17954178755E+02  0.53098211069E+02  0.00000000000E+00 0.  1.
         14    1    6    6    0    0  0.15170428352E+02 -0.32378141549E+02  0.29762575781E+02  0.46522004080E+02  0.00000000000E+00 0. -1.
         -5    1    3    3    0  503 -0.64681668374E+02  0.55530716032E+01 -0.87545452881E+02  0.10909102231E+03  0.47000000000E+01 0.  1.
         11    1    4    4    0    0  0.75487993466E+02 -0.47228473436E+02 -0.12388483755E+03  0.15256611300E+03  0.00000000000E+00 0. -1.
        -12    1    4    4    0    0 -0.10204434788E+02 -0.47937218504E+02 -0.43524210899E+02  0.65547420557E+02  0.00000000000E+00 0.  1.
</event>
<event>
12    1  0.8226261E-002  0.2629678E+03  0.7818608E-02  0.1105421E+00
         21   -1    0    0  501  502  0.00000000000E+00  0.00000000000E+00  0.40856382686E+03  0.40856382686E+03  0.00000000000E+00 0. -1.
         21   -1    0    0  502  503 -0.00000000000E+00 -0.00000000000E+00 -0.16986740049E+03  0.16986740049E+03  0.00000000000E+00 0.  1.
         -6    2    1    2    0  503 -0.16113504891E+03  0.11588876052E+03  0.99332579667E+02  0.28110322311E+03  0.17250319375E+03 0.  0.
        -24    2    3    3    0    0 -0.11067248448E+03  0.11870118256E+03  0.12900811987E+03  0.22230604789E+03  0.80240353778E+02 0.  0.
          6    2    1    2  501    0  0.16113504891E+03 -0.11588876052E+03  0.13936384670E+03  0.29732800425E+03  0.17200857985E+03 0.  0.
         24    2    5    5    0    0  0.14491256062E+03 -0.86925545133E+02  0.37597373784E+02  0.19018071319E+03  0.78736526035E+02 0.  0.
          5    1    5    5  501    0  0.16222488291E+02 -0.28963215392E+02  0.10176647291E+03  0.10714729106E+03  0.47000000000E+01 0. -1.
        -11    1    6    6    0    0  0.82155854254E+02 -0.85436170954E+02  0.31369534422E+01  0.11856965958E+03  0.00000000000E+00 0.  1.
         12    1    6    6    0    0  0.62756706364E+02 -0.14893741785E+01  0.34460420342E+02  0.71611053611E+02  0.00000000000E+00 0. -1.
         -5    1    3    3    0  503 -0.50462564433E+02 -0.28124220398E+01 -0.29675540202E+02  0.58797175215E+02  0.47000000000E+01 0.  1.
         11    1    4    4    0    0 -0.36306719760E+02  0.30704324997E+02  0.87980147873E+02  0.10000719921E+03  0.00000000000E+00 0. -1.
        -12    1    4    4    0    0 -0.74365764715E+02  0.87996857568E+02  0.41027971996E+02  0.12229884868E+03  0.00000000000E+00 0.  1.
</event>
<event>
12    1  0.8226261E-002  0.2042759E+03  0.7818608E-02  0.1146450E+00
         21   -1    0    0  501  502  0.00000000000E+00  0.00000000000E+00  0.22032748907E+03  0.22032748907E+03  0.00000000000E+00 0.  1.
         21   -1    0    0  502  503 -0.00000000000E+00 -0.00000000000E+00 -0.22040499843E+03  0.22040499843E+03  0.00000000000E+00 0.  1.
         -6    2    1    2    0  503 -0.89936770840E+01  0.10919304507E+03 -0.84297912005E+02  0.22098595914E+03  0.17240837813E+03 0.  0.
        -24    2    3    3    0    0 -0.30307270021E+02  0.71249708159E+02  0.16914076597E+02  0.11071391964E+03  0.77307402527E+02 0.  0.
          6    2    1    2  501    0  0.89936770840E+01 -0.10919304507E+03  0.84220402641E+02  0.21974652836E+03  0.17085506486E+03 0.  0.
         24    2    5    5    0    0 -0.46638809347E+02 -0.15605161126E+02  0.26898216683E+02  0.96614125764E+02  0.78689742948E+02 0.  0.
          5    1    5    5  501    0  0.55632486431E+02 -0.93587883942E+02  0.57322185958E+02  0.12313240260E+03  0.47000000000E+01 0. -1.
        -11    1    6    6    0    0 -0.50807382130E+02 -0.17480803229E+01  0.48730990271E+02  0.70421270058E+02  0.00000000000E+00 0.  1.
         12    1    6    6    0    0  0.41685727833E+01 -0.13857080803E+02 -0.21832773588E+02  0.26192855705E+02  0.00000000000E+00 0. -1.
         -5    1    3    3    0  503  0.21313592937E+02  0.37943336909E+02 -0.10121198860E+03  0.11027203950E+03  0.47000000000E+01 0.  1.
         11    1    4    4    0    0 -0.59608124163E+01 -0.14247733138E+02 -0.93059829260E+01  0.18031375501E+02  0.00000000000E+00 0. -1.
        -12    1    4    4    0    0 -0.24346457604E+02  0.85497441297E+02  0.26220059523E+02  0.92682544136E+02  0.00000000000E+00 0.  1.
</event>
<event>
12    1  0.8226261E-002  0.1857711E+03  0.7818608E-02  0.1162705E+00
         21   -1    0    0  501  502  0.00000000000E+00  0.00000000000E+00  0.10918840800E+04  0.10918840800E+04  0.00000000000E+00 0.  1.
         21   -1    0    0  502  503 -0.00000000000E+00 -0.00000000000E+00 -0.57355172875E+02  0.57355172875E+02  0.00000000000E+00 0.  1.
         -6    2    1    2    0  503 -0.64552555637E+02  0.14452345883E+02  0.90307454430E+03  0.92166256051E+03  0.17187885310E+03 0.  0.
        -24    2    3    3    0    0  0.29819392192E+02  0.24572223056E+02  0.44452674349E+03  0.45337135615E+03  0.80302992502E+02 0.  0.
          6    2    1    2  501    0  0.64552555637E+02 -0.14452345883E+02  0.13145436282E+03  0.22757669235E+03  0.17359435089E+03 0.  0.
         24    2    5    5    0    0 -0.27374563416E+02 -0.26333446446E+02  0.10008968231E+03  0.12960940725E+03  0.73060501085E+02 0.  0.
          5    1    5    5  501    0  0.91927119053E+02  0.11881100563E+02  0.31364680510E+02  0.97967285109E+02  0.47000000000E+01 0. -1.
        -11    1    6    6    0    0 -0.57331565826E+01  0.18417846561E+02  0.16863382894E+01  0.19363106496E+02  0.00000000000E+00 0.  1.
         12    1    6    6    0    0 -0.21641406834E+02 -0.44751293008E+02  0.98403344016E+02  0.11024630075E+03  0.00000000000E+00 0. -1.
         -5    1    3    3    0  503 -0.94371947829E+02 -0.10119877173E+02  0.45854780081E+03  0.46829120436E+03  0.47000000000E+01 0.  1.
         13    1    4    4    0    0 -0.61837259365E+01  0.16767780730E+02  0.36805581927E+03  0.36848946123E+03  0.00000000000E+00 0. -1.
        -14    1    4    4    0    0  0.36003118128E+02  0.78044423256E+01  0.76470924220E+02  0.84881894925E+02  0.00000000000E+00 0.  1.
</event>
<event>
12    1  0.8226261E-002  0.1800808E+03  0.7818608E-02  0.1167936E+00
         21   -1    0    0  503  502  0.00000000000E+00  0.00000000000E+00  0.23539579753E+03  0.23539579753E+03  0.00000000000E+00 0.  1.
         21   -1    0    0  501  503 -0.00000000000E+00 -0.00000000000E+00 -0.13712272732E+03  0.13712272732E+03  0.00000000000E+00 0.  1.
          6    2    1    2  501    0 -0.19104643433E+02  0.48950843665E+02  0.46713196141E+02  0.18604088694E+03  0.17224377035E+03 0.  0.
         24    2    3    3    0    0 -0.42041757687E+02  0.93414989520E+02  0.32221116190E+02  0.13374096478E+03  0.79715592416E+02 0.  0.
         -6    2    1    2    0  502  0.19104643433E+02 -0.48950843665E+02  0.51559874062E+02  0.18647763791E+03  0.17133101392E+03 0.  0.
        -24    2    5    5    0    0  0.37332965479E+02 -0.91926334361E+02  0.17903252368E+02  0.12873664113E+03  0.80052451954E+02 0.  0.
          5    1    3    3  501    0  0.22937114254E+02 -0.44464145855E+02  0.14492079951E+02  0.52299922163E+02  0.47000000000E+01 0. -1.
        -13    1    4    4    0    0  0.17263658528E+02 -0.12062850222E+01  0.96421361100E+01  0.19810598631E+02  0.00000000000E+00 0.  1.
         14    1    4    4    0    0 -0.59305416215E+02  0.94621274542E+02  0.22578980080E+02  0.11393036614E+03  0.00000000000E+00 0. -1.
         -5    1    5    5    0  502 -0.18228322046E+02  0.42975490696E+02  0.33656621694E+02  0.57740996779E+02  0.47000000000E+01 0.  1.
         13    1    6    6    0    0  0.14268438796E+02 -0.86025378500E+01 -0.26684846426E+02  0.31459069152E+02  0.00000000000E+00 0. -1.
        -14    1    6    6    0    0  0.23064526683E+02 -0.83323796511E+02  0.44588098793E+02  0.97277571979E+02  0.00000000000E+00 0.  1.
</event>
<event>
12    1  0.8226261E-002  0.1995215E+03  0.7818608E-02  0.1150238E+00
         21   -1    0    0  503  502  0.00000000000E+00  0.00000000000E+00  0.68239116888E+03  0.68239116888E+03  0.00000000000E+00 0. -1.
         21   -1    0    0  501  503 -0.00000000000E+00 -0.00000000000E+00 -0.84574041018E+02  0.84574041018E+02  0.00000000000E+00 0.  1.
          6    2    1    2  501    0 -0.36992446895E+02  0.90574008022E+02  0.84559277209E+02  0.21629066531E+03  0.17337614738E+03 0.  0.
         24    2    3    3    0    0 -0.86513262819E+02  0.76522665626E+02  0.38665451328E+02  0.14716697409E+03  0.82600472998E+02 0.  0.
         -6    2    1    2    0  502  0.36992446895E+02 -0.90574008022E+02  0.51325785065E+03  0.55067454459E+03  0.17388714946E+03 0.  0.
        -24    2    5    5    0    0  0.35162436521E+02 -0.61579085028E+02  0.51004569838E+03  0.52106943659E+03  0.79613834591E+02 0.  0.
          5    1    3    3  501    0  0.49520815924E+02  0.14051342396E+02  0.45893825880E+02  0.69123691213E+02  0.47000000000E+01 0. -1.
        -13    1    4    4    0    0 -0.42446038794E+02  0.47003553767E+02  0.62534489361E+02  0.89003160818E+02  0.00000000000E+00 0.  1.
         14    1    4    4    0    0 -0.44067224025E+02  0.29519111859E+02 -0.23869038032E+02  0.58163813276E+02  0.00000000000E+00 0. -1.
         -5    1    5    5    0  502  0.18300103734E+01 -0.28994922994E+02  0.32121522713E+01  0.29605107998E+02  0.47000000000E+01 0.  1.
         11    1    6    6    0    0 -0.38646665300E+01 -0.66725429271E+02  0.34261111194E+03  0.34906960994E+03  0.00000000000E+00 0. -1.
        -12    1    6    6    0    0  0.39027103051E+02  0.51463442433E+01  0.16743458644E+03  0.17199982665E+03  0.00000000000E+00 0.  1.
</event>
<event>
12    1  0.8226261E-002  0.1744045E+03  0.7818608E-02  0.1173735E+00
         21   -1    0    0  501  502  0.00000000000E+00  0.00000000000E+00  0.22364933906E+03  0.22364933906E+03  0.00000000000E+00 0. -1.
         21   -1    0    0  502  503 -0.00000000000E+00 -0.00000000000E+00 -0.13477501062E+03  0.13477501062E+03  0.00000000000E+00 0. -1.
         -6    2    1    2    0  503  0.11417695250E+02 -0.18387845519E+02  0.42377742864E+02  0.17792815014E+03  0.17144700900E+03 0.  0.
        -24    2    3    3    0    0 -0.34536744462E+02  0.34129842317E+02 -0.40167311751E+01  0.93996896806E+02  0.80384386700E+02 0.  0.
          6    2    1    2  501    0 -0.11417695250E+02  0.18387845519E+02  0.46496585574E+02  0.18049619955E+03  0.17305625950E+03 0.  0.
         24    2    5    5    0    0 -0.47580923622E+02  0.48681670021E+02 -0.11310221000E+02  0.10573516842E+03  0.80113391219E+02 0.  0.
          5    1    5    5  501    0  0.36163228373E+02 -0.30293824502E+02  0.57806806573E+02  0.74761031129E+02  0.47000000000E+01 0. -1.
        -13    1    6    6    0    0 -0.52777593809E+02  0.52553183303E+01 -0.26687635484E+02  0.59374427717E+02  0.00000000000E+00 0.  1.
         14    1    6    6    0    0  0.51966701866E+01  0.43426351690E+02  0.15377414484E+02  0.46360740701E+02  0.00000000000E+00 0. -1.
         -5    1    3    3    0  503  0.45954439711E+02 -0.52517687835E+02  0.46394474039E+02  0.83931253333E+02  0.47000000000E+01 0.  1.
         11    1    4    4    0    0 -0.94834476014E+01  0.11115454265E+02  0.37544713171E+02  0.40287648095E+02  0.00000000000E+00 0. -1.
        -12    1    4    4    0    0 -0.25053296860E+02  0.23014388051E+02 -0.41561444346E+02  0.53709248711E+02  0.00000000000E+00 0.  1.
</event>
<event>
12    1  0.8226261E-002  0.2455086E+03  0.7818608E-02  0.1116538E+00
         21   -1    0    0  501  502  0.00000000000E+00  0.00000000000E+00  0.43173378483E+03  0.43173378483E+03  0.00000000000E+00 0. -1.
         21   -1    0    0  502  503 -0.00000000000E+00 -0.00000000000E+00 -0.17398914540E+03  0.17398914540E+03  0.00000000000E+00 0. -1.
         -6    2    1    2    0  503  0.17229751932E+03 -0.34774680096E+02  0.26547773021E+03  0.36009258295E+03  0.16820383324E+03 0.  0.
        -24    2    3    3    0    0  0.92931639247E+02 -0.81807183054E+02  0.12987646033E+03  0.19601700997E+03  0.78905440106E+02 0.  0.
          6    2    1    2  501    0 -0.17229751932E+03  0.34774680096E+02 -0.77330907877E+01  0.24563034728E+03  0.17140231408E+03 0.  0.
         24    2    5    5    0    0 -0.90491260167E+02  0.86599069004E+02 -0.62999315114E+01  0.14866553269E+03  0.79835359045E+02 0.  0.
          5    1    5    5  501    0 -0.81806259156E+02 -0.51824388908E+02 -0.14331592764E+01  0.96964814589E+02  0.47000000000E+01 0. -1.
        -13    1    6    6    0    0 -0.29729427128E+02  0.65576177782E+02  0.26203979714E+02  0.76620640057E+02  0.00000000000E+00 0.  1.
         14    1    6    6    0    0 -0.60761833039E+02  0.21022891222E+02 -0.32503911225E+02  0.72044892633E+02  0.00000000000E+00 0. -1.
         -5    1    3    3    0  503  0.79365880075E+02  0.47032502958E+02  0.13560126988E+03  0.16407557298E+03  0.47000000000E+01 0.  1.
         11    1    4    4    0    0  0.80354844965E+02 -0.19302094174E+02  0.65946421885E+02  0.10572796465E+03  0.00000000000E+00 0. -1.
        -12    1    4    4    0    0  0.12576794282E+02 -0.62505088880E+02  0.63930038442E+02  0.90289045324E+02  0.00000000000E+00 0.  1.
</event>
<event>
12    1  0.8226261E-002  0.2304483E+03  0.7818608E-02  0.1126725E+00
         21   -1    0    0  501  502  0.00000000000E+00  0.00000000000E+00  0.33224591852E+03  0.33224591852E+03  0.00000000000E+00 0. -1.
         21   -1    0    0  502  503 -0.00000000000E+00 -0.00000000000E+00 -0.16591983573E+03  0.16591983573E+03  0.00000000000E+00 0.  1.
         -6    2    1    2    0  503 -0.72715841911E+02 -0.13272749337E+03  0.29290482031E+02  0.23005161231E+03  0.17076776870E+03 0.  0.
        -24    2    3    3    0    0 -0.47876977517E+02 -0.45441091010E+02  0.74801897906E+02  0.12841862457E+03  0.80863597983E+02 0.  0.
          6    2    1    2  501    0  0.72715841911E+02  0.13272749337E+03  0.13703560076E+03  0.26811414194E+03  0.17378796296E+03 0.  0.
         24    2    5    5    0    0  0.54324161510E+02  0.10212549720E+03  0.16794122519E+03  0.22065907162E+03  0.84293766487E+02 0.  0.
          5    1    5    5  501    0  0.18391680401E+02  0.30601996173E+02 -0.30905624427E+02  0.47455070318E+02  0.47000000000E+01 0. -1.
        -13    1    6    6    0    0  0.37281375073E+02  0.50893151630E+02  0.24999563780E+02  0.67860091360E+02  0.00000000000E+00 0.  1.
         14    1    6    6    0    0  0.17042786437E+02  0.51232345565E+02  0.14294166141E+03  0.15279898026E+03  0.00000000000E+00 0. -1.
         -5    1    3    3    0  503 -0.24838864394E+02 -0.87286402358E+02 -0.45511415875E+02  0.10163298773E+03  0.47000000000E+01 0.  1.
         13    1    4    4    0    0 -0.68026841062E+02 -0.32640355987E+02  0.72155215193E+02  0.10440028268E+03  0.00000000000E+00 0. -1.
        -14    1    4    4    0    0  0.20149863545E+02 -0.12800735024E+02  0.26466827124E+01  0.24018341895E+02  0.00000000000E+00 0.  1.
</event>
<event>
12    1  0.8226261E-002  0.5674576E+03  0.7818608E-02  0.9975775E-01
         21   -1    0    0  501  502  0.00000000000E+00  0.00000000000E+00  0.12118462433E+04  0.12118462433E+04  0.00000000000E+00 0. -1.
         21   -1    0    0  502  503 -0.00000000000E+00 -0.00000000000E+00 -0.58654491584E+03  0.58654491584E+03  0.00000000000E+00 0.  1.
         -6    2    1    2    0  503  0.17436372936E+03  0.51171866284E+03 -0.35267108733E+03  0.66812050574E+03  0.17248018534E+03 0.  0.
        -24    2    3    3    0    0  0.21618832009E+02  0.14455626226E+03 -0.13282177913E+03  0.21370325213E+03  0.81630681131E+02 0.  0.
          6    2    1    2  501    0 -0.17436372936E+03 -0.51171866284E+03  0.97797241482E+03  0.11302706534E+04  0.16977339553E+03 0.  0.
         24    2    5    5    0    0 -0.64307682401E+02 -0.31625257171E+03  0.45225890088E+03  0.55867979014E+03  0.58598868197E+02 0.  0.
          5    1    5    5  501    0 -0.11005604696E+03 -0.19546609113E+03  0.52571351394E+03  0.57159086329E+03  0.47000000000E+01 0. -1.
        -11    1    6    6    0    0 -0.16464731371E+01 -0.15270179786E+03  0.20232147464E+03  0.25348477083E+03  0.00000000000E+00 0.  1.
         12    1    6    6    0    0 -0.62661209264E+02 -0.16355077386E+03  0.24993742624E+03  0.30519501931E+03  0.00000000000E+00 0. -1.
         -5    1    3    3    0  503  0.15274489735E+03  0.36716240058E+03 -0.21984930820E+03  0.45441725361E+03  0.47000000000E+01 0.  1.
         13    1    4    4    0    0 -0.18999692515E+02  0.11635129126E+03 -0.90713196783E+02  0.14875313565E+03  0.00000000000E+00 0. -1.
        -14    1    4    4    0    0  0.40618524524E+02  0.28204971000E+02 -0.42108582345E+02  0.64950116480E+02  0.00000000000E+00 0.  1.
</event>
<event>
12    1  0.8226261E-002  0.1838138E+03  0.7818608E-02  0.1165163E+00
         21   -1    0    0  501  502  0.00000000000E+00  0.00000000000E+00  0.17312619163E+03  0.17312619163E+03  0.00000000000E+00 0.  1.
         21   -1    0    0  502  503 -0.00000000000E+00 -0.00000000000E+00 -0.19168351742E+03  0.19168351742E+03  0.00000000000E+00 0.  1.
         -6    2    1    2    0  503 -0.43278492726E+02 -0.14491058567E+02  0.37078906676E+01  0.17965231112E+03  0.17371869711E+03 0.  0.
        -24    2    3    3    0    0 -0.61054402195E+02 -0.27744438586E+02 -0.53671799447E+02  0.11795827675E+03  0.80846144607E+02 0.  0.
          6    2    1    2  501    0  0.43278492726E+02  0.14491058567E+02 -0.22265216458E+02  0.18515739793E+03  0.17805758460E+03 0.  0.
         24    2    5    5    0    0  0.31794436267E+02  0.63888847343E+02 -0.58186107680E+02  0.12283223837E+03  0.81298614150E+02 0.  0.
          5    1    5    5  501    0  0.11484056459E+02 -0.49397788776E+02  0.35920891222E+02  0.62325159565E+02  0.47000000000E+01 0. -1.
        -13    1    6    6    0    0  0.56892612594E+02  0.59437620918E+02 -0.48849081165E+02  0.95686116437E+02  0.00000000000E+00 0.  1.
         14    1    6    6    0    0 -0.25098176327E+02  0.44512264253E+01 -0.93370265151E+01  0.27146121929E+02  0.00000000000E+00 0. -1.
         -5    1    3    3    0  503  0.17775909469E+02  0.13253380019E+02  0.57379690114E+02  0.61694034371E+02  0.47000000000E+01 0.  1.
         13    1    4    4    0    0 -0.53235592446E+02 -0.36042880820E+02 -0.12401817471E+01  0.64301287791E+02  0.00000000000E+00 0. -1.
        -14    1    4    4    0    0 -0.78188097497E+01  0.82984422338E+01 -0.52431617700E+02  0.53656988958E+02  0.00000000000E+00 0.  1.
</event>
<event>
12    1  0.8226261E-002  0.1758458E+03  0.7818608E-02  0.1172199E+00
         21   -1    0    0  501  502  0.00000000000E+00  0.00000000000E+00  0.46779443297E+03  0.46779443297E+03  0.00000000000E+00 0. -1.
         21   -1    0    0  502  503 -0.00000000000E+00 -0.00000000000E+00 -0.16649957706E+03  0.16649957706E+03  0.00000000000E+00 0. -1.
         -6    2    1    2    0  503 -0.15905158566E+02 -0.23612112026E+02 -0.95989550375E+02  0.20033908475E+03  0.17352593234E+03 0.  0.
        -24    2    3    3    0    0  0.44446713758E+01  0.25740217984E+02 -0.11535005188E+03  0.14335937718E+03  0.81018285790E+02 0.  0.
          6    2    1    2  501    0  0.15905158566E+02  0.23612112026E+02  0.39728440629E+03  0.43395492529E+03  0.17225409080E+03 0.  0.
         24    2    5    5    0    0 -0.40427343375E+02  0.49099389861E+02  0.17127247542E+03  0.19959103088E+03  0.80356696019E+02 0.  0.
          5    1    5    5  501    0  0.56332501941E+02 -0.25487277834E+02  0.22601193087E+03  0.23436389440E+03  0.47000000000E+01 0. -1.
        -13    1    6    6    0    0 -0.64024341937E+01 -0.18341348160E+02  0.10795539247E+02  0.22224758347E+02  0.00000000000E+00 0.  1.
         14    1    6    6    0    0 -0.34024909181E+02  0.67440738021E+02  0.16047693618E+03  0.17736627254E+03  0.00000000000E+00 0. -1.
         -5    1    3    3    0  503 -0.20349829942E+02 -0.49352330011E+02  0.19360501500E+02  0.56979707568E+02  0.47000000000E+01 0.  1.
         11    1    4    4    0    0  0.29727877903E+02 -0.15140297953E+02 -0.27564427419E+02  0.43275547433E+02  0.00000000000E+00 0. -1.
        -12    1    4    4    0    0 -0.25283206527E+02  0.40880515938E+02 -0.87785624456E+02  0.10008382975E+03  0.00000000000E+00 0.  1.
</event>
<event>
12    1  0.8226261E-002  0.1988303E+03  0.7818608E-02  0.1150988E+00
         21   -1    0    0  503  502  0.00000000000E+00  0.00000000000E+00  0.52860730149E+03  0.52860730149E+03  0.00000000000E+00 0. -1.
         21   -1    0    0  501  503 -0.00000000000E+00 -0.00000000000E+00 -0.10545264291E+03  0.10545264291E+03  0.00000000000E+00 0. -1.
          6    2    1    2  501    0  0.12870339586E+02  0.92570941889E+02  0.38899400424E+02  0.20141045356E+03  0.17412059765E+03 0.  0.
         24    2    3    3    0    0 -0.32317545787E+02  0.13899005134E+02 -0.29622618118E+02  0.87618645235E+02  0.74578290268E+02 0.  0.
         -6    2    1    2    0  502 -0.12870339586E+02 -0.92570941889E+02  0.38425525815E+03  0.43264949084E+03  0.17549488193E+03 0.  0.
        -24    2    5    5    0    0 -0.34709057763E+02 -0.85371398124E+02  0.16847806943E+03  0.21559961590E+03  0.98006837442E+02 0.  0.
          5    1    3    3  501    0  0.45187885374E+02  0.78671936755E+02  0.68522018542E+02  0.11379180833E+03  0.47000000000E+01 0. -1.
        -11    1    4    4    0    0 -0.16334762675E+02 -0.29151634101E+02 -0.84884481580E+00  0.33426976829E+02  0.00000000000E+00 0.  1.
         12    1    4    4    0    0 -0.15982783113E+02  0.43050639235E+02 -0.28773773302E+02  0.54191668406E+02  0.00000000000E+00 0. -1.
         -5    1    5    5    0  502  0.21838718176E+02 -0.71995437645E+01  0.21577718872E+03  0.21704987494E+03  0.47000000000E+01 0.  1.
         13    1    6    6    0    0 -0.30910665145E+02 -0.94473423813E+02  0.17671260552E+03  0.20275118243E+03  0.00000000000E+00 0. -1.
        -14    1    6    6    0    0 -0.37983926180E+01  0.91020256887E+01 -0.82345360825E+01  0.12848433469E+02  0.00000000000E+00 0.  1.
</event>
<event>
12    1  0.8226261E-002  0.1984980E+03  0.7818608E-02  0.1151073E+00
         21   -1    0    0  501  502  0.00000000000E+00  0.00000000000E+00  0.48278885575E+02  0.48278885575E+02  0.00000000000E+00 0. -1.
         21   -1    0    0  502  503 -0.00000000000E+00 -0.00000000000E+00 -0.11208808402E+04  0.11208808402E+04  0.00000000000E+00 0. -1.
         -6    2    1    2    0  503  0.20485534210E+02 -0.96907359571E+02 -0.84198680702E+03  0.86506834211E+03  0.17201964966E+03 0.  0.
        -24    2    3    3    0    0  0.59327647473E+01 -0.87550603481E+02 -0.83849187888E+03  0.84680262268E+03  0.79408720943E+02 0.  0.
          6    2    1    2  501    0 -0.20485534210E+02  0.96907359571E+02 -0.23061514763E+03  0.30409138369E+03  0.17169021483E+03 0.  0.
         24    2    5    5    0    0  0.29827047740E+02  0.11177109616E+03 -0.13392686011E+03  0.19398688100E+03  0.79448570973E+02 0.  0.
          5    1    5    5  501    0 -0.50312581950E+02 -0.14863736591E+02 -0.96688287522E+02  0.11010450269E+03  0.47000000000E+01 0. -1.
        -11    1    6    6    0    0 -0.16143888740E+02  0.72862753580E+02 -0.10026881375E+03  0.12499376390E+03  0.00000000000E+00 0.  1.
         12    1    6    6    0    0  0.45970936480E+02  0.38908342582E+02 -0.33658046356E+02  0.68993117105E+02  0.00000000000E+00 0. -1.
         -5    1    3    3    0  503  0.14552769463E+02 -0.93567560907E+01 -0.34949281423E+01  0.18265719430E+02  0.47000000000E+01 0.  1.
         13    1    4    4    0    0 -0.14808280368E+02 -0.74450081020E+02 -0.37198020225E+03  0.37964637572E+03  0.00000000000E+00 0. -1.
        -14    1    4    4    0    0  0.20741045116E+02 -0.13100522461E+02 -0.46651167663E+03  0.46715624696E+03  0.00000000000E+00 0.  1.
</event>
<event>
12    1  0.8226261E-002  0.2436668E+03  0.7818608E-02  0.1117375E+00
         21   -1    0    0  503  502  0.00000000000E+00  0.00000000000E+00  0.15751761115E+03  0.15751761115E+03  0.00000000000E+00 0.  1.
         21   -1    0    0  501  503 -0.00000000000E+00 -0.00000000000E+00 -0.59709629993E+03  0.59709629993E+03  0.00000000000E+00 0.  1.
          6    2    1    2  501    0  0.15517295237E+03 -0.76959628257E+02 -0.44890754275E+03  0.51077538155E+03  0.17138284316E+03 0.  0.
         24    2    3    3    0    0  0.18678638437E+02  0.34122056351E+01 -0.11615486111E+03  0.14221498411E+03  0.79828661931E+02 0.  0.
         -6    2    1    2    0  502 -0.15517295237E+03  0.76959628257E+02  0.93288539709E+01  0.24383852952E+03  0.17137319345E+03 0.  0.
        -24    2    5    5    0    0 -0.12374052260E+03 -0.94879491056E+01  0.28429316955E+02  0.14977419537E+03  0.78881844708E+02 0.  0.
          5    1    3    3  501    0  0.13649431394E+03 -0.80371833893E+02 -0.33275268164E+03  0.36856039744E+03  0.47000000000E+01 0. -1.
        -11    1    4    4    0    0  0.27610226536E+02 -0.60829675235E+01 -0.12387788057E+03  0.12706319844E+03  0.00000000000E+00 0.  1.
         12    1    4    4    0    0 -0.89315880993E+01  0.94951731586E+01  0.77230194649E+01  0.15151785668E+02  0.00000000000E+00 0. -1.
         -5    1    5    5    0  502 -0.31432429775E+02  0.86447577363E+02 -0.19100462985E+02  0.94064334153E+02  0.47000000000E+01 0.  1.
         11    1    6    6    0    0 -0.67764013942E+02 -0.33767358255E+02 -0.11892127634E+02  0.76639537895E+02  0.00000000000E+00 0. -1.
        -12    1    6    6    0    0 -0.55976508655E+02  0.24279409150E+02  0.40321444589E+02  0.73134657473E+02  0.00000000000E+00 0.  1.
</event>
<event>
12    1  0.8226261E-002  0.1752386E+03  0.7818608E-02  0.1172570E+00
         21   -1    0    0  501  502  0.00000000000E+00  0.00000000000E+00  0.98787429983E+02  0.98787429983E+02  0.00000000000E+00 0. -1.
         21   -1    0    0  502  503 -0.00000000000E+00 -0.00000000000E+00 -0.35822693619E+03  0.35822693619E+03  0.00000000000E+00 0. -1.
         -6    2    1    2    0  503 -0.10310328255E+02 -0.31167033827E+02 -0.21339318004E+03  0.27612537728E+03  0.17213624784E+03 0.  0.
        -24    2    3    3    0    0  0.53284764681E+02 -0.20684067986E+02 -0.15978185246E+03  0.19215816425E+03  0.90152220699E+02 0.  0.
          6    2    1    2  501    0  0.10310328255E+02  0.31167033827E+02 -0.46046326170E+02  0.18088898890E+03  0.17182222000E+03 0.  0.
         24    2    5    5    0    0 -0.17078373556E+02 -0.44886159081E+02 -0.38915839807E+02  0.99604531748E+02  0.78103662120E+02 0.  0.
          5    1    5    5  501    0  0.27388701811E+02  0.76053192908E+02 -0.71304863628E+01  0.81284457150E+02  0.47000000000E+01 0. -1.
        -13    1    6    6    0    0 -0.28716065144E+01 -0.54652968799E+02 -0.53862161450E+02  0.76787535178E+02  0.00000000000E+00 0.  1.
         14    1    6    6    0    0 -0.14206767041E+02  0.97668097184E+01  0.14946321643E+02  0.22816996571E+02  0.00000000000E+00 0. -1.
         -5    1    3    3    0  503 -0.63595092936E+02 -0.10482965841E+02 -0.53611327579E+02  0.83967213025E+02  0.47000000000E+01 0.  1.
         11    1    4    4    0    0 -0.24606187509E+02 -0.61563489872E+00 -0.53319829384E+02  0.58726890566E+02  0.00000000000E+00 0. -1.
        -12    1    4    4    0    0  0.77890952190E+02 -0.20068433088E+02 -0.10646202308E+03  0.13343127369E+03  0.00000000000E+00 0.  1.
</event>
<event>
12    1  0.8226261E-002  0.1873975E+03  0.7818608E-02  0.1160916E+00
         21   -1    0    0  501  502  0.00000000000E+00  0.00000000000E+00  0.47901830097E+02  0.47901830097E+02  0.00000000000E+00 0.  1.
         21   -1    0    0  502  503 -0.00000000000E+00 -0.00000000000E+00 -0.73583761547E+03  0.73583761547E+03  0.00000000000E+00 0.  1.
         -6    2    1    2    0  503  0.59984481108E+02 -0.40740712258E+02 -0.37315323340E+03  0.41739823694E+03  0.17239492158E+03 0.  0.
        -24    2    3    3    0    0  0.96396214272E+00  0.35605187989E+02 -0.13012815043E+03  0.15587309646E+03  0.78066817744E+02 0.  0.
          6    2    1    2  501    0 -0.59984481108E+02  0.40740712258E+02 -0.31478255197E+03  0.36634120863E+03  0.17280012300E+03 0.  0.
         24    2    5    5    0    0  0.11771094079E+01  0.40611137277E+02 -0.79754673543E+02  0.12344009587E+03  0.85005877787E+02 0.  0.
          5    1    5    5  501    0 -0.61161590516E+02  0.12957498075E+00 -0.23502787843E+03  0.24290111276E+03  0.47000000000E+01 0. -1.
        -11    1    6    6    0    0 -0.39183951609E+02  0.21403218006E+02 -0.59441842829E+02  0.74342534821E+02  0.00000000000E+00 0.  1.
         12    1    6    6    0    0  0.40361061017E+02  0.19207919271E+02 -0.20312830714E+02  0.49097561047E+02  0.00000000000E+00 0. -1.
         -5    1    3    3    0  503  0.59020518965E+02 -0.76345900247E+02 -0.24302508298E+03  0.26152514047E+03  0.47000000000E+01 0.  1.
         13    1    4    4    0    0  0.11501641805E+02  0.43912128408E+02 -0.29016613847E+02  0.53875102456E+02  0.00000000000E+00 0. -1.
        -14    1    4    4    0    0 -0.10537679662E+02 -0.83069404195E+01 -0.10111153658E+03  0.10199799401E+03  0.00000000000E+00 0.  1.
</event>
<event>
12    1  0.8226261E-002  0.1830014E+03  0.7818608E-02  0.1165480E+00
         21   -1    0    0  503  502  0.00000000000E+00  0.00000000000E+00  0.56340812138E+02  0.56340812138E+02  0.00000000000E+00 0. -1.
         21   -1    0    0  501  503 -0.00000000000E+00 -0.00000000000E+00 -0.92456350716E+03  0.92456350716E+03  0.00000000000E+00 0. -1.
          6    2    1    2  501    0  0.15985253875E+02 -0.63173593398E+02 -0.73223402501E+03  0.75475569860E+03  0.17100604067E+03 0.  0.
         24    2    3    3    0    0  0.33041057497E+02 -0.33689173651E+02 -0.19155783201E+03  0.21298723595E+03  0.80265109311E+02 0.  0.
         -6    2    1    2    0  502 -0.15985253875E+02  0.63173593398E+02 -0.13598867002E+03  0.22614862070E+03  0.16853441496E+03 0.  0.
        -24    2    5    5    0    0 -0.67022584822E+02  0.63325180402E+02 -0.12395570191E+03  0.17350154623E+03  0.78966227972E+02 0.  0.
          5    1    3    3  501    0 -0.17055803622E+02 -0.29484419748E+02 -0.54067619300E+03  0.54176846265E+03  0.47000000000E+01 0. -1.
        -13    1    4    4    0    0 -0.16489682078E+02  0.15269377633E+02 -0.34411572983E+02  0.41100119994E+02  0.00000000000E+00 0.  1.
         14    1    4    4    0    0  0.49530739575E+02 -0.48958551283E+02 -0.15714625903E+03  0.17188711596E+03  0.00000000000E+00 0. -1.
         -5    1    5    5    0  502  0.51037330947E+02 -0.15158700321E+00 -0.12032968113E+02  0.52647074472E+02  0.47000000000E+01 0.  1.
         11    1    6    6    0    0  0.55404402752E+01  0.45101140122E+02 -0.35600501647E+02  0.57725254753E+02  0.00000000000E+00 0. -1.
        -12    1    6    6    0    0 -0.72563025097E+02  0.18224040279E+02 -0.88355200260E+02  0.11577629148E+03  0.00000000000E+00 0.  1.
</event>
<event>
12    1  0.8226261E-002  0.1911008E+03  0.7818608E-02  0.1158051E+00
         21   -1    0    0  503  502  0.00000000000E+00  0.00000000000E+00  0.23833891197E+03  0.23833891197E+03  0.00000000000E+00 0.  1.
         21   -1    0    0  501  503 -0.00000000000E+00 -0.00000000000E+00 -0.39840504142E+03  0.39840504142E+03  0.00000000000E+00 0.  1.
          6    2    1    2  501    0  0.81237150480E+02  0.20029711577E+02 -0.33062440678E+03  0.38060013503E+03  0.16894762638E+03 0.  0.
         24    2    3    3    0    0  0.80210131075E+02 -0.28778524225E+02 -0.30207399638E+03  0.32385055719E+03  0.79803605911E+02 0.  0.
         -6    2    1    2    0  502 -0.81237150480E+02 -0.20029711577E+02  0.17055827733E+03  0.25614381837E+03  0.17181055194E+03 0.  0.
        -24    2    5    5    0    0 -0.70202239366E+02 -0.25854850776E+02  0.21487166153E+02  0.10647756399E+03  0.72656352810E+02 0.  0.
          5    1    3    3  501    0  0.10270194055E+01  0.48808235802E+02 -0.28550410396E+02  0.56749577837E+02  0.47000000000E+01 0. -1.
        -11    1    4    4    0    0  0.73974574205E+02  0.83547890301E+01 -0.15379165743E+03  0.17086226624E+03  0.00000000000E+00 0.  1.
         12    1    4    4    0    0  0.62355568700E+01 -0.37133313255E+02 -0.14828233895E+03  0.15298829095E+03  0.00000000000E+00 0. -1.
         -5    1    5    5    0  502 -0.11034911115E+02  0.58251391990E+01  0.14907111118E+03  0.14966625437E+03  0.47000000000E+01 0.  1.
         13    1    6    6    0    0 -0.40727214461E+02  0.12515644055E+02 -0.15747988064E+02  0.45424073705E+02  0.00000000000E+00 0. -1.
        -14    1    6    6    0    0 -0.29475024905E+02 -0.38370494831E+02  0.37235154217E+02  0.61053490287E+02  0.00000000000E+00 0.  1.
</event>
<event>
12    1  0.8226261E-002  0.2616368E+03  0.7818608E-02  0.1106316E+00
         21   -1    0    0  501  502  0.00000000000E+00  0.00000000000E+00  0.53094353391E+03  0.53094353391E+03  0.00000000000E+00 0.  1.
         21   -1    0    0  502  503 -0.00000000000E+00 -0.00000000000E+00 -0.14651348755E+03  0.14651348755E+03  0.00000000000E+00 0.  1.
         -6    2    1    2    0  503 -0.77216752619E+02  0.18080994372E+03  0.72878340559E+02  0.27061766592E+03  0.17107894656E+03 0.  0.
        -24    2    3    3    0    0 -0.88388656848E+02  0.19071702604E+03  0.92335417338E+02  0.24564508975E+03  0.87350684836E+02 0.  0.
          6    2    1    2  501    0  0.77216752619E+02 -0.18080994372E+03  0.31155170579E+03  0.40683935554E+03  0.17262425437E+03 0.  0.
         24    2    5    5    0    0  0.49766246687E+02 -0.16287568241E+03  0.14702451064E+03  0.23901070497E+03  0.80651987784E+02 0.  0.
          5    1    5    5  501    0  0.27450505932E+02 -0.17934261309E+02  0.16452719515E+03  0.16782865056E+03  0.47000000000E+01 0. -1.
        -11    1    6    6    0    0  0.56968719752E+02 -0.66771366969E+02  0.95576690419E+02  0.12976422553E+03  0.00000000000E+00 0.  1.
         12    1    6    6    0    0 -0.72024730648E+01 -0.96104315439E+02  0.51447820220E+02  0.10924647944E+03  0.00000000000E+00 0. -1.
         -5    1    3    3    0  503  0.11171904229E+02 -0.99070823199E+01 -0.19457076779E+02  0.24972576178E+02  0.47000000000E+01 0.  1.
         11    1    4    4    0    0 -0.42497964272E+02  0.40738602807E+02 -0.80649960616E+01  0.59420155565E+02  0.00000000000E+00 0. -1.
        -12    1    4    4    0    0 -0.45890692576E+02  0.14997842323E+03  0.10040041340E+03  0.18622493418E+03  0.00000000000E+00 0.  1.
</event>
<event>
12    1  0.8226261E-002  0.1846881E+03  0.7818608E-02  0.1163365E+00
         21   -1    0    0  503  502  0.00000000000E+00  0.00000000000E+00  0.24506959891E+03  0.24506959891E+03  0.00000000000E+00 0. -1.
         21   -1    0    0  501  503 -0.00000000000E+00 -0.00000000000E+00 -0.36676201683E+03  0.36676201683E+03  0.00000000000E+00 0. -1.
          6    2    1    2  501    0 -0.42300576007E+02  0.53922985888E+02 -0.30186922142E+03  0.35388515606E+03  0.17150116531E+03 0.  0.
         24    2    3    3    0    0 -0.53741981846E+02  0.98537697139E+02 -0.23172757413E+03  0.26984160240E+03  0.80739974007E+02 0.  0.
         -6    2    1    2    0  502  0.42300576007E+02 -0.53922985888E+02  0.18017680351E+03  0.25794645968E+03  0.17139331493E+03 0.  0.
        -24    2    5    5    0    0 -0.32705369146E+02  0.95607404880E+00  0.11797606153E+03  0.14601511764E+03  0.79570775019E+02 0.  0.
          5    1    3    3  501    0  0.11441405838E+02 -0.44614711251E+02 -0.70141647293E+02  0.84043553664E+02  0.47000000000E+01 0. -1.
        -11    1    4    4    0    0  0.11312043180E+02  0.15257713641E+02 -0.95814971364E+02  0.97679418937E+02  0.00000000000E+00 0.  1.
         12    1    4    4    0    0 -0.65054025026E+02  0.83279983498E+02 -0.13591260277E+03  0.17216218346E+03  0.00000000000E+00 0. -1.
         -5    1    5    5    0  502  0.75005945153E+02 -0.54879059937E+02  0.62200741975E+02  0.11193134204E+03  0.47000000000E+01 0.  1.
         11    1    6    6    0    0 -0.10175056040E+02 -0.50427994173E+01  0.12185187276E+03  0.12237990230E+03  0.00000000000E+00 0. -1.
        -12    1    6    6    0    0 -0.22530313106E+02  0.59988734661E+01 -0.38758112319E+01  0.23635215341E+02  0.00000000000E+00 0.  1.
</event>
<event>
12    1  0.8226261E-002  0.1804087E+03  0.7818608E-02  0.1167943E+00
         21   -1    0    0  501  502  0.00000000000E+00  0.00000000000E+00  0.10992715348E+03  0.10992715348E+03  0.00000000000E+00 0.  1.
         21   -1    0    0  502  503 -0.00000000000E+00 -0.00000000000E+00 -0.37029096767E+03  0.37029096767E+03  0.00000000000E+00 0.  1.
         -6    2    1    2    0  503 -0.46205701767E+02  0.11563862962E+01 -0.24088131788E+03  0.30095032053E+03  0.17438744799E+03 0.  0.
        -24    2    3    3    0    0 -0.41554334416E+02  0.69398918028E+02 -0.11832677904E+03  0.16052103816E+03  0.72268973443E+02 0.  0.
          6    2    1    2  501    0  0.46205701767E+02 -0.11563862962E+01 -0.19482496309E+02  0.17926780061E+03  0.17210773535E+03 0.  0.
         24    2    5    5    0    0 -0.26415132658E+01  0.57985931651E+02 -0.27157518230E+02  0.10203529353E+03  0.79399776244E+02 0.  0.
          5    1    5    5  501    0  0.48847215033E+02 -0.59142317947E+02  0.76750219212E+01  0.77232507081E+02  0.47000000000E+01 0. -1.
        -11    1    6    6    0    0  0.13958820978E+02  0.73975621409E+02 -0.21763956153E+02  0.78363965146E+02  0.00000000000E+00 0.  1.
         12    1    6    6    0    0 -0.16600334244E+02 -0.15989689758E+02 -0.53935620772E+01  0.23671328384E+02  0.00000000000E+00 0. -1.
         -5    1    3    3    0  503 -0.46513673510E+01 -0.68242531732E+02 -0.12255453884E+03  0.14042928237E+03  0.47000000000E+01 0.  1.
         11    1    4    4    0    0 -0.51445050733E+02  0.37762024038E+02 -0.10862417754E+03  0.12598323559E+03  0.00000000000E+00 0. -1.
        -12    1    4    4    0    0  0.98907163168E+01  0.31636893990E+02 -0.97026015044E+01  0.34537802573E+02  0.00000000000E+00 0.  1.
</event>
<event>
12    1  0.8226261E-002  0.2234533E+03  0.7818608E-02  0.1131368E+00
         21   -1    0    0  501  502  0.00000000000E+00  0.00000000000E+00  0.88325436093E+02  0.88325436093E+02  0.00000000000E+00 0. -1.
         21   -1    0    0  502  503 -0.00000000000E+00 -0.00000000000E+00 -0.81352970598E+03  0.81352970598E+03  0.00000000000E+00 0. -1.
         -6    2    1    2    0  503  0.10261888317E+03 -0.99286196819E+02 -0.61202075202E+03  0.65153723036E+03  0.17188070742E+03 0.  0.
        -24    2    3    3    0    0  0.10360882262E+03 -0.98106073224E+02 -0.32034615927E+03  0.35982070576E+03  0.80558604795E+02 0.  0.
          6    2    1    2  501    0 -0.10261888317E+03  0.99286196819E+02 -0.11318351787E+03  0.25031791171E+03  0.17163963454E+03 0.  0.
         24    2    5    5    0    0 -0.78882584078E+02  0.47065610668E+02 -0.14485294974E+03  0.18462586936E+03  0.68313255020E+02 0.  0.
          5    1    5    5  501    0 -0.23736299094E+02  0.52220586150E+02  0.31669431872E+02  0.65692042346E+02  0.47000000000E+01 0. -1.
        -13    1    6    6    0    0 -0.75230447978E+01  0.41651748151E+02 -0.45018980085E+02  0.61791365861E+02  0.00000000000E+00 0.  1.
         14    1    6    6    0    0 -0.71359539280E+02  0.54138625170E+01 -0.99833969654E+02  0.12283450350E+03  0.00000000000E+00 0. -1.
         -5    1    3    3    0  503 -0.98993944434E+00 -0.11801235943E+01 -0.29167459275E+03  0.29171652460E+03  0.47000000000E+01 0.  1.
         13    1    4    4    0    0  0.23215669808E+02 -0.69754917847E+01 -0.14170833109E+03  0.14376674132E+03  0.00000000000E+00 0. -1.
        -14    1    4    4    0    0  0.80393152808E+02 -0.91130581440E+02 -0.17863782819E+03  0.21605396444E+03  0.00000000000E+00 0.  1.
</event>
<event>
12    1  0.8226261E-002  0.2904858E+03  0.7818608E-02  0.1090556E+00
         21   -1    0    0  503  502  0.00000000000E+00  0.00000000000E+00  0.13123710100E+03  0.13123710100E+03  0.00000000000E+00 0. -1.
         21   -1    0    0  501  503 -0.00000000000E+00 -0.00000000000E+00 -0.89088164153E+03  0.89088164153E+03  0.00000000000E+00 0. -1.
          6    2    1    2  501    0  0.10837999544E+03 -0.20283003709E+03 -0.10440616082E+03  0.30537655752E+03  0.17166230836E+03 0.  0.
         24    2    3    3    0    0 -0.70077498458E+01 -0.75135408280E+02 -0.96503023871E+01  0.10885426185E+03  0.77856816349E+02 0.  0.
         -6    2    1    2    0  502 -0.10837999544E+03  0.20283003709E+03 -0.65523837972E+03  0.71674218501E+03  0.17747049942E+03 0.  0.
        -24    2    5    5    0    0 -0.23648381947E+02  0.13649014301E+03 -0.51812480669E+03  0.54237862867E+03  0.80823613044E+02 0.  0.
          5    1    3    3  501    0  0.11538774528E+03 -0.12769462881E+03 -0.94755858432E+02  0.19652229567E+03  0.47000000000E+01 0. -1.
        -11    1    4    4    0    0 -0.31346728418E+02 -0.54603299128E+02 -0.31336255772E+02  0.70328504775E+02  0.00000000000E+00 0.  1.
         12    1    4    4    0    0  0.24338978572E+02 -0.20532109153E+02  0.21685953385E+02  0.38525757078E+02  0.00000000000E+00 0. -1.
         -5    1    5    5    0  502 -0.84731613488E+02  0.66339894081E+02 -0.13711357302E+03  0.17436355634E+03  0.47000000000E+01 0.  1.
         11    1    6    6    0    0 -0.49619434981E+01  0.25593869821E+01 -0.15161171944E+03  0.15171448453E+03  0.00000000000E+00 0. -1.
        -12    1    6    6    0    0 -0.18686438449E+02  0.13393075603E+03 -0.36651308725E+03  0.39066414414E+03  0.00000000000E+00 0.  1.
</event>
<event>
12    1  0.8226261E-002  0.2142604E+03  0.7818608E-02  0.1138926E+00
         21   -1    0    0  501  502  0.00000000000E+00  0.00000000000E+00  0.18890110968E+03  0.18890110968E+03  0.00000000000E+00 0. -1.
         21   -1    0    0  502  503 -0.00000000000E+00 -0.00000000000E+00 -0.72881723408E+03  0.72881723408E+03  0.00000000000E+00 0. -1.
         -6    2    1    2    0  503 -0.11612309830E+03 -0.33495402860E+02 -0.64538090511E+03  0.67890804699E+03  0.17260680060E+03 0.  0.
        -24    2    3    3    0    0 -0.47293271556E+02 -0.42905099965E+01 -0.14243524585E+03  0.17041331055E+03  0.80609150483E+02 0.  0.
          6    2    1    2  501    0  0.11612309830E+03  0.33495402860E+02  0.10546478071E+03  0.23881029677E+03  0.17692094817E+03 0.  0.
         24    2    5    5    0    0  0.95933633938E+02  0.57259697320E+02  0.13696029952E+03  0.19424109365E+03  0.80557704536E+02 0.  0.
          5    1    5    5  501    0  0.20189464358E+02 -0.23764294460E+02 -0.31495518803E+02  0.44569203122E+02  0.47000000000E+01 0. -1.
        -13    1    6    6    0    0 -0.12176214481E+01  0.93880334246E+01 -0.86125656636E+01  0.12798205377E+02  0.00000000000E+00 0.  1.
         14    1    6    6    0    0  0.97151255386E+02  0.47871663895E+02  0.14557286518E+03  0.18144288827E+03  0.00000000000E+00 0. -1.
         -5    1    3    3    0  503 -0.68829826740E+02 -0.29204892863E+02 -0.50294565927E+03  0.50849473644E+03  0.47000000000E+01 0.  1.
         13    1    4    4    0    0 -0.61574252033E+02 -0.21528898470E+02 -0.12832456571E+03  0.14395164517E+03  0.00000000000E+00 0. -1.
        -14    1    4    4    0    0  0.14280980477E+02  0.17238388473E+02 -0.14110680135E+02  0.26461665375E+02  0.00000000000E+00 0.  1.
</event>
<event>
12    1  0.8226261E-002  0.2046447E+03  0.7818608E-02  0.1146747E+00
         21   -1    0    0  501  502  0.00000000000E+00  0.00000000000E+00  0.17218320739E+03  0.17218320739E+03  0.00000000000E+00 0.  1.
         21   -1    0    0  502  503 -0.00000000000E+00 -0.00000000000E+00 -0.55089157123E+03  0.55089157123E+03  0.00000000000E+00 0. -1.
         -6    2    1    2    0  503 -0.10651900758E+03  0.31328672595E+02 -0.46085332780E+03  0.50255893834E+03  0.16688892131E+03 0.  0.
        -24    2    3    3    0    0 -0.13644229006E+03  0.25523351358E+02 -0.43024766053E+03  0.45910895033E+03  0.80000243125E+02 0.  0.
          6    2    1    2  501    0  0.10651900758E+03 -0.31328672595E+02  0.82144963960E+02  0.22051584028E+03  0.17190595106E+03 0.  0.
         24    2    5    5    0    0  0.15562125550E+02 -0.18013379103E+02  0.78689831468E+02  0.12840460660E+03  0.98635651985E+02 0.  0.
          5    1    5    5  501    0  0.90956882030E+02 -0.13315293492E+02  0.34551324921E+01  0.92111233679E+02  0.47000000000E+01 0. -1.
        -11    1    6    6    0    0 -0.36678997170E+02 -0.24963184958E+02  0.17619268962E+02  0.47738329206E+02  0.00000000000E+00 0.  1.
         12    1    6    6    0    0  0.52241122720E+02  0.69498058550E+01  0.61070562506E+02  0.80666277398E+02  0.00000000000E+00 0. -1.
         -5    1    3    3    0  503  0.29923282479E+02  0.58053212368E+01 -0.30605667269E+02  0.43449988009E+02  0.47000000000E+01 0.  1.
         13    1    4    4    0    0 -0.23231786171E+02  0.34074127269E+02 -0.17427364423E+03  0.17908675303E+03  0.00000000000E+00 0. -1.
        -14    1    4    4    0    0 -0.11321050389E+03 -0.85507759110E+01 -0.25597401629E+03  0.28002219729E+03  0.00000000000E+00 0.  1.
</event>
<event>
12    1  0.8226261E-002  0.2211750E+03  0.7818608E-02  0.1133044E+00
         21   -1    0    0  501  502  0.00000000000E+00  0.00000000000E+00  0.83085920278E+03  0.83085920278E+03  0.00000000000E+00 0.  1.
         21   -1    0    0  502  503 -0.00000000000E+00 -0.00000000000E+00 -0.62938040556E+02  0.62938040556E+02  0.00000000000E+00 0. -1.
         -6    2    1    2    0  503  0.32365964865E+02  0.13534707349E+03  0.26990489726E+03  0.34895134856E+03  0.17190696353E+03 0.  0.
        -24    2    3    3    0    0 -0.22668871862E+02  0.13701040109E+03  0.23061465660E+03  0.28114712359E+03  0.81085495045E+02 0.  0.
          6    2    1    2  501    0 -0.32365964865E+02 -0.13534707349E+03  0.49801626496E+03  0.54484589477E+03  0.17166963302E+03 0.  0.
         24    2    5    5    0    0  0.20208348919E+02 -0.14573018188E+03  0.35911561056E+03  0.39589170987E+03  0.78234013797E+02 0.  0.
          5    1    5    5  501    0 -0.52574313784E+02  0.10383108385E+02  0.13890065440E+03  0.14895418491E+03  0.47000000000E+01 0. -1.
        -13    1    6    6    0    0  0.12884782900E+02  0.27579916451E+01  0.65168613727E+02  0.66487384994E+02  0.00000000000E+00 0.  1.
         14    1    6    6    0    0  0.73235660192E+01 -0.14848817352E+03  0.29394699683E+03  0.32940432487E+03  0.00000000000E+00 0. -1.
         -5    1    3    3    0  503  0.55034836727E+02 -0.16633275952E+01  0.39290240660E+02  0.67804224967E+02  0.47000000000E+01 0.  1.
         11    1    4    4    0    0 -0.14555285101E+02  0.39039523908E+02  0.15181500442E+02  0.44344319896E+02  0.00000000000E+00 0. -1.
        -12    1    4    4    0    0 -0.81135867614E+01  0.97970877181E+02  0.21543315616E+03  0.23680280370E+03  0.00000000000E+00 0.  1.
</event>
<event>
12    1  0.8226261E-002  0.2392965E+03  0.7818608E-02  0.1120585E+00
         21   -1    0    0  501  502  0.00000000000E+00  0.00000000000E+00  0.13799061850E+04  0.13799061850E+04  0.00000000000E+00 0. -1.
         21   -1    0    0  502  503 -0.00000000000E+00 -0.00000000000E+00 -0.88101628355E+02  0.88101628355E+02  0.00000000000E+00 0. -1.
         -6    2    1    2    0  503  0.45874867020E+02 -0.15952591555E+03  0.11137014156E+03  0.26394342550E+03  0.17236531634E+03 0.  0.
        -24    2    3    3    0    0 -0.20061208111E+01 -0.16278759866E+03  0.54060039084E+02  0.18904505824E+03  0.79446330462E+02 0.  0.
          6    2    1    2  501    0 -0.45874867020E+02  0.15952591555E+03  0.11804344151E+04  0.12040643879E+04  0.16968388438E+03 0.  0.
         24    2    5    5    0    0 -0.32804882157E+02  0.59469949096E+02  0.29656583698E+03  0.31444212290E+03  0.79433732472E+02 0.  0.
          5    1    5    5  501    0 -0.13069984862E+02  0.10005596645E+03  0.88386857814E+03  0.88962226498E+03  0.47000000000E+01 0. -1.
        -11    1    6    6    0    0 -0.30092734359E+02  0.75819277806E+02  0.19258038664E+03  0.20914430633E+03  0.00000000000E+00 0.  1.
         12    1    6    6    0    0 -0.27121477984E+01 -0.16349328709E+02  0.10398545034E+03  0.10529781658E+03  0.00000000000E+00 0. -1.
         -5    1    3    3    0  503  0.47880987831E+02  0.32616831050E+01  0.57310102472E+02  0.74898367257E+02  0.47000000000E+01 0.  1.
         11    1    4    4    0    0 -0.13818806817E+02 -0.15142927110E+03  0.68896954236E+02  0.16693883273E+03  0.00000000000E+00 0. -1.
        -12    1    4    4    0    0  0.11812686006E+02 -0.11358327552E+02 -0.14836915152E+02  0.22106225519E+02  0.00000000000E+00 0.  1.
</event>
<event>
12    1  0.8226261E-002  0.1900079E+03  0.7818608E-02  0.1160720E+00
         21   -1    0    0  503  502  0.00000000000E+00  0.00000000000E+00  0.38239021532E+04  0.38239021532E+04  0.00000000000E+00 0. -1.
         21   -1    0    0  501  503 -0.00000000000E+00 -0.00000000000E+00 -0.35952764318E+02  0.35952764318E+02  0.00000000000E+00 0. -1.
          6    2    1    2  501    0 -0.39929267229E+02 -0.66495106669E+02  0.23440649395E+03  0.30174393277E+03  0.17345619321E+03 0.  0.
         24    2    3    3    0    0  0.19285254277E+02 -0.93358316966E+02  0.15778638425E+03  0.20114212943E+03  0.80460653715E+02 0.  0.
         -6    2    1    2    0  502  0.39929267229E+02  0.66495106669E+02  0.35535428950E+04  0.35581109848E+04  0.16269827322E+03 0.  0.
        -24    2    5    5    0    0 -0.14419530881E+02  0.87329311809E+01  0.96833400299E+03  0.97168152201E+03  0.78803882583E+02 0.  0.
          5    1    3    3  501    0 -0.59214521506E+02  0.26863210298E+02  0.76620109705E+02  0.10060180334E+03  0.47000000000E+01 0. -1.
        -13    1    4    4    0    0  0.42525924850E+02 -0.30034736699E+02  0.98161868979E+02  0.11111387049E+03  0.00000000000E+00 0.  1.
         14    1    4    4    0    0 -0.23240670573E+02 -0.63323580267E+02  0.59624515269E+02  0.90028258939E+02  0.00000000000E+00 0. -1.
         -5    1    5    5    0  502  0.54348798110E+02  0.57762175488E+02  0.25852088920E+04  0.25864294628E+04  0.47000000000E+01 0.  1.
         13    1    6    6    0    0 -0.16073172473E+02  0.32849756614E+02  0.85577182095E+03  0.85655289557E+03  0.00000000000E+00 0. -1.
        -14    1    6    6    0    0  0.16536415918E+01 -0.24116825433E+02  0.11256218204E+03  0.11512862644E+03  0.00000000000E+00 0.  1.
</event>
<event>
12    1  0.8226261E-002  0.2623895E+03  0.7818608E-02  0.1105757E+00
         21   -1    0    0  503  502  0.00000000000E+00  0.00000000000E+00  0.17245793701E+03  0.17245793701E+03  0.00000000000E+00 0.  1.
         21   -1    0    0  501  503 -0.00000000000E+00 -0.00000000000E+00 -0.43475253931E+03  0.43475253931E+03  0.00000000000E+00 0.  1.
          6    2    1    2  501    0  0.16959446221E+03  0.10197590826E+03 -0.21839361015E+03  0.34117376497E+03  0.17187903151E+03 0.  0.
         24    2    3    3    0    0  0.15460833072E+03  0.17174581342E+02 -0.15012767209E+03  0.23118204945E+03  0.81903112815E+02 0.  0.
         -6    2    1    2    0  502 -0.16959446221E+03 -0.10197590826E+03 -0.43900992146E+02  0.26603671134E+03  0.17229877306E+03 0.  0.
        -24    2    5    5    0    0 -0.51143966903E+02 -0.29044485505E+02 -0.71320154884E+02  0.12417969620E+03  0.82914081830E+02 0.  0.
          5    1    3    3  501    0  0.14986131488E+02  0.84801326913E+02 -0.68265938059E+02  0.10999171552E+03  0.47000000000E+01 0. -1.
        -13    1    4    4    0    0  0.12379045743E+03  0.41619358147E+02 -0.13804322806E+03  0.19003205292E+03  0.00000000000E+00 0.  1.
         14    1    4    4    0    0  0.30817873289E+02 -0.24444776805E+02 -0.12084444033E+02  0.41149996534E+02  0.00000000000E+00 0. -1.
         -5    1    5    5    0  502 -0.11845049530E+03 -0.72931422750E+02  0.27419162738E+02  0.14185701515E+03  0.47000000000E+01 0.  1.
         11    1    6    6    0    0  0.60596750714E+01 -0.42460327361E+02 -0.30960515896E+02  0.52897567109E+02  0.00000000000E+00 0. -1.
        -12    1    6    6    0    0 -0.57203641975E+02  0.13415841856E+02 -0.40359638988E+02  0.71282129087E+02  0.00000000000E+00 0.  1.
</event>
<event>
12    1  0.8226261E-002  0.2011344E+03  0.7818608E-02  0.1148922E+00
         21   -1    0    0  503  502  0.00000000000E+00  0.00000000000E+00  0.30257824163E+03  0.30257824163E+03  0.00000000000E+00 0.  1.
         21   -1    0    0  501  503 -0.00000000000E+00 -0.00000000000E+00 -0.31603251982E+03  0.31603251982E+03  0.00000000000E+00 0.  1.
          6    2    1    2  501    0  0.91426220348E+02  0.51196182713E+02 -0.24193831216E+03  0.31420970052E+03  0.17092040873E+03 0.  0.
         24    2    3    3    0    0  0.49850435379E+02  0.27035418181E+02 -0.38334885930E+02  0.10495212333E+03  0.79557557584E+02 0.  0.
         -6    2    1    2    0  502 -0.91426220348E+02 -0.51196182713E+02  0.22848403398E+03  0.30440106093E+03  0.17168357295E+03 0.  0.
        -24    2    5    5    0    0 -0.66734076716E+01 -0.60972995369E+02  0.63272922458E+02  0.11840260209E+03  0.79078903194E+02 0.  0.
          5    1    3    3  501    0  0.41575784969E+02  0.24160764532E+02 -0.20360342623E+03  0.20925757719E+03  0.47000000000E+01 0. -1.
        -13    1    4    4    0    0  0.43373354201E+02  0.49321698887E+02 -0.46362000829E+02  0.80394732145E+02  0.00000000000E+00 0.  1.
         14    1    4    4    0    0  0.64770811781E+01 -0.22286280706E+02  0.80271148991E+01  0.24557391187E+02  0.00000000000E+00 0. -1.
         -5    1    5    5    0  502 -0.84752812676E+02  0.97768126562E+01  0.16521111152E+03  0.18599845884E+03  0.47000000000E+01 0.  1.
         11    1    6    6    0    0 -0.79484296376E+01 -0.37839952760E+02 -0.11324708660E+02  0.40290055657E+02  0.00000000000E+00 0. -1.
        -12    1    6    6    0    0  0.12750219660E+01 -0.23133042609E+02  0.74597631118E+02  0.78112546430E+02  0.00000000000E+00 0.  1.
</event>
<event>
12    1  0.8226261E-002  0.2063887E+03  0.7818608E-02  0.1144473E+00
         21   -1    0    0  503  502  0.00000000000E+00  0.00000000000E+00  0.16319292168E+03  0.16319292168E+03  0.00000000000E+00 0.  1.
         21   -1    0    0  501  503 -0.00000000000E+00 -0.00000000000E+00 -0.42099260467E+03  0.42099260467E+03  0.00000000000E+00 0.  1.
          6    2    1    2  501    0 -0.10914158956E+03  0.18190634369E+02 -0.30899335460E+03  0.37154246748E+03  0.17413823877E+03 0.  0.
         24    2    3    3    0    0 -0.11668254968E+03  0.15440654094E+02 -0.12824628968E+03  0.19055622505E+03  0.77532785890E+02 0.  0.
         -6    2    1    2    0  502  0.10914158956E+03 -0.18190634369E+02  0.51193671616E+02  0.21264305887E+03  0.17422253793E+03 0.  0.
        -24    2    5    5    0    0  0.10886464865E+03  0.23717455839E+02 -0.11209642896E+02  0.13732620563E+03  0.79490887657E+02 0.  0.
          5    1    3    3  501    0  0.75409601248E+01  0.27499802755E+01 -0.18074706492E+03  0.18098624243E+03  0.47000000000E+01 0. -1.
        -13    1    4    4    0    0 -0.79186002421E+02  0.20008403454E+02 -0.32993672782E+02  0.88087125233E+02  0.00000000000E+00 0.  1.
         14    1    4    4    0    0 -0.37496547263E+02 -0.45677493602E+01 -0.95252616895E+02  0.10246909981E+03  0.00000000000E+00 0. -1.
         -5    1    5    5    0  502  0.27694090887E+00 -0.41908090208E+02  0.62403314512E+02  0.75316853248E+02  0.47000000000E+01 0.  1.
         11    1    6    6    0    0  0.23801163021E+02  0.21762076775E+02 -0.36359253100E+02  0.48601220485E+02  0.00000000000E+00 0. -1.
        -12    1    6    6    0    0  0.85063485630E+02  0.19553790642E+01  0.25149610204E+02  0.88724985141E+02  0.00000000000E+00 0.  1.
</event>
<event>
12    1  0.8226261E-002  0.1785100E+03  0.7818608E-02  0.1170070E+00
         21   -1    0    0  501  502  0.00000000000E+00  0.00000000000E+00  0.18885246624E+03  0.18885246624E+03  0.00000000000E+00 0.  1.
         21   -1    0    0  502  503 -0.00000000000E+00 -0.00000000000E+00 -0.16701059484E+03  0.16701059484E+03  0.00000000000E+00 0.  1.
         -6    2    1    2    0  503  0.31313149541E+02 -0.10399821539E+02 -0.52023518154E+01  0.17858575870E+03  0.17543414469E+03 0.  0.
        -24    2    3    3    0    0  0.16161548375E+02  0.56478520498E+02  0.26151599487E+02  0.10303813191E+03  0.80510443721E+02 0.  0.
          6    2    1    2  501    0 -0.31313149541E+02  0.10399821539E+02  0.27044223216E+02  0.17727730239E+03  0.17206737724E+03 0.  0.
         24    2    5    5    0    0 -0.65778758460E+02 -0.32356308334E+02  0.47421050731E+02  0.11851277278E+03  0.80142033332E+02 0.  0.
          5    1    5    5  501    0  0.34465608919E+02  0.42756129873E+02 -0.20376827515E+02  0.58764529603E+02  0.47000000000E+01 0. -1.
        -13    1    6    6    0    0  0.16605407942E+02 -0.17058605262E+00  0.19821647402E+02  0.25858584228E+02  0.00000000000E+00 0.  1.
         14    1    6    6    0    0 -0.82384166403E+02 -0.32185722282E+02  0.27599403329E+02  0.92654188555E+02  0.00000000000E+00 0. -1.
         -5    1    3    3    0  503  0.15151601166E+02 -0.66878342037E+02 -0.31353951303E+02  0.75547626792E+02  0.47000000000E+01 0.  1.
         13    1    4    4    0    0  0.96427333766E+01  0.60423003857E+02 -0.13501626073E+02  0.62659521293E+02  0.00000000000E+00 0. -1.
        -14    1    4    4    0    0  0.65188149980E+01 -0.39444833592E+01  0.39653225560E+02  0.40378610616E+02  0.00000000000E+00 0.  1.
</event>
<event>
12    1  0.8226261E-002  0.2163497E+03  0.7818608E-02  0.1140405E+00
         21   -1    0    0  501  502  0.00000000000E+00  0.00000000000E+00  0.68984469094E+02  0.68984469094E+02  0.00000000000E+00 0.  1.
         21   -1    0    0  502  503 -0.00000000000E+00 -0.00000000000E+00 -0.63382277219E+03  0.63382277219E+03  0.00000000000E+00 0. -1.
         -6    2    1    2    0  503  0.68744443673E+02  0.67832111093E+02 -0.21925046205E+03  0.29508411955E+03  0.17226978455E+03 0.  0.
        -24    2    3    3    0    0  0.84258831487E+01  0.72609672610E+02 -0.57272206747E+02  0.12210955775E+03  0.79293621215E+02 0.  0.
          6    2    1    2  501    0 -0.68744443673E+02 -0.67832111093E+02 -0.34558784105E+03  0.40772312173E+03  0.19359802242E+03 0.  0.
         24    2    5    5    0    0  0.31675577223E+02 -0.73235445614E+02 -0.22143444799E+03  0.24788091320E+03  0.77749338824E+02 0.  0.
          5    1    5    5  501    0 -0.10042002090E+03  0.54033345214E+01 -0.12415339306E+03  0.15984220853E+03  0.47000000000E+01 0. -1.
        -13    1    6    6    0    0  0.14587724893E+02 -0.84901610029E+02 -0.20153335872E+03  0.21917294491E+03  0.00000000000E+00 0.  1.
         14    1    6    6    0    0  0.17087852330E+02  0.11666164415E+02 -0.19901089263E+02  0.28707968289E+02  0.00000000000E+00 0. -1.
         -5    1    3    3    0  503  0.60318560525E+02 -0.47775615172E+01 -0.16197825530E+03  0.17297456180E+03  0.47000000000E+01 0.  1.
         13    1    4    4    0    0  0.17968958807E+02  0.17192357091E+02 -0.60877448352E+02  0.65761115721E+02  0.00000000000E+00 0. -1.
        -14    1    4    4    0    0 -0.95430756580E+01  0.55417315518E+02  0.36052416055E+01  0.56348442031E+02  0.00000000000E+00 0.  1.
</event>
<event>
12    1  0.8226261E-002  0.1855539E+03  0.7818608E-02  0.1162595E+00
         21   -1    0    0  503  502  0.00000000000E+00  0.00000000000E+00  0.28060252724E+03  0.28060252724E+03  0.00000000000E+00 0. -1.
         21   -1    0    0  501  503 -0.00000000000E+00 -0.00000000000E+00 -0.14941614106E+03  0.14941614106E+03  0.00000000000E+00 0. -1.
          6    2    1    2  501    0  0.65567630296E+02 -0.14818998692E+02 -0.25578845782E+02  0.18730867408E+03  0.17294954515E+03 0.  0.
         24    2    3    3    0    0  0.17276685212E+01 -0.57218467264E+02 -0.44338266761E+02  0.10826905408E+03  0.80494523644E+02 0.  0.
         -6    2    1    2    0  502 -0.65567630296E+02  0.14818998692E+02  0.15676523196E+03  0.24270999422E+03  0.17266756058E+03 0.  0.
        -24    2    5    5    0    0 -0.43789401408E+00  0.57711988462E+02  0.53191478691E+02  0.11297448063E+03  0.81259057985E+02 0.  0.
          5    1    3    3  501    0  0.63839961775E+02  0.42399468572E+02  0.18759420979E+02  0.79039620002E+02  0.47000000000E+01 0. -1.
        -11    1    4    4    0    0 -0.19401903525E+02  0.90015878334E+01 -0.30729286862E+02  0.37439972155E+02  0.00000000000E+00 0.  1.
         12    1    4    4    0    0  0.21129572046E+02 -0.66220055097E+02 -0.13608979899E+02  0.70829081922E+02  0.00000000000E+00 0. -1.
         -5    1    5    5    0  502 -0.65129736282E+02 -0.42892989770E+02  0.10357375327E+03  0.12973551359E+03  0.47000000000E+01 0.  1.
         13    1    6    6    0    0 -0.97446529201E+01  0.39563427747E+02  0.73597166841E+02  0.84123516585E+02  0.00000000000E+00 0. -1.
        -14    1    6    6    0    0  0.93067589061E+01  0.18148560715E+02 -0.20405688150E+02  0.28850964044E+02  0.00000000000E+00 0.  1.
</event>
<event>
12    1  0.8226261E-002  0.2143211E+03  0.7818608E-02  0.1139694E+00
         21   -1    0    0  503  502  0.00000000000E+00  0.00000000000E+00  0.65822532164E+02  0.65822532164E+02  0.00000000000E+00 0. -1.
         21   -1    0    0  501  503 -0.00000000000E+00 -0.00000000000E+00 -0.10721511151E+04  0.10721511151E+04  0.00000000000E+00 0. -1.
          6    2    1    2  501    0  0.41744274840E+02 -0.11159368888E+03 -0.15034883802E+03  0.25557075614E+03  0.16886652250E+03 0.  0.
         24    2    3    3    0    0  0.86615820770E+02 -0.99276295436E+02 -0.91773866075E+02  0.18061549513E+03  0.82712945436E+02 0.  0.
         -6    2    1    2    0  502 -0.41744274840E+02  0.11159368888E+03 -0.85597974495E+03  0.88240289115E+03  0.17815106701E+03 0.  0.
        -24    2    5    5    0    0 -0.70499450393E+02  0.10324599321E+03 -0.82903150691E+03  0.84184624340E+03  0.76039137590E+02 0.  0.
          5    1    3    3  501    0 -0.44871545929E+02 -0.12317393444E+02 -0.58574971945E+02  0.74955261014E+02  0.47000000000E+01 0. -1.
        -13    1    4    4    0    0  0.47624564847E+01  0.12779884661E+02  0.10264748565E+01  0.13676991421E+02  0.00000000000E+00 0.  1.
         14    1    4    4    0    0  0.81853364285E+02 -0.11205618010E+03 -0.92800340931E+02  0.16693850371E+03  0.00000000000E+00 0. -1.
         -5    1    5    5    0  502  0.28755175553E+02  0.83476956707E+01 -0.26948238032E+02  0.40556647755E+02  0.47000000000E+01 0.  1.
         11    1    6    6    0    0 -0.22178162243E+02  0.19589691388E-01 -0.52463536142E+02  0.56958703363E+02  0.00000000000E+00 0. -1.
        -12    1    6    6    0    0 -0.48321288150E+02  0.10322640352E+03 -0.77656797077E+03  0.78488754003E+03  0.00000000000E+00 0.  1.
</event>
<event>
12    1  0.8226261E-002  0.3137224E+03  0.7818608E-02  0.1078773E+00
         21   -1    0    0  503  502  0.00000000000E+00  0.00000000000E+00  0.34769003404E+03  0.34769003404E+03  0.00000000000E+00 0. -1.
         21   -1    0    0  501  503 -0.00000000000E+00 -0.00000000000E+00 -0.49551652211E+03  0.49551652211E+03  0.00000000000E+00 0.  1.
          6    2    1    2  501    0  0.20686353047E+03  0.15487640434E+03 -0.35105566384E+03  0.47080973982E+03  0.17788342007E+03 0.  0.
         24    2    3    3    0    0  0.17324478031E+03  0.16882699787E+03 -0.35189121297E+03  0.43409969262E+03  0.78094867012E+02 0.  0.
         -6    2    1    2    0  502 -0.20686353047E+03 -0.15487640434E+03  0.20322917576E+03  0.37239681633E+03  0.17492304043E+03 0.  0.
        -24    2    5    5    0    0 -0.17519169339E+03 -0.46685980781E+02  0.11479388495E+03  0.22904004574E+03  0.80062452473E+02 0.  0.
          5    1    3    3  501    0  0.33618750165E+02 -0.13950593535E+02  0.83554913652E+00  0.36710047194E+02  0.47000000000E+01 0. -1.
        -13    1    4    4    0    0  0.10344511442E+03  0.11502711323E+03 -0.15802243955E+03  0.22114072415E+03  0.00000000000E+00 0.  1.
         14    1    4    4    0    0  0.69799665885E+02  0.53799884645E+02 -0.19386877342E+03  0.21295896848E+03  0.00000000000E+00 0. -1.
         -5    1    5    5    0  502 -0.31671837081E+02 -0.10819042356E+03  0.88435290817E+02  0.14335677060E+03  0.47000000000E+01 0.  1.
         13    1    6    6    0    0 -0.13652165633E+03 -0.66625394473E+02  0.10434183918E+03  0.18429412698E+03  0.00000000000E+00 0. -1.
        -14    1    6    6    0    0 -0.38670037067E+02  0.19939413692E+02  0.10452045762E+02  0.44745918761E+02  0.00000000000E+00 0.  1.
</event>
<event>
12    1  0.8226261E-002  0.1741677E+03  0.7818608E-02  0.1173600E+00
         21   -1    0    0  501  502  0.00000000000E+00  0.00000000000E+00  0.11722361024E+03  0.11722361024E+03  0.00000000000E+00 0. -1.
         21   -1    0    0  502  503 -0.00000000000E+00 -0.00000000000E+00 -0.28792684314E+03  0.28792684314E+03  0.00000000000E+00 0. -1.
         -6    2    1    2    0  503  0.80277925702E+01 -0.24166269300E+02 -0.14997726057E+03  0.22975388433E+03  0.17217785762E+03 0.  0.
        -24    2    3    3    0    0 -0.30633583810E+02 -0.19088519965E+02 -0.40271032254E+02  0.11322907113E+03  0.99480040503E+02 0.  0.
          6    2    1    2  501    0 -0.80277925702E+01  0.24166269300E+02 -0.20725972331E+02  0.17539656905E+03  0.17229607216E+03 0.  0.
         24    2    5    5    0    0  0.43241145489E+01  0.65927591379E+02  0.30812248965E+02  0.10775888809E+03  0.79356398637E+02 0.  0.
          5    1    5    5  501    0 -0.12351907119E+02 -0.41761322079E+02 -0.51538221297E+02  0.67637680960E+02  0.47000000000E+01 0. -1.
        -11    1    6    6    0    0  0.66574495393E+01 -0.13100194764E+02 -0.10967511967E+02  0.18336386121E+02  0.00000000000E+00 0.  1.
         12    1    6    6    0    0 -0.23333349904E+01  0.79027786143E+02  0.41779760932E+02  0.89422501969E+02  0.00000000000E+00 0. -1.
         -5    1    3    3    0  503  0.38661376380E+02 -0.50777493357E+01 -0.10970622831E+03  0.11652481320E+03  0.47000000000E+01 0.  1.
         11    1    4    4    0    0 -0.60063110950E+02 -0.37669752304E+02 -0.29556426797E+02  0.76812563429E+02  0.00000000000E+00 0. -1.
        -12    1    4    4    0    0  0.29429527140E+02  0.18581232339E+02 -0.10714605458E+02  0.36416507700E+02  0.00000000000E+00 0.  1.
</event>
<event>
12    1  0.8226261E-002  0.2044333E+03  0.7818608E-02  0.1146230E+00
         21   -1    0    0  503  502  0.00000000000E+00  0.00000000000E+00  0.34130041167E+02  0.34130041167E+02  0.00000000000E+00 0. -1.
         21   -1    0    0  501  503 -0.00000000000E+00 -0.00000000000E+00 -0.15326794512E+04  0.15326794512E+04  0.00000000000E+00 0. -1.
          6    2    1    2  501    0 -0.97890946398E+01 -0.11006502311E+03 -0.11022266249E+04  0.11208669767E+04  0.17096523362E+03 0.  0.
         24    2    3    3    0    0  0.57924018682E+01 -0.37715788528E+02 -0.91715180925E+03  0.92148801049E+03  0.80725953884E+02 0.  0.
         -6    2    1    2    0  502  0.97890946398E+01  0.11006502311E+03 -0.39632278512E+03  0.44594251566E+03  0.17199663249E+03 0.  0.
        -24    2    5    5    0    0 -0.55579925480E+02  0.77229996104E+02 -0.18909219497E+03  0.22612928748E+03  0.79529843737E+02 0.  0.
          5    1    3    3  501    0 -0.15581496508E+02 -0.72349234582E+02 -0.18507481569E+03  0.19937896625E+03  0.47000000000E+01 0. -1.
        -13    1    4    4    0    0  0.14302588517E+02  0.41748459086E+01 -0.31935054120E+02  0.35239765299E+02  0.00000000000E+00 0.  1.
         14    1    4    4    0    0 -0.85101866490E+01 -0.41890634436E+02 -0.88521675513E+03  0.88624824519E+03  0.00000000000E+00 0. -1.
         -5    1    5    5    0  502  0.65369020120E+02  0.32835027005E+02 -0.20723059015E+03  0.21981322818E+03  0.47000000000E+01 0.  1.
         13    1    6    6    0    0 -0.65681463805E+01  0.74470042800E+02 -0.10844058358E+03  0.13171289986E+03  0.00000000000E+00 0. -1.
        -14    1    6    6    0    0 -0.49011779100E+02  0.27599533040E+01 -0.80651611385E+02  0.94416387623E+02  0.00000000000E+00 0.  1.
</event>
<event>
12    1  0.8226261E-002  0.2386880E+03  0.7818608E-02  0.1120976E+00
         21   -1    0    0  503  502  0.00000000000E+00  0.00000000000E+00  0.80311004337E+03  0.80311004337E+03  0.00000000000E+00 0.  1.
         21   -1    0    0  501  503 -0.00000000000E+00 -0.00000000000E+00 -0.79687636616E+02  0.79687636616E+02  0.00000000000E+00 0. -1.
          6    2    1    2  501    0 -0.17126893301E+02  0.16210631776E+03  0.51362227429E+03  0.56637426913E+03  0.17435648355E+03 0.  0.
         24    2    3    3    0    0  0.51935163559E+02  0.99291269156E+02  0.35998054410E+03  0.38653220152E+03  0.85235751496E+02 0.  0.
         -6    2    1    2    0  502  0.17126893301E+02 -0.16210631776E+03  0.20980013247E+03  0.31642341085E+03  0.17186009026E+03 0.  0.
        -24    2    5    5    0    0 -0.53833882806E+02 -0.99216743222E+02  0.14766527648E+03  0.20296257770E+03  0.81527449343E+02 0.  0.
          5    1    3    3  501    0 -0.69062056861E+02  0.62815048604E+02  0.15364173019E+03  0.17984206761E+03  0.47000000000E+01 0. -1.
        -13    1    4    4    0    0  0.14182534355E+02  0.68599119331E+02  0.30576209082E+03  0.31368366173E+03  0.00000000000E+00 0.  1.
         14    1    4    4    0    0  0.37752629205E+02  0.30692149825E+02  0.54218453280E+02  0.72848539785E+02  0.00000000000E+00 0. -1.
         -5    1    5    5    0  502  0.70960776108E+02 -0.62889574539E+02  0.62134855989E+02  0.11346083315E+03  0.47000000000E+01 0.  1.
         13    1    6    6    0    0 -0.69635439430E+02 -0.77016476216E+02  0.83462850675E+02  0.13321666366E+03  0.00000000000E+00 0. -1.
        -14    1    6    6    0    0  0.15801556623E+02 -0.22200267006E+02  0.64202425801E+02  0.69745914043E+02  0.00000000000E+00 0.  1.
</event>
<event>
12    1  0.8226261E-002  0.1720048E+03  0.7818608E-02  0.1175788E+00
         21   -1    0    0  503  502  0.00000000000E+00  0.00000000000E+00  0.10592340623E+04  0.10592340623E+04  0.00000000000E+00 0.  1.
         21   -1    0    0  501  503 -0.00000000000E+00 -0.00000000000E+00 -0.43000047603E+02  0.43000047603E+02  0.00000000000E+00 0.  1.
          6    2    1    2  501    0 -0.48732521532E+01  0.52144204621E+01  0.18182280065E+03  0.25029017736E+03  0.17185663582E+03 0.  0.
         24    2    3    3    0    0  0.57344618894E+02 -0.25349239665E+02  0.12068041470E+03  0.15773920676E+03  0.79918118035E+02 0.  0.
         -6    2    1    2    0  502  0.48732521532E+01 -0.52144204621E+01  0.83441121408E+03  0.85194393258E+03  0.17180061499E+03 0.  0.
        -24    2    5    5    0    0 -0.56489429191E+02  0.25918945378E+02  0.48022644455E+03  0.49110656464E+03  0.81886338629E+02 0.  0.
          5    1    3    3  501    0 -0.62217871048E+02  0.30563660127E+02  0.61142385954E+02  0.92550970596E+02  0.47000000000E+01 0. -1.
        -13    1    4    4    0    0  0.14060215190E+02  0.15342536004E+02 -0.25204263712E+01  0.20962719560E+02  0.00000000000E+00 0.  1.
         14    1    4    4    0    0  0.43284403704E+02 -0.40691775669E+02  0.12320084107E+03  0.13677648720E+03  0.00000000000E+00 0. -1.
         -5    1    5    5    0  502  0.61362681344E+02 -0.31133365840E+02  0.35418476953E+03  0.36083736793E+03  0.47000000000E+01 0.  1.
         11    1    6    6    0    0 -0.72771012062E+02  0.37813231181E+02  0.40535419492E+03  0.41356678299E+03  0.00000000000E+00 0. -1.
        -12    1    6    6    0    0  0.16281582871E+02 -0.11894285803E+02  0.74872249624E+02  0.77539781657E+02  0.00000000000E+00 0.  1.
</event>
<event>
12    1  0.8226261E-002  0.1795332E+03  0.7818608E-02  0.1168486E+00
         21   -1    0    0  501  502  0.00000000000E+00  0.00000000000E+00  0.85000079878E+02  0.85000079878E+02  0.00000000000E+00 0.  1.
         21   -1    0    0  502  503 -0.00000000000E+00 -0.00000000000E+00 -0.47737671558E+03  0.47737671558E+03  0.00000000000E+00 0.  1.
         -6    2    1    2    0  503  0.34051810779E+02  0.31851035312E+02 -0.32458489871E+03  0.37047089840E+03  0.17239291117E+03 0.  0.
        -24    2    3    3    0    0 -0.29503851584E+02 -0.31537227337E+02 -0.20748437618E+03  0.22284970603E+03  0.68899572942E+02 0.  0.
          6    2    1    2  501    0 -0.34051810779E+02 -0.31851035312E+02 -0.67791736992E+02  0.19190589706E+03  0.17337283367E+03 0.  0.
         24    2    5    5    0    0  0.28084654409E+02 -0.61119346739E+02 -0.12712934758E+02  0.10373935683E+03  0.77948143574E+02 0.  0.
          5    1    5    5  501    0 -0.62136465189E+02  0.29268311427E+02 -0.55078802234E+02  0.88166540227E+02  0.47000000000E+01 0. -1.
        -13    1    6    6    0    0 -0.25347365352E+02 -0.57529591259E+01 -0.22974545442E+01  0.26093366329E+02  0.00000000000E+00 0.  1.
         14    1    6    6    0    0  0.53432019761E+02 -0.55366387614E+02 -0.10415480213E+02  0.77645990503E+02  0.00000000000E+00 0. -1.
         -5    1    3    3    0  503  0.63555662363E+02  0.63388262649E+02 -0.11710052253E+03  0.14762119237E+03  0.47000000000E+01 0.  1.
         11    1    4    4    0    0 -0.17704821226E+02  0.84338315008E+01 -0.12041623952E+02  0.23012842411E+02  0.00000000000E+00 0. -1.
        -12    1    4    4    0    0 -0.11799030358E+02 -0.39971058838E+02 -0.19544275223E+03  0.19983686362E+03  0.00000000000E+00 0.  1.
</event>
<event>
12    1  0.8226261E-002  0.1933449E+03  0.7818608E-02  0.1157320E+00
         21   -1    0    0  503  502  0.00000000000E+00  0.00000000000E+00  0.33431425681E+03  0.33431425681E+03  0.00000000000E+00 0. -1.
         21   -1    0    0  501  503 -0.00000000000E+00 -0.00000000000E+00 -0.35603598431E+03  0.35603598431E+03  0.00000000000E+00 0.  1.
          6    2    1    2  501    0  0.67559732171E+02  0.27581315059E+02 -0.29951053313E+03  0.35649515230E+03  0.17904521164E+03 0.  0.
         24    2    3    3    0    0  0.89045217665E+02 -0.24770532818E+02 -0.25945028832E+03  0.28700230895E+03  0.80704666221E+02 0.  0.
         -6    2    1    2    0  502 -0.67559732171E+02 -0.27581315059E+02  0.27778880563E+03  0.33385508881E+03  0.17019857063E+03 0.  0.
        -24    2    5    5    0    0  0.19220636553E+02  0.24371347399E+02  0.13296299091E+03  0.15714482273E+03  0.77794234457E+02 0.  0.
          5    1    3    3  501    0 -0.21485485494E+02  0.52351847877E+02 -0.40060244810E+02  0.69492843353E+02  0.47000000000E+01 0. -1.
        -11    1    4    4    0    0  0.39431157648E+02  0.14155973928E+02 -0.18380222129E+03  0.18851648294E+03  0.00000000000E+00 0.  1.
         12    1    4    4    0    0  0.49614060017E+02 -0.38926506746E+02 -0.75648067029E+02  0.98485826006E+02  0.00000000000E+00 0. -1.
         -5    1    5    5    0  502 -0.86780368724E+02 -0.51952662458E+02  0.14482581471E+03  0.17671026608E+03  0.47000000000E+01 0.  1.
         13    1    6    6    0    0  0.23366980922E+02  0.35852181094E+01  0.13385875248E+03  0.13593025860E+03  0.00000000000E+00 0. -1.
        -14    1    6    6    0    0 -0.41463443689E+01  0.20786129289E+02 -0.89576157129E+00  0.21214564130E+02  0.00000000000E+00 0.  1.
</event>
<event>
12    1  0.8226261E-002  0.2102908E+03  0.7818608E-02  0.1141608E+00
         21   -1    0    0  501  502  0.00000000000E+00  0.00000000000E+00  0.97165668274E+03  0.97165668274E+03  0.00000000000E+00 0. -1.
         21   -1    0    0  502  503 -0.00000000000E+00 -0.00000000000E+00 -0.10987339893E+03  0.10987339893E+03  0.00000000000E+00 0.  1.
         -6    2    1    2    0  503 -0.11990915431E+03  0.11633292433E+02  0.16640704581E+02  0.21094816790E+03  0.17236205415E+03 0.  0.
        -24    2    3    3    0    0 -0.30786405216E+02 -0.19994706039E+02  0.59434221709E+02  0.10704162431E+03  0.81104202161E+02 0.  0.
          6    2    1    2  501    0  0.11990915431E+03 -0.11633292433E+02  0.84514257922E+03  0.87058191377E+03  0.17068494538E+03 0.  0.
         24    2    5    5    0    0  0.52500714212E+02 -0.39942314506E+02  0.24379700076E+03  0.26478995833E+03  0.79530063337E+02 0.  0.
          5    1    5    5  501    0  0.67408440103E+02  0.28309022073E+02  0.60134557846E+03  0.60579195543E+03  0.47000000000E+01 0. -1.
        -13    1    6    6    0    0 -0.14818623307E+02 -0.89593280826E+01  0.11416258992E+03  0.11546842899E+03  0.00000000000E+00 0.  1.
         14    1    6    6    0    0  0.67319337519E+02 -0.30982986423E+02  0.12963441084E+03  0.14932152934E+03  0.00000000000E+00 0. -1.
         -5    1    3    3    0  503 -0.89122749099E+02  0.31627998473E+02 -0.42793517129E+02  0.10390654360E+03  0.47000000000E+01 0.  1.
         13    1    4    4    0    0  0.18330862451E+02  0.61616661055E+01  0.45847667527E+02  0.49759373640E+02  0.00000000000E+00 0. -1.
        -14    1    4    4    0    0 -0.49117267667E+02 -0.26156372145E+02  0.13586554182E+02  0.57282250666E+02  0.00000000000E+00 0.  1.
</event>
<event>
12    1  0.8226261E-002  0.1912270E+03  0.7818608E-02  0.1157486E+00
         21   -1    0    0  501  502  0.00000000000E+00  0.00000000000E+00  0.14844039213E+04  0.14844039213E+04  0.00000000000E+00 0.  1.
         21   -1    0    0  502  503 -0.00000000000E+00 -0.00000000000E+00 -0.56949416453E+02  0.56949416453E+02  0.00000000000E+00 0.  1.
         -6    2    1    2    0  503  0.63856479885E+02  0.53098654720E+02  0.13208434175E+03  0.23194446029E+03  0.17162413049E+03 0.  0.
        -24    2    3    3    0    0  0.29444776202E+02  0.23977486270E+02 -0.86825385424E+01  0.84060680276E+02  0.74490917564E+02 0.  0.
          6    2    1    2  501    0 -0.63856479885E+02 -0.53098654720E+02  0.12953701631E+04  0.13094088775E+04  0.17225165252E+03 0.  0.
         24    2    5    5    0    0 -0.85182337531E+02  0.99382022819E+01  0.59915699445E+03  0.61000677300E+03  0.75923386444E+02 0.  0.
          5    1    5    5  501    0  0.21325857646E+02 -0.63036857002E+02  0.69621316866E+03  0.69940210449E+03  0.47000000000E+01 0. -1.
        -13    1    6    6    0    0 -0.32312573676E+01  0.17642035753E+02  0.27423237442E+03  0.27481826291E+03  0.00000000000E+00 0.  1.
         14    1    6    6    0    0 -0.81951080163E+02 -0.77038334714E+01  0.32492462003E+03  0.33518851009E+03  0.00000000000E+00 0. -1.
         -5    1    3    3    0  503  0.34411703684E+02  0.29121168449E+02  0.14076688030E+03  0.14788378001E+03  0.47000000000E+01 0.  1.
         11    1    4    4    0    0 -0.12872444605E+02 -0.19219030517E+02 -0.29524203384E+01  0.23319257063E+02  0.00000000000E+00 0. -1.
        -12    1    4    4    0    0  0.42317220806E+02  0.43196516787E+02 -0.57301182040E+01  0.60741423213E+02  0.00000000000E+00 0.  1.
</event>
<event>
12    1  0.8226261E-002  0.2353134E+03  0.7818608E-02  0.1123227E+00
         21   -1    0    0  503  502  0.00000000000E+00  0.00000000000E+00  0.22412270148E+03  0.22412270148E+03  0.00000000000E+00 0. -1.
         21   -1    0    0  501  503 -0.00000000000E+00 -0.00000000000E+00 -0.26489678938E+03  0.26489678938E+03  0.00000000000E+00 0.  1.
          6    2    1    2  501    0  0.11768358729E+03  0.10333301664E+03  0.45881638436E+02  0.23974470719E+03  0.17562818918E+03 0.  0.
         24    2    3    3    0    0  0.10741939581E+03  0.57196441477E+02  0.92708595759E+02  0.17304544838E+03  0.80867075889E+02 0.  0.
         -6    2    1    2    0  502 -0.11768358729E+03 -0.10333301664E+03 -0.86655726337E+02  0.24927478366E+03  0.17349802252E+03 0.  0.
        -24    2    5    5    0    0 -0.11090578736E+03 -0.58459875223E+01 -0.46111699070E+02  0.14337120693E+03  0.78068847469E+02 0.  0.
          5    1    3    3  501    0  0.10264191486E+02  0.46136575160E+02 -0.46826957323E+02  0.66699258815E+02  0.47000000000E+01 0. -1.
        -11    1    4    4    0    0  0.11892137542E+02  0.48275543748E+02  0.38202578189E+02  0.62700781811E+02  0.00000000000E+00 0.  1.
         12    1    4    4    0    0  0.95527258264E+02  0.89208977295E+01  0.54506017570E+02  0.11034466656E+03  0.00000000000E+00 0. -1.
         -5    1    5    5    0  502 -0.67777999316E+01 -0.97487029115E+02 -0.40544027267E+02  0.10590357673E+03  0.47000000000E+01 0.  1.
         11    1    6    6    0    0 -0.66424286028E+02  0.31420939735E+02 -0.43264647653E+02  0.85271865024E+02  0.00000000000E+00 0. -1.
        -12    1    6    6    0    0 -0.44481501333E+02 -0.37266927258E+02 -0.28470514174E+01  0.58099341905E+02  0.00000000000E+00 0.  1.
</event>
<event>
12    1  0.8226261E-002  0.2731419E+03  0.7818608E-02  0.1099654E+00
         21   -1    0    0  503  502  0.00000000000E+00  0.00000000000E+00  0.74794748851E+03  0.74794748851E+03  0.00000000000E+00 0. -1.
         21   -1    0    0  501  503 -0.00000000000E+00 -0.00000000000E+00 -0.10024520096E+03  0.10024520096E+03  0.00000000000E+00 0.  1.
          6    2    1    2  501    0 -0.20970599649E+03  0.25495827596E+02  0.28415224454E+03  0.39414338277E+03  0.17314694891E+03 0.  0.
         24    2    3    3    0    0 -0.13056702531E+03 -0.31077417555E+02  0.24422560547E+03  0.28888306103E+03  0.76116506746E+02 0.  0.
         -6    2    1    2    0  502  0.20970599649E+03 -0.25495827596E+02  0.36355004301E+03  0.45404930670E+03  0.17136363953E+03 0.  0.
        -24    2    5    5    0    0  0.18707433973E+03 -0.74400555863E+02  0.27601653267E+03  0.35115095994E+03  0.81176468610E+02 0.  0.
          5    1    3    3  501    0 -0.79138971180E+02  0.56573245150E+02  0.39926639064E+02  0.10526032174E+03  0.47000000000E+01 0. -1.
        -11    1    4    4    0    0 -0.54341723329E+02 -0.38527785198E+02  0.61119329278E+02  0.90404565913E+02  0.00000000000E+00 0.  1.
         12    1    4    4    0    0 -0.76225301977E+02  0.74503676432E+01  0.18310627620E+03  0.19847849511E+03  0.00000000000E+00 0. -1.
         -5    1    5    5    0  502  0.22631656754E+02  0.48904728267E+02  0.87533510335E+02  0.10289834676E+03  0.47000000000E+01 0.  1.
         11    1    6    6    0    0  0.44500976677E+02 -0.11265430851E+02  0.12868977714E+03  0.13663200796E+03  0.00000000000E+00 0. -1.
        -12    1    6    6    0    0  0.14257336305E+03 -0.63135125013E+02  0.14732675553E+03  0.21451895198E+03  0.00000000000E+00 0.  1.
</event>
<event>
12    1  0.8226261E-002  0.2297865E+03  0.7818608E-02  0.1127259E+00
         21   -1    0    0  503  502  0.00000000000E+00  0.00000000000E+00  0.49736988163E+02  0.49736988163E+02  0.00000000000E+00 0. -1.
         21   -1    0    0  501  503 -0.00000000000E+00 -0.00000000000E+00 -0.11908142816E+04  0.11908142816E+04  0.00000000000E+00 0.  1.
          6    2    1    2  501    0 -0.13614956916E+03 -0.61216807802E+02 -0.78134273446E+03  0.81368972604E+03  0.17120250823E+03 0.  0.
         24    2    3    3    0    0 -0.94897898937E+02  0.24998689197E+02 -0.34973327311E+03  0.37159965676E+03  0.78373445154E+02 0.  0.
         -6    2    1    2    0  502  0.13614956916E+03  0.61216807802E+02 -0.35973455901E+03  0.42686154376E+03  0.17469293590E+03 0.  0.
        -24    2    5    5    0    0  0.43200524683E+02 -0.25377165698E+02 -0.20391747756E+03  0.22576680492E+03  0.82933869314E+02 0.  0.
          5    1    3    3  501    0 -0.41251670226E+02 -0.86215496999E+02 -0.43160946136E+03  0.44209006927E+03  0.47000000000E+01 0. -1.
        -13    1    4    4    0    0 -0.72807612790E+02  0.73313388441E+01 -0.32762771897E+03  0.33570019250E+03  0.00000000000E+00 0.  1.
         14    1    4    4    0    0 -0.22090286147E+02  0.17667350353E+02 -0.22105554137E+02  0.35899464261E+02  0.00000000000E+00 0. -1.
         -5    1    5    5    0  502  0.92949044481E+02  0.86593973500E+02 -0.15581708146E+03  0.20109473884E+03  0.47000000000E+01 0.  1.
         13    1    6    6    0    0  0.61489930112E+02 -0.33666046977E+02 -0.18630290852E+03  0.19905574081E+03  0.00000000000E+00 0. -1.
        -14    1    6    6    0    0 -0.18289405430E+02  0.82888812786E+01 -0.17614569032E+02  0.26711064112E+02  0.00000000000E+00 0.  1.
</event>
<event>
12    1  0.8226261E-002  0.1948811E+03  0.7818608E-02  0.1154296E+00
         21   -1    0    0  503  502  0.00000000000E+00  0.00000000000E+00  0.79238079496E+03  0.79238079496E+03  0.00000000000E+00 0. -1.
         21   -1    0    0  501  503 -0.00000000000E+00 -0.00000000000E+00 -0.47744636972E+02  0.47744636972E+02  0.00000000000E+00 0.  1.
          6    2    1    2  501    0  0.68360867048E+01 -0.89120074634E+02  0.37236113940E+03  0.41992626492E+03  0.17232565117E+03 0.  0.
         24    2    3    3    0    0 -0.45627148079E+02 -0.61650880364E+02  0.32741748115E+03  0.34543485565E+03  0.78995979936E+02 0.  0.
         -6    2    1    2    0  502 -0.68360867048E+01  0.89120074634E+02  0.37227501859E+03  0.42019916702E+03  0.17317485588E+03 0.  0.
        -24    2    5    5    0    0 -0.49134552688E+02  0.19264350635E+02  0.28500223212E+03  0.30058473787E+03  0.79621560255E+02 0.  0.
          5    1    3    3  501    0  0.52463234784E+02 -0.27469194270E+02  0.44943658250E+02  0.74491409268E+02  0.47000000000E+01 0. -1.
        -13    1    4    4    0    0  0.94550372850E+01  0.29011889201E+01  0.33513675569E+01  0.10442523245E+02  0.00000000000E+00 0.  1.
         14    1    4    4    0    0 -0.55082185364E+02 -0.64552069284E+02  0.32406611359E+03  0.33499233241E+03  0.00000000000E+00 0. -1.
         -5    1    5    5    0  502  0.42298465983E+02  0.69855723999E+02  0.87272786476E+02  0.11961442914E+03  0.47000000000E+01 0.  1.
         13    1    6    6    0    0 -0.53867484846E+02 -0.59582532278E+01  0.99381878421E+02  0.11319878296E+03  0.00000000000E+00 0. -1.
        -14    1    6    6    0    0  0.47329321584E+01  0.25222603863E+02  0.18562035370E+03  0.18738595491E+03  0.00000000000E+00 0.  1.
</event>
<event>
12    1  0.8226261E-002  0.1910834E+03  0.7818608E-02  0.1158126E+00
         21   -1    0    0  503  502  0.00000000000E+00  0.00000000000E+00  0.10663167850E+03  0.10663167850E+03  0.00000000000E+00 0.  1.
         21   -1    0    0  501  503 -0.00000000000E+00 -0.00000000000E+00 -0.33737057779E+03  0.33737057779E+03  0.00000000000E+00 0.  1.
          6    2    1    2  501    0 -0.77079595997E+02 -0.31308995908E+01 -0.11590495452E+03  0.22348784805E+03  0.17481931556E+03 0.  0.
         24    2    3    3    0    0 -0.44576655772E+02 -0.48749145625E+01 -0.14934427517E+03  0.17658623959E+03  0.82874268948E+02 0.  0.
         -6    2    1    2    0  502  0.77079595997E+02  0.31308995908E+01 -0.11483394477E+03  0.22051440823E+03  0.17172274956E+03 0.  0.
        -24    2    5    5    0    0  0.10514474398E+03 -0.26818006432E+00 -0.13275048167E+03  0.18671650049E+03  0.78643957577E+02 0.  0.
          5    1    3    3  501    0 -0.32502940225E+02  0.17440149717E+01  0.33439320648E+02  0.46901608468E+02  0.47000000000E+01 0. -1.
        -13    1    4    4    0    0 -0.47007454118E+02 -0.38062255421E+02 -0.87720376250E+02  0.10655186737E+03  0.00000000000E+00 0.  1.
         14    1    4    4    0    0  0.24307983461E+01  0.33187340859E+02 -0.61623898919E+02  0.70034372217E+02  0.00000000000E+00 0. -1.
         -5    1    5    5    0  502 -0.28065147979E+02  0.33990796551E+01  0.17916536901E+02  0.33797907748E+02  0.47000000000E+01 0.  1.
         13    1    6    6    0    0  0.92326716867E+02 -0.16006594844E+02 -0.13699848740E+03  0.16597897239E+03  0.00000000000E+00 0. -1.
        -14    1    6    6    0    0  0.12818027109E+02  0.15738414779E+02  0.42480057309E+01  0.20737528093E+02  0.00000000000E+00 0.  1.
</event>
<event>
12    1  0.8226261E-002  0.1967566E+03  0.7818608E-02  0.1152603E+00
         21   -1    0    0  501  502  0.00000000000E+00  0.00000000000E+00  0.10427462456E+04  0.10427462456E+04  0.00000000000E+00 0. -1.
         21   -1    0    0  502  503 -0.00000000000E+00 -0.00000000000E+00 -0.40276588302E+02  0.40276588302E+02  0.00000000000E+00 0. -1.
         -6    2    1    2    0  503  0.46121246196E+01  0.96359468450E+02  0.65526913131E+03  0.68417162518E+03  0.17148399168E+03 0.  0.
        -24    2    3    3    0    0  0.21840463040E+02  0.28798966743E+01  0.46300776076E+03  0.46964477234E+03  0.75529636776E+02 0.  0.
          6    2    1    2  501    0 -0.46121246196E+01 -0.96359468450E+02  0.34720052601E+03  0.39885120874E+03  0.17096099731E+03 0.  0.
         24    2    5    5    0    0 -0.18233823980E+02 -0.96122221847E+02  0.35853267690E+03  0.38051777962E+03  0.81707688358E+02 0.  0.
          5    1    5    5  501    0  0.13621699361E+02 -0.23724660309E+00 -0.11332150890E+02  0.18333429118E+02  0.47000000000E+01 0. -1.
        -11    1    6    6    0    0 -0.15375953719E+02  0.79605132392E+00  0.14720739081E+03  0.14801036977E+03  0.00000000000E+00 0.  1.
         12    1    6    6    0    0 -0.28578702617E+01 -0.96918273171E+02  0.21132528609E+03  0.23250740986E+03  0.00000000000E+00 0. -1.
         -5    1    3    3    0  503 -0.17228338421E+02  0.93479571776E+02  0.19226137055E+03  0.21452685284E+03  0.47000000000E+01 0.  1.
         13    1    4    4    0    0  0.73703290574E+01  0.38677803826E+02  0.26478049322E+03  0.26769199437E+03  0.00000000000E+00 0. -1.
        -14    1    4    4    0    0  0.14470133983E+02 -0.35797907152E+02  0.19822726754E+03  0.20195277797E+03  0.00000000000E+00 0.  1.
</event>
<event>
12    1  0.8226261E-002  0.1872842E+03  0.7818608E-02  0.1161055E+00
         21   -1    0    0  501  502  0.00000000000E+00  0.00000000000E+00  0.17743236474E+03  0.17743236474E+03  0.00000000000E+00 0. -1.
         21   -1    0    0  502  503 -0.00000000000E+00 -0.00000000000E+00 -0.35633098124E+03  0.35633098124E+03  0.00000000000E+00 0. -1.
         -6    2    1    2    0  503  0.32201869392E+02  0.66537744156E+02 -0.26776942269E+03  0.32646306086E+03  0.17150345359E+03 0.  0.
        -24    2    3    3    0    0  0.26466846539E+02  0.11128251097E+03 -0.22661768762E+03  0.26522140883E+03  0.76827912556E+02 0.  0.
          6    2    1    2  501    0 -0.32201869392E+02 -0.66537744156E+02  0.88870806184E+02  0.20730028511E+03  0.17207892441E+03 0.  0.
         24    2    5    5    0    0 -0.78718895434E+02 -0.45390118379E+02  0.18460289230E+02  0.12017516425E+03  0.76448417116E+02 0.  0.
          5    1    5    5  501    0  0.46517026042E+02 -0.21147625776E+02  0.70410516954E+02  0.87125120863E+02  0.47000000000E+01 0. -1.
        -11    1    6    6    0    0 -0.76967003197E+02 -0.45450580909E+01  0.18512863884E+02  0.79292517071E+02  0.00000000000E+00 0.  1.
         12    1    6    6    0    0 -0.17518922363E+01 -0.40845060289E+02 -0.52574654105E-01  0.40882647180E+02  0.00000000000E+00 0. -1.
         -5    1    3    3    0  503  0.57350228534E+01 -0.44744766815E+02 -0.41151735068E+02  0.61241652032E+02  0.47000000000E+01 0.  1.
         11    1    4    4    0    0  0.52115034293E+02  0.85169843611E+02 -0.18121138127E+03  0.20689959826E+03  0.00000000000E+00 0. -1.
        -12    1    4    4    0    0 -0.25648187755E+02  0.26112667359E+02 -0.45406306351E+02  0.58321810570E+02  0.00000000000E+00 0.  1.
</event>
<event>
12    1  0.8226261E-002  0.2504250E+03  0.7818608E-02  0.1113291E+00
         21   -1    0    0  501  502  0.00000000000E+00  0.00000000000E+00  0.51274522580E+03  0.51274522580E+03  0.00000000000E+00 0.  1.
         21   -1    0    0  502  503 -0.00000000000E+00 -0.00000000000E+00 -0.23169891481E+03  0.23169891481E+03  0.00000000000E+00 0.  1.
         -6    2    1    2    0  503  0.16630494267E+03  0.73282787800E+02 -0.11638828088E+03  0.27469215193E+03  0.16994659592E+03 0.  0.
        -24    2    3    3    0    0  0.18815109774E+03  0.78050788236E+02 -0.12385491761E+03  0.25065407831E+03  0.77425223503E+02 0.  0.
          6    2    1    2  501    0 -0.16630494267E+03 -0.73282787800E+02  0.39743459187E+03  0.46975198868E+03  0.17229328226E+03 0.  0.
         24    2    5    5    0    0 -0.65295544810E+02 -0.10067035972E+03  0.19498849687E+03  0.24180574737E+03  0.77791233741E+02 0.  0.
          5    1    5    5  501    0 -0.10100939786E+03  0.27387571924E+02  0.20244609499E+03  0.22794624132E+03  0.47000000000E+01 0. -1.
        -13    1    6    6    0    0 -0.31047838809E+02 -0.68311513599E+00  0.79008108231E+02  0.84892379559E+02  0.00000000000E+00 0.  1.
         14    1    6    6    0    0 -0.34247706001E+02 -0.99987244588E+02  0.11598038864E+03  0.15691336781E+03  0.00000000000E+00 0. -1.
         -5    1    3    3    0  503 -0.21846155065E+02 -0.47680004357E+01  0.74666367353E+01  0.24038073621E+02  0.47000000000E+01 0.  1.
         11    1    4    4    0    0  0.12475536130E+03  0.88374474956E+02 -0.77228609892E+02  0.17128399278E+03  0.00000000000E+00 0. -1.
        -12    1    4    4    0    0  0.63395736434E+02 -0.10323686721E+02 -0.46626307720E+02  0.79370085531E+02  0.00000000000E+00 0.  1.
</event>
<event>
12    1  0.8226261E-002  0.1843340E+03  0.7818608E-02  0.1163805E+00
         21   -1    0    0  501  502  0.00000000000E+00  0.00000000000E+00  0.10120679008E+03  0.10120679008E+03  0.00000000000E+00 0.  1.
         21   -1    0    0  502  503 -0.00000000000E+00 -0.00000000000E+00 -0.76703516255E+03  0.76703516255E+03  0.00000000000E+00 0.  1.
         -6    2    1    2    0  503 -0.18733115095E+02  0.64484648548E+02 -0.65904861500E+03  0.68434210062E+03  0.17166780200E+03 0.  0.
        -24    2    3    3    0    0  0.16400429987E+02 -0.24098609453E+02 -0.25845016801E+03  0.27253806310E+03  0.81429659278E+02 0.  0.
          6    2    1    2  501    0  0.18733115095E+02 -0.64484648548E+02 -0.67797574696E+01  0.18389985201E+03  0.17106721181E+03 0.  0.
         24    2    5    5    0    0  0.36241223438E+02  0.10078886325E+02 -0.52393165414E+02  0.94631002037E+02  0.69245740220E+02 0.  0.
          5    1    5    5  501    0 -0.17508108343E+02 -0.74563534874E+02  0.45613407944E+02  0.89268849970E+02  0.47000000000E+01 0. -1.
        -13    1    6    6    0    0  0.53301804733E+02 -0.78088326897E+01 -0.32627006006E+02  0.62980804827E+02  0.00000000000E+00 0.  1.
         14    1    6    6    0    0 -0.17060581295E+02  0.17887719015E+02 -0.19766159408E+02  0.31650197210E+02  0.00000000000E+00 0. -1.
         -5    1    3    3    0  503 -0.35133545082E+02  0.88583258002E+02 -0.40059844699E+03  0.41180403752E+03  0.47000000000E+01 0.  1.
         13    1    4    4    0    0 -0.30019543792E+02 -0.25561289078E+02 -0.13504035713E+03  0.14067853626E+03  0.00000000000E+00 0. -1.
        -14    1    4    4    0    0  0.46419973780E+02  0.14626796251E+01 -0.12340981088E+03  0.13185952684E+03  0.00000000000E+00 0.  1.
</event>
<event>
12    1  0.8226261E-002  0.3551481E+03  0.7818608E-02  0.1060820E+00
         21   -1    0    0  501  502  0.00000000000E+00  0.00000000000E+00  0.20734702967E+04  0.20734702967E+04  0.00000000000E+00 0. -1.
         21   -1    0    0  502  503 -0.00000000000E+00 -0.00000000000E+00 -0.61464088044E+02  0.61464088044E+02  0.00000000000E+00 0.  1.
         -6    2    1    2    0  503 -0.80183004728E+02  0.29609881203E+03  0.86485122958E+03  0.93493199046E+03  0.17895909239E+03 0.  0.
        -24    2    3    3    0    0 -0.82583539668E+02  0.14276577681E+03  0.61721439724E+03  0.64361966153E+03  0.78041966239E+02 0.  0.
          6    2    1    2  501    0  0.80183004728E+02 -0.29609881203E+03  0.11471549791E+04  0.12000023943E+04  0.17302421661E+03 0.  0.
         24    2    5    5    0    0  0.13481387371E+02 -0.12255003318E+03  0.31291092760E+03  0.34527816283E+03  0.78124917168E+02 0.  0.
          5    1    5    5  501    0  0.66701617357E+02 -0.17354877885E+03  0.83424405150E+03  0.85472423147E+03  0.47000000000E+01 0. -1.
        -13    1    6    6    0    0 -0.19640982353E+02 -0.10533386997E+03  0.25206784380E+03  0.27389631292E+03  0.00000000000E+00 0.  1.
         14    1    6    6    0    0  0.33122369724E+02 -0.17216163207E+02  0.60843083794E+02  0.71381849915E+02  0.00000000000E+00 0. -1.
         -5    1    3    3    0  503  0.24005349399E+01  0.15333303522E+03  0.24763683234E+03  0.29131232893E+03  0.47000000000E+01 0.  1.
         13    1    4    4    0    0 -0.46210260515E+02  0.13512206409E+03  0.44164089209E+03  0.46415518735E+03  0.00000000000E+00 0. -1.
        -14    1    4    4    0    0 -0.36373279153E+02  0.76437127189E+01  0.17557350515E+03  0.17946447418E+03  0.00000000000E+00 0.  1.
</event>
<event>
12    1  0.8226261E-002  0.1897460E+03  0.7818608E-02  0.1158857E+00
         21   -1    0    0  503  502  0.00000000000E+00  0.00000000000E+00  0.10646126403E+03  0.10646126403E+03  0.00000000000E+00 0. -1.
         21   -1    0    0  501  503 -0.00000000000E+00 -0.00000000000E+00 -0.44567228528E+03  0.44567228528E+03  0.00000000000E+00 0.  1.
          6    2    1    2  501    0 -0.78320469600E+02  0.11645933706E+02 -0.30625503442E+03  0.36027170877E+03  0.17243501471E+03 0.  0.
         24    2    3    3    0    0 -0.12120326765E+03  0.75849681379E+01 -0.22597011567E+03  0.26904022304E+03  0.81070244884E+02 0.  0.
         -6    2    1    2    0  502  0.78320469600E+02 -0.11645933706E+02 -0.32955986830E+02  0.19186184054E+03  0.17162501291E+03 0.  0.
        -24    2    5    5    0    0  0.95688646171E+02 -0.71159402916E+01  0.28371553810E+02  0.12778897859E+03  0.79486630138E+02 0.  0.
          5    1    3    3  501    0  0.42882798048E+02  0.40609655686E+01 -0.80284918750E+02  0.91231485730E+02  0.47000000000E+01 0. -1.
        -13    1    4    4    0    0 -0.75591394392E+02 -0.99674554304E+01 -0.19925030709E+03  0.21334032424E+03  0.00000000000E+00 0.  1.
         14    1    4    4    0    0 -0.45611873256E+02  0.17552423568E+02 -0.26719808585E+02  0.55699898796E+02  0.00000000000E+00 0. -1.
         -5    1    5    5    0  502 -0.17368176572E+02 -0.45299934149E+01 -0.61327540640E+02  0.64072861952E+02  0.47000000000E+01 0.  1.
         13    1    6    6    0    0 -0.83969364867E+01 -0.12927318406E+02  0.16959820219E+02  0.22918542829E+02  0.00000000000E+00 0. -1.
        -14    1    6    6    0    0  0.10408558266E+03  0.58113781144E+01  0.11411733591E+02  0.10487043576E+03  0.00000000000E+00 0.  1.
</event>
<event>
12    1  0.8226261E-002  0.1740989E+03  0.7818608E-02  0.1173646E+00
         21   -1    0    0  503  502  0.00000000000E+00  0.00000000000E+00  0.10843565439E+04  0.10843565439E+04  0.00000000000E+00 0.  1.
         21   -1    0    0  501  503 -0.00000000000E+00 -0.00000000000E+00 -0.46513879297E+02  0.46513879297E+02  0.00000000000E+00 0.  1.
          6    2    1    2  501    0  0.20900596352E+02  0.23710076400E+02  0.16166837299E+03  0.23756654072E+03  0.17117884155E+03 0.  0.
         24    2    3    3    0    0  0.42077126275E+02  0.16937824920E+02  0.19740634184E+02  0.93831082839E+02  0.79732082627E+02 0.  0.
         -6    2    1    2    0  502 -0.20900596352E+02 -0.23710076400E+02  0.87617429164E+03  0.89330388251E+03  0.17120582500E+03 0.  0.
        -24    2    5    5    0    0  0.27312792282E+02  0.17671831252E+02  0.71194427615E+03  0.71714889077E+03  0.79872379138E+02 0.  0.
          5    1    3    3  501    0 -0.21176529923E+02  0.67722514799E+01  0.14192773881E+03  0.14373545788E+03  0.47000000000E+01 0. -1.
        -13    1    4    4    0    0  0.67503879828E+01  0.19900260342E+02  0.45427506217E+02  0.50052436710E+02  0.00000000000E+00 0.  1.
         14    1    4    4    0    0  0.35326738292E+02 -0.29624354215E+01 -0.25686872033E+02  0.43778646128E+02  0.00000000000E+00 0. -1.
         -5    1    5    5    0  502 -0.48213388634E+02 -0.41381907652E+02  0.16423001549E+03  0.17615499173E+03  0.47000000000E+01 0.  1.
         11    1    6    6    0    0  0.22959574057E+01 -0.10224545412E+01 -0.15621994790E+01  0.29592737133E+01  0.00000000000E+00 0. -1.
        -12    1    6    6    0    0  0.25016834877E+02  0.18694285794E+02  0.71350647563E+03  0.71418961706E+03  0.00000000000E+00 0.  1.
</event>
<event>
12    1  0.8226261E-002  0.1951195E+03  0.7818608E-02  0.1154104E+00
         21   -1    0    0  503  502  0.00000000000E+00  0.00000000000E+00  0.23213884068E+04  0.23213884068E+04  0.00000000000E+00 0. -1.
         21   -1    0    0  501  503 -0.00000000000E+00 -0.00000000000E+00 -0.39567883091E+02  0.39567883091E+02  0.00000000000E+00 0. -1.
          6    2    1    2  501    0 -0.18761566517E+02  0.87773573389E+02  0.23526329302E+03  0.30511871678E+03  0.17231487957E+03 0.  0.
         24    2    3    3    0    0  0.35024380885E+02 -0.19107881045E+01  0.11045307444E+03  0.14222030212E+03  0.82440125642E+02 0.  0.
         -6    2    1    2    0  502  0.18761566517E+02 -0.87773573389E+02  0.20465572307E+04  0.20558375731E+04  0.17324962332E+03 0.  0.
        -24    2    5    5    0    0 -0.36899914518E+02 -0.45105638971E+02  0.12416872356E+04  0.12479040659E+04  0.10991471357E+03 0.  0.
          5    1    3    3  501    0 -0.53785947402E+02  0.89684361493E+02  0.12481021858E+03  0.16289841466E+03  0.47000000000E+01 0. -1.
        -11    1    4    4    0    0  0.25189150853E+02  0.37214969890E+02  0.36159302908E+02  0.57679654051E+02  0.00000000000E+00 0.  1.
         12    1    4    4    0    0  0.98352300317E+01 -0.39125757995E+02  0.74293771530E+02  0.84540648073E+02  0.00000000000E+00 0. -1.
         -5    1    5    5    0  502  0.55661481035E+02 -0.42667934418E+02  0.80486999514E+03  0.80793350728E+03  0.47000000000E+01 0.  1.
         13    1    6    6    0    0  0.30033726789E+02 -0.73460401635E+01  0.13258150499E+03  0.13613906315E+03  0.00000000000E+00 0. -1.
        -14    1    6    6    0    0 -0.66933641307E+02 -0.37759598807E+02  0.11091057306E+04  0.11117650027E+04  0.00000000000E+00 0.  1.
</event>
<event>
12    1  0.8226261E-002  0.2062219E+03  0.7818608E-02  0.1144905E+00
         21   -1    0    0  501  502  0.00000000000E+00  0.00000000000E+00  0.12579184915E+04  0.12579184915E+04  0.00000000000E+00 0.  1.
         21   -1    0    0  502  503 -0.00000000000E+00 -0.00000000000E+00 -0.33897039998E+02  0.33897039998E+02  0.00000000000E+00 0.  1.
         -6    2    1    2    0  503 -0.99626697578E+02  0.48476964924E+02  0.67897830789E+03  0.70960484326E+03  0.17393100927E+03 0.  0.
        -24    2    3    3    0    0 -0.35566944350E+02 -0.27761717187E+02  0.19516648440E+03  0.21562917666E+03  0.79813938156E+02 0.  0.
          6    2    1    2  501    0  0.99626697578E+02 -0.48476964924E+02  0.54504314360E+03  0.58221068823E+03  0.17210973857E+03 0.  0.
         24    2    5    5    0    0  0.95580385301E+02 -0.39302742927E+02  0.21464159787E+03  0.25162361889E+03  0.81013050766E+02 0.  0.
          5    1    5    5  501    0  0.40463122766E+01 -0.91742219970E+01  0.33040154573E+03  0.33058706934E+03  0.47000000000E+01 0. -1.
        -11    1    6    6    0    0  0.38201613460E+02 -0.13545974971E+02  0.16931246370E+03  0.17409643039E+03  0.00000000000E+00 0.  1.
         12    1    6    6    0    0  0.57378771842E+02 -0.25756767955E+02  0.45329134165E+02  0.77527188507E+02  0.00000000000E+00 0. -1.
         -5    1    3    3    0  503 -0.64059753228E+02  0.76238682111E+02  0.48381182350E+03  0.49397566659E+03  0.47000000000E+01 0.  1.
         13    1    4    4    0    0 -0.41680790392E+02 -0.13815548394E+02  0.39022582105E+02  0.58744528080E+02  0.00000000000E+00 0. -1.
        -14    1    4    4    0    0  0.61138460424E+01 -0.13946168794E+02  0.15614390229E+03  0.15688464858E+03  0.00000000000E+00 0.  1.
</event>
<event>
12    1  0.8226261E-002  0.2157462E+03  0.7818608E-02  0.1137206E+00
         21   -1    0    0  503  502  0.00000000000E+00  0.00000000000E+00  0.10964417603E+03  0.10964417603E+03  0.00000000000E+00 0.  1.
         21   -1    0    0  501  503 -0.00000000000E+00 -0.00000000000E+00 -0.43936404322E+03  0.43936404322E+03  0.00000000000E+00 0.  1.
          6    2    1    2  501    0  0.12193007042E+03 -0.46344351121E+02 -0.21700750972E+03  0.30559400976E+03  0.17111603832E+03 0.  0.
         24    2    3    3    0    0 -0.16756052937E+01 -0.29011025503E+00 -0.10900811071E+03  0.13504983261E+03  0.79704436965E+02 0.  0.
         -6    2    1    2    0  502 -0.12193007042E+03  0.46344351121E+02 -0.11271235748E+03  0.24341420949E+03  0.17184778410E+03 0.  0.
        -24    2    5    5    0    0 -0.46067934940E+02  0.47838581126E+02 -0.12778714831E+03  0.16591172151E+03  0.82379363846E+02 0.  0.
          5    1    3    3  501    0  0.12360567572E+03 -0.46054240866E+02 -0.10799939901E+03  0.17054417714E+03  0.47000000000E+01 0. -1.
        -13    1    4    4    0    0 -0.19073156738E+02 -0.30361107136E+02 -0.86547373590E+02  0.93680467600E+02  0.00000000000E+00 0.  1.
         14    1    4    4    0    0  0.17397551445E+02  0.30070996881E+02 -0.22460737115E+02  0.41369365011E+02  0.00000000000E+00 0. -1.
         -5    1    5    5    0  502 -0.75862135482E+02 -0.14942300043E+01  0.15074790838E+02  0.77502487973E+02  0.47000000000E+01 0.  1.
         13    1    6    6    0    0 -0.61788633883E+02  0.14819948724E+02 -0.10528511111E+03  0.12297325229E+03  0.00000000000E+00 0. -1.
        -14    1    6    6    0    0  0.15720698944E+02  0.33018632402E+02 -0.22502037206E+02  0.42938469225E+02  0.00000000000E+00 0.  1.
</event>
<event>
12    1  0.8226261E-002  0.1841352E+03  0.7818608E-02  0.1164618E+00
         21   -1    0    0  503  502  0.00000000000E+00  0.00000000000E+00  0.17301901890E+04  0.17301901890E+04  0.00000000000E+00 0. -1.
         21   -1    0    0  501  503 -0.00000000000E+00 -0.00000000000E+00 -0.22819954943E+02  0.22819954943E+02  0.00000000000E+00 0. -1.
          6    2    1    2  501    0  0.44800824659E+02  0.33876485500E+02  0.50108451654E+03  0.53275156174E+03  0.17199942925E+03 0.  0.
         24    2    3    3    0    0 -0.18629470066E+02  0.67824645674E+02  0.26973011082E+03  0.29042362089E+03  0.81512619732E+02 0.  0.
         -6    2    1    2    0  502 -0.44800824659E+02 -0.33876485500E+02  0.12062857175E+04  0.12202585822E+04  0.17535975876E+03 0.  0.
        -24    2    5    5    0    0 -0.17951986582E+02  0.24548849409E+02  0.10018359358E+04  0.10058846493E+04  0.84874999835E+02 0.  0.
          5    1    3    3  501    0  0.63430294725E+02 -0.33948160174E+02  0.23135440572E+03  0.24232794085E+03  0.47000000000E+01 0. -1.
        -11    1    4    4    0    0  0.42520837884E+01 -0.99039174226E+01  0.11731813411E+03  0.11781219117E+03  0.00000000000E+00 0.  1.
         12    1    4    4    0    0 -0.22881553854E+02  0.77728563096E+02  0.15241197671E+03  0.17261142972E+03  0.00000000000E+00 0. -1.
         -5    1    5    5    0  502 -0.26848838077E+02 -0.58425334909E+02  0.20444978168E+03  0.21437393287E+03  0.47000000000E+01 0.  1.
         11    1    6    6    0    0 -0.27476567923E+02  0.51426026497E+02  0.78828143296E+03  0.79043482687E+03  0.00000000000E+00 0. -1.
        -12    1    6    6    0    0  0.95245813410E+01 -0.26877177087E+02  0.21355450287E+03  0.21544982245E+03  0.00000000000E+00 0.  1.
</event>
<event>
12    1  0.8226261E-002  0.2551492E+03  0.7818608E-02  0.1110428E+00
         21   -1    0    0  503  502  0.00000000000E+00  0.00000000000E+00  0.72359200639E+03  0.72359200639E+03  0.00000000000E+00 0. -1.
         21   -1    0    0  501  503 -0.00000000000E+00 -0.00000000000E+00 -0.10824917095E+03  0.10824917095E+03  0.00000000000E+00 0.  1.
          6    2    1    2  501    0  0.61562258323E+02 -0.17542540508E+03  0.13431046826E+03  0.28834077235E+03  0.17474871878E+03 0.  0.
         24    2    3    3    0    0  0.96175752354E+02 -0.15935409869E+03  0.14287520498E+03  0.24894755500E+03  0.83174856967E+02 0.  0.
         -6    2    1    2    0  502 -0.61562258323E+02  0.17542540508E+03  0.48103236718E+03  0.54350040499E+03  0.17157088203E+03 0.  0.
        -24    2    5    5    0    0 -0.24255929680E+02  0.13690808692E+03  0.19394175942E+03  0.25140717841E+03  0.79120091755E+02 0.  0.
          5    1    3    3  501    0 -0.34613494031E+02 -0.16071306383E+02 -0.85647367152E+01  0.39393217346E+02  0.47000000000E+01 0. -1.
        -13    1    4    4    0    0 -0.12469917064E+02 -0.23113483754E+02  0.49808317490E+01  0.26730893134E+02  0.00000000000E+00 0.  1.
         14    1    4    4    0    0  0.10864566942E+03 -0.13624061494E+03  0.13789437323E+03  0.22221666187E+03  0.00000000000E+00 0. -1.
         -5    1    5    5    0  502 -0.37306328643E+02  0.38517318158E+02  0.28709060776E+03  0.29209322659E+03  0.47000000000E+01 0.  1.
         13    1    6    6    0    0 -0.52117661758E+02  0.69892870929E+02  0.11228713093E+03  0.14216069726E+03  0.00000000000E+00 0. -1.
        -14    1    6    6    0    0  0.27861732078E+02  0.67015215989E+02  0.81654628491E+02  0.10924648114E+03  0.00000000000E+00 0.  1.
</event>
<event>
12    1  0.8226261E-002  0.2355129E+03  0.7818608E-02  0.1123430E+00
         21   -1    0    0  501  502  0.00000000000E+00  0.00000000000E+00  0.13630949002E+04  0.13630949002E+04  0.00000000000E+00 0. -1.
         21   -1    0    0  502  503 -0.00000000000E+00 -0.00000000000E+00 -0.87356447877E+02  0.87356447877E+02  0.00000000000E+00 0.  1.
         -6    2    1    2    0  503 -0.14589006042E+03  0.50503396022E+02  0.10658358401E+03  0.25850803828E+03  0.17785343049E+03 0.  0.
        -24    2    3    3    0    0 -0.20262049523E+02 -0.13092592103E+02  0.85483273668E+02  0.11605046592E+03  0.74688378908E+02 0.  0.
          6    2    1    2  501    0  0.14589006042E+03 -0.50503396022E+02  0.11691548683E+04  0.11919433098E+04  0.17312205208E+03 0.  0.
         24    2    5    5    0    0  0.59414275368E+02 -0.60928656921E+02  0.92881132151E+03  0.93626018959E+03  0.81549459190E+02 0.  0.
          5    1    5    5  501    0  0.86475785053E+02  0.10425260900E+02  0.24034354677E+03  0.25568312017E+03  0.47000000000E+01 0. -1.
        -13    1    6    6    0    0  0.56658284183E+01 -0.63790099483E+02  0.50239274088E+03  0.50645803823E+03  0.00000000000E+00 0.  1.
         14    1    6    6    0    0  0.53748446949E+02  0.28614425617E+01  0.42641858064E+03  0.42980215136E+03  0.00000000000E+00 0. -1.
         -5    1    3    3    0  503 -0.12562801090E+03  0.63595988125E+02  0.21100310339E+02  0.14245757236E+03  0.47000000000E+01 0.  1.
         11    1    4    4    0    0  0.26355544698E+02 -0.17457703072E+02  0.32371153439E+02  0.45246853016E+02  0.00000000000E+00 0. -1.
        -12    1    4    4    0    0 -0.46617594221E+02  0.43651109688E+01  0.53112120229E+02  0.70803612902E+02  0.00000000000E+00 0.  1.
</event>
<event>
12    1  0.8226261E-002  0.1972688E+03  0.7818608E-02  0.1152472E+00
         21   -1    0    0  503  502  0.00000000000E+00  0.00000000000E+00  0.51847173794E+03  0.51847173794E+03  0.00000000000E+00 0. -1.
         21   -1    0    0  501  503 -0.00000000000E+00 -0.00000000000E+00 -0.75053522773E+02  0.75053522773E+02  0.00000000000E+00 0. -1.
          6    2    1    2  501    0 -0.43956672613E+00  0.96012460303E+02  0.19383657998E+03  0.27656393455E+03  0.17232644719E+03 0.  0.
         24    2    3    3    0    0  0.61298921708E+02  0.39933436908E+02  0.14208211684E+03  0.17829332718E+03  0.79050271363E+02 0.  0.
         -6    2    1    2    0  502  0.43956672613E+00 -0.96012460303E+02  0.24958163519E+03  0.31696132616E+03  0.17016140546E+03 0.  0.
        -24    2    5    5    0    0 -0.25731654883E+02 -0.11892221292E+03  0.13931054503E+03  0.20123927584E+03  0.79279299918E+02 0.  0.
          5    1    3    3  501    0 -0.61738488435E+02  0.56079023395E+02  0.51754463133E+02  0.98270607372E+02  0.47000000000E+01 0. -1.
        -11    1    4    4    0    0  0.41916215698E+02 -0.15471851933E+02  0.37356533542E+02  0.58239659503E+02  0.00000000000E+00 0.  1.
         12    1    4    4    0    0  0.19382706010E+02  0.55405288841E+02  0.10472558330E+03  0.12005366767E+03  0.00000000000E+00 0. -1.
         -5    1    5    5    0  502  0.26171221609E+02  0.22909752620E+02  0.11027109016E+03  0.11572205032E+03  0.47000000000E+01 0.  1.
         11    1    6    6    0    0 -0.48112619781E+02 -0.63567973665E+02  0.10673954832E+03  0.13322553296E+03  0.00000000000E+00 0. -1.
        -12    1    6    6    0    0  0.22380964898E+02 -0.55354239259E+02  0.32570996712E+02  0.68013742880E+02  0.00000000000E+00 0.  1.
</event>
<event>
12    1  0.8226261E-002  0.1906203E+03  0.7818608E-02  0.1158727E+00
         21   -1    0    0  503  502  0.00000000000E+00  0.00000000000E+00  0.70833143317E+03  0.70833143317E+03  0.00000000000E+00 0.  1.
         21   -1    0    0  501  503 -0.00000000000E+00 -0.00000000000E+00 -0.17575133253E+03  0.17575133253E+03  0.00000000000E+00 0.  1.
          6    2    1    2  501    0 -0.72539190518E+02 -0.55821554238E+01  0.63898018705E+03  0.66577778267E+03  0.17225353943E+03 0.  0.
         24    2    3    3    0    0 -0.81981450089E+02  0.18120742679E+01  0.64235909830E+03  0.65246095348E+03  0.79723540239E+02 0.  0.
         -6    2    1    2    0  502  0.72539190518E+02  0.55821554238E+01 -0.10640008640E+03  0.21830498303E+03  0.17619021712E+03 0.  0.
        -24    2    5    5    0    0  0.75194881444E+02 -0.25252209956E+02 -0.56009230580E+01  0.11275702183E+03  0.79942675274E+02 0.  0.
          5    1    3    3  501    0  0.94422595707E+01 -0.73942296917E+01 -0.33789112588E+01  0.13316829196E+02  0.47000000000E+01 0. -1.
        -13    1    4    4    0    0 -0.55363293309E+02 -0.15217512306E+01  0.15921925730E+03  0.16857693160E+03  0.00000000000E+00 0.  1.
         14    1    4    4    0    0 -0.26618156780E+02  0.33338254985E+01  0.48313984101E+03  0.48388402188E+03  0.00000000000E+00 0. -1.
         -5    1    5    5    0  502 -0.26556909254E+01  0.30834365380E+02 -0.10079916334E+03  0.10554796119E+03  0.47000000000E+01 0.  1.
         13    1    6    6    0    0  0.60966921365E+02  0.20596819305E+02  0.58075694644E+00  0.64354733663E+02  0.00000000000E+00 0. -1.
        -14    1    6    6    0    0  0.14227960079E+02 -0.45849029261E+02 -0.61816800044E+01  0.48402288168E+02  0.00000000000E+00 0.  1.
</event>
<event>
12    1  0.8226261E-002  0.1999263E+03  0.7818608E-02  0.1150378E+00
         21   -1    0    0  501  502  0.00000000000E+00  0.00000000000E+00  0.54761244805E+03  0.54761244805E+03  0.00000000000E+00 0.  1.
         21   -1    0    0  502  503 -0.00000000000E+00 -0.00000000000E+00 -0.72274973234E+02  0.72274973234E+02  0.00000000000E+00 0.  1.
         -6    2    1    2    0  503  0.25745718401E+02 -0.97791606632E+02  0.22026037951E+03  0.29746454809E+03  0.17246588718E+03 0.  0.
        -24    2    3    3    0    0 -0.25301583406E+02 -0.98843271558E+01  0.15737514271E+03  0.17783946788E+03  0.78243662665E+02 0.  0.
          6    2    1    2  501    0 -0.25745718401E+02  0.97791606632E+02  0.25507709530E+03  0.32242287319E+03  0.16931079194E+03 0.  0.
         24    2    5    5    0    0 -0.53529088412E+02  0.11134647927E+03  0.25025151183E+03  0.29078387072E+03  0.81645811592E+02 0.  0.
          5    1    5    5  501    0  0.27783370011E+02 -0.13554872638E+02  0.48255834768E+01  0.31639002470E+02  0.47000000000E+01 0. -1.
        -11    1    6    6    0    0  0.20232569435E+02  0.34577491345E+02  0.50789413151E+02  0.64687898883E+02  0.00000000000E+00 0.  1.
         12    1    6    6    0    0 -0.73761657847E+02  0.76768987925E+02  0.19946209867E+03  0.22609597184E+03  0.00000000000E+00 0. -1.
         -5    1    3    3    0  503  0.51047301806E+02 -0.87907279476E+02  0.62885236803E+02  0.11962508021E+03  0.47000000000E+01 0.  1.
         11    1    4    4    0    0 -0.51246721869E+02 -0.84137687537E+01  0.13050652718E+03  0.14045985777E+03  0.00000000000E+00 0. -1.
        -12    1    4    4    0    0  0.25945138463E+02 -0.14705584021E+01  0.26868615528E+02  0.37379610114E+02  0.00000000000E+00 0.  1.
</event>
<event>
12    1  0.8226261E-002  0.4114513E+03  0.7818608E-02  0.1040093E+00
         21   -1    0    0  501  502  0.00000000000E+00  0.00000000000E+00  0.43412953562E+03  0.43412953562E+03  0.00000000000E+00 0.  1.
         21   -1    0    0  502  503 -0.00000000000E+00 -0.00000000000E+00 -0.44254002153E+03  0.44254002153E+03  0.00000000000E+00 0. -1.
         -6    2    1    2    0  503  0.36987697018E+03  0.28841526883E+02  0.15021812453E+03  0.43801559797E+03  0.17790832579E+03 0.  0.
        -24    2    3    3    0    0  0.27258441682E+03 -0.37881887396E+02  0.70100478826E+02  0.29533139385E+03  0.81050930761E+02 0.  0.
          6    2    1    2  501    0 -0.36987697018E+03 -0.28841526883E+02 -0.15862861044E+03  0.43865395918E+03  0.17208559822E+03 0.  0.
         24    2    5    5    0    0 -0.37401978271E+03 -0.24007622606E+02 -0.17462837489E+03  0.42080425361E+03  0.78191986420E+02 0.  0.
          5    1    5    5  501    0  0.41428125318E+01 -0.48339042762E+01  0.15999764455E+02  0.17849705567E+02  0.47000000000E+01 0. -1.
        -13    1    6    6    0    0 -0.85639689165E+02  0.20137620264E+02 -0.64008111543E+02  0.10879668402E+03  0.00000000000E+00 0.  1.
         14    1    6    6    0    0 -0.28838009354E+03 -0.44145242870E+02 -0.11062026335E+03  0.31200756959E+03  0.00000000000E+00 0. -1.
         -5    1    3    3    0  503  0.97292553358E+02  0.66723414278E+02  0.80117645699E+02  0.14268420412E+03  0.47000000000E+01 0.  1.
         11    1    4    4    0    0  0.97063601463E+02  0.15586254775E+02 -0.16407403171E+01  0.98320730752E+02  0.00000000000E+00 0. -1.
        -12    1    4    4    0    0  0.17552081535E+03 -0.53468142171E+02  0.71741219143E+02  0.19701066310E+03  0.00000000000E+00 0.  1.
</event>
<event>
12    1  0.8226261E-002  0.2023722E+03  0.7818608E-02  0.1148139E+00
         21   -1    0    0  501  502  0.00000000000E+00  0.00000000000E+00  0.20330896078E+03  0.20330896078E+03  0.00000000000E+00 0. -1.
         21   -1    0    0  502  503 -0.00000000000E+00 -0.00000000000E+00 -0.20627510965E+03  0.20627510965E+03  0.00000000000E+00 0. -1.
         -6    2    1    2    0  503 -0.84253220866E+02  0.65733403015E+02 -0.38311954863E+02  0.20414832536E+03  0.16967394427E+03 0.  0.
        -24    2    3    3    0    0 -0.55747708198E+02  0.10952298353E+03 -0.39718413788E+02  0.15166823637E+03  0.79514845389E+02 0.  0.
          6    2    1    2  501    0  0.84253220866E+02 -0.65733403015E+02  0.35345805995E+02  0.20543574507E+03  0.17185759760E+03 0.  0.
         24    2    5    5    0    0  0.45976127811E+02  0.25090766189E+02 -0.12268090873E+02  0.95875995435E+02  0.79362141922E+02 0.  0.
          5    1    5    5  501    0  0.38277093054E+02 -0.90824169204E+02  0.47613896868E+02  0.10955974963E+03  0.47000000000E+01 0. -1.
        -13    1    6    6    0    0 -0.19445550165E+02 -0.20973029164E+01  0.95239465249E+01  0.21753934314E+02  0.00000000000E+00 0.  1.
         14    1    6    6    0    0  0.65421677976E+02  0.27188069105E+02 -0.21792037398E+02  0.74122061121E+02  0.00000000000E+00 0. -1.
         -5    1    3    3    0  503 -0.28505512668E+02 -0.43789580518E+02  0.14064589255E+01  0.52480088997E+02  0.47000000000E+01 0.  1.
         11    1    4    4    0    0 -0.33116088087E+02  0.30532987044E-01 -0.30406883238E+00  0.33117498099E+02  0.00000000000E+00 0. -1.
        -12    1    4    4    0    0 -0.22631620110E+02  0.10949245055E+03 -0.39414344956E+02  0.11855073827E+03  0.00000000000E+00 0.  1.
</event>
<event>
12    1  0.8226261E-002  0.1798438E+03  0.7818608E-02  0.1168167E+00
         21   -1    0    0  501  502  0.00000000000E+00  0.00000000000E+00  0.92412800710E+02  0.92412800710E+02  0.00000000000E+00 0.  1.
         21   -1    0    0  502  503 -0.00000000000E+00 -0.00000000000E+00 -0.10398988765E+04  0.10398988765E+04  0.00000000000E+00 0.  1.
         -6    2    1    2    0  503 -0.33759008938E+02 -0.34898297880E+02 -0.93584026640E+03  0.95296421652E+03  0.17316533103E+03 0.  0.
        -24    2    3    3    0    0 -0.14116083293E+02 -0.29137253105E+02 -0.92264271604E+03  0.92815898521E+03  0.95714560215E+02 0.  0.
          6    2    1    2  501    0  0.33759008938E+02  0.34898297880E+02 -0.11645809352E+02  0.17934746065E+03  0.17225656704E+03 0.  0.
         24    2    5    5    0    0  0.84254110346E+02  0.25102528510E+01  0.66978373229E+01  0.11644022657E+03  0.80052538116E+02 0.  0.
          5    1    5    5  501    0 -0.50495101408E+02  0.32388045029E+02 -0.18343646675E+02  0.62907234086E+02  0.47000000000E+01 0. -1.
        -13    1    6    6    0    0  0.31500945838E+02  0.33029286289E+02 -0.20089253281E+02  0.49868040255E+02  0.00000000000E+00 0.  1.
         14    1    6    6    0    0  0.52753164508E+02 -0.30519033438E+02  0.26787090603E+02  0.66572186313E+02  0.00000000000E+00 0. -1.
         -5    1    3    3    0  503 -0.19642925645E+02 -0.57610447750E+01 -0.13197550359E+02  0.24805231309E+02  0.47000000000E+01 0.  1.
         13    1    4    4    0    0 -0.11291289318E+01  0.32374639386E+02 -0.18264341430E+03  0.18549395945E+03  0.00000000000E+00 0. -1.
        -14    1    4    4    0    0 -0.12986954361E+02 -0.61511892491E+02 -0.73999930174E+03  0.74266502576E+03  0.00000000000E+00 0.  1.
</event>
<event>
12    1  0.8226261E-002  0.1911049E+03  0.7818608E-02  0.1157481E+00
         21   -1    0    0  503  502  0.00000000000E+00  0.00000000000E+00  0.50514725254E+03  0.50514725254E+03  0.00000000000E+00 0. -1.
         21   -1    0    0  501  503 -0.00000000000E+00 -0.00000000000E+00 -0.72769935826E+02  0.72769935826E+02  0.00000000000E+00 0. -1.
          6    2    1    2  501    0  0.56086176824E+02 -0.61278528414E+02  0.19243099120E+03  0.27120242044E+03  0.17210563385E+03 0.  0.
         24    2    3    3    0    0  0.32707540216E+02  0.10422496155E+02  0.30456747749E+02  0.92469818166E+02  0.80278528730E+02 0.  0.
         -6    2    1    2    0  502 -0.56086176824E+02  0.61278528414E+02  0.23994632551E+03  0.30671476792E+03  0.17204357722E+03 0.  0.
        -24    2    5    5    0    0 -0.96466444626E+02  0.41986978194E+02  0.22475436458E+03  0.25922144613E+03  0.74916970454E+02 0.  0.
          5    1    3    3  501    0  0.23378636608E+02 -0.71701024569E+02  0.16197424345E+03  0.17873260227E+03  0.47000000000E+01 0. -1.
        -13    1    4    4    0    0 -0.26797047955E+02  0.49200410822E+01  0.59841001944E+01  0.27894408732E+02  0.00000000000E+00 0.  1.
         14    1    4    4    0    0  0.59504588171E+02  0.55024550728E+01  0.24472647555E+02  0.64575409434E+02  0.00000000000E+00 0. -1.
         -5    1    5    5    0  502  0.40380267802E+02  0.19291550220E+02  0.15191960933E+02  0.47493321790E+02  0.47000000000E+01 0.  1.
         13    1    6    6    0    0 -0.51206901378E+02  0.54341403487E+02  0.17781690635E+03  0.19285742678E+03  0.00000000000E+00 0. -1.
        -14    1    6    6    0    0 -0.45259543248E+02 -0.12354425293E+02  0.46937458228E+02  0.66364019350E+02  0.00000000000E+00 0.  1.
</event>
<event>
12    1  0.8226261E-002  0.1812851E+03  0.7818608E-02  0.1166783E+00
         21   -1    0    0  501  502  0.00000000000E+00  0.00000000000E+00  0.15997827551E+03  0.15997827551E+03  0.00000000000E+00 0.  1.
         21   -1    0    0  502  503 -0.00000000000E+00 -0.00000000000E+00 -0.23626954215E+03  0.23626954215E+03  0.00000000000E+00 0. -1.
         -6    2    1    2    0  503  0.56013704239E+02  0.51220922647E+01  0.34533719797E+02  0.18454504077E+03  0.17233839786E+03 0.  0.
        -24    2    3    3    0    0  0.97600206235E+02  0.34869750329E+02  0.21540473989E+02  0.13158019634E+03  0.78151495856E+02 0.  0.
          6    2    1    2  501    0 -0.56013704239E+02 -0.51220922647E+01 -0.11082498644E+03  0.21170277688E+03  0.17138295490E+03 0.  0.
         24    2    5    5    0    0 -0.96202724874E+02  0.15320862974E+02 -0.36080911673E+02  0.12428516704E+03  0.68229593602E+02 0.  0.
          5    1    5    5  501    0  0.40189020635E+02 -0.20442955239E+02 -0.74744074766E+02  0.87417609846E+02  0.47000000000E+01 0. -1.
        -11    1    6    6    0    0 -0.45659034386E+02  0.36200860537E+02  0.88710224481E+00  0.58275523808E+02  0.00000000000E+00 0.  1.
         12    1    6    6    0    0 -0.50543690488E+02 -0.20879997563E+02 -0.36968013918E+02  0.66009643231E+02  0.00000000000E+00 0. -1.
         -5    1    3    3    0  503 -0.41586501996E+02 -0.29747658064E+02  0.12993245808E+02  0.52964844427E+02  0.47000000000E+01 0.  1.
         11    1    4    4    0    0  0.38909790150E+02  0.12025980153E+02  0.48276955616E+02  0.63160592237E+02  0.00000000000E+00 0. -1.
        -12    1    4    4    0    0  0.58690416085E+02  0.22843770175E+02 -0.26736481627E+02  0.68419604105E+02  0.00000000000E+00 0.  1.
</event>
<event>
12    1  0.8226261E-002  0.1729171E+03  0.7818608E-02  0.1174975E+00
         21   -1    0    0  503  502  0.00000000000E+00  0.00000000000E+00  0.43976895497E+02  0.43976895497E+02  0.00000000000E+00 0. -1.
         21   -1    0    0  501  503 -0.00000000000E+00 -0.00000000000E+00 -0.68995895776E+03  0.68995895776E+03  0.00000000000E+00 0. -1.
          6    2    1    2  501    0  0.10194400991E+02 -0.85944851205E+01 -0.37213507157E+03  0.41034721973E+03  0.17240225713E+03 0.  0.
         24    2    3    3    0    0  0.53212339087E+02 -0.50213173375E+02 -0.19181953833E+03  0.22029870030E+03  0.79899100481E+02 0.  0.
         -6    2    1    2    0  502 -0.10194400991E+02  0.85944851205E+01 -0.27384699069E+03  0.32358863353E+03  0.17187099362E+03 0.  0.
        -24    2    5    5    0    0 -0.59055666255E+02  0.11195156475E+02 -0.10089726326E+03  0.14378906469E+03  0.82958629121E+02 0.  0.
          5    1    3    3  501    0 -0.43017938096E+02  0.41618688254E+02 -0.18031553324E+03  0.19004851943E+03  0.47000000000E+01 0. -1.
        -13    1    4    4    0    0  0.12826081750E+02  0.28289060942E+01  0.37657065875E+01  0.13663514513E+02  0.00000000000E+00 0.  1.
         14    1    4    4    0    0  0.40386257337E+02 -0.53042079469E+02 -0.19558524492E+03  0.20663518579E+03  0.00000000000E+00 0. -1.
         -5    1    5    5    0  502  0.48861265264E+02 -0.26006713542E+01 -0.17294972743E+03  0.17979956883E+03  0.47000000000E+01 0.  1.
         11    1    6    6    0    0  0.12526675604E+02 -0.29331430811E+01  0.61348306532E+01  0.14253318110E+02  0.00000000000E+00 0. -1.
        -12    1    6    6    0    0 -0.71582341859E+02  0.14128299556E+02 -0.10703209392E+03  0.12953574658E+03  0.00000000000E+00 0.  1.
</event>
<event>
12    1  0.8226261E-002  0.1954748E+03  0.7818608E-02  0.1153995E+00
         21   -1    0    0  503  502  0.00000000000E+00  0.00000000000E+00  0.51721747848E+03  0.51721747848E+03  0.00000000000E+00 0.  1.
         21   -1    0    0  501  503 -0.00000000000E+00 -0.00000000000E+00 -0.28371244177E+03  0.28371244177E+03  0.00000000000E+00 0.  1.
          6    2    1    2  501    0  0.85606208709E+02  0.13468333883E+02 -0.22832205495E+03  0.29943747496E+03  0.17326864011E+03 0.  0.
         24    2    3    3    0    0  0.37829744918E+02  0.45111077248E+02 -0.21941516446E+03  0.24125434683E+03  0.81206813640E+02 0.  0.
         -6    2    1    2    0  502 -0.85606208709E+02 -0.13468333883E+02  0.46182709166E+03  0.50149244529E+03  0.17521584149E+03 0.  0.
        -24    2    5    5    0    0 -0.12164641455E+03  0.93595682979E+01  0.40481418810E+03  0.43013019528E+03  0.79069629491E+02 0.  0.
          5    1    3    3  501    0  0.47776463791E+02 -0.31642743365E+02 -0.89068904906E+01  0.58183128124E+02  0.47000000000E+01 0. -1.
        -13    1    4    4    0    0  0.56866127995E+02  0.47887280275E+02 -0.12966529369E+03  0.14946583727E+03  0.00000000000E+00 0.  1.
         14    1    4    4    0    0 -0.19036383077E+02 -0.27762030275E+01 -0.89749870769E+02  0.91788509558E+02  0.00000000000E+00 0. -1.
         -5    1    5    5    0  502  0.36040205845E+02 -0.22827902181E+02  0.57012903560E+02  0.71362250018E+02  0.47000000000E+01 0.  1.
         13    1    6    6    0    0 -0.22256621245E+00 -0.20369960103E+02  0.55411551025E+02  0.59037486374E+02  0.00000000000E+00 0. -1.
        -14    1    6    6    0    0 -0.12142384834E+03  0.29729528401E+02  0.34940263708E+03  0.37109270890E+03  0.00000000000E+00 0.  1.
</event>
<event>
12    1  0.8226261E-002  0.1967105E+03  0.7818608E-02  0.1152582E+00
         21   -1    0    0  501  502  0.00000000000E+00  0.00000000000E+00  0.12952684915E+04  0.12952684915E+04  0.00000000000E+00 0. -1.
         21   -1    0    0  502  503 -0.00000000000E+00 -0.00000000000E+00 -0.30255895906E+02  0.30255895906E+02  0.00000000000E+00 0. -1.
         -6    2    1    2    0  503 -0.80184852758E+02 -0.50851720024E+02  0.55581813247E+03  0.58960056972E+03  0.17227747208E+03 0.  0.
        -24    2    3    3    0    0 -0.95068466849E+02 -0.90360871543E+02  0.41352511514E+03  0.44110178924E+03  0.79778863897E+02 0.  0.
          6    2    1    2  501    0  0.80184852758E+02  0.50851720024E+02  0.70919446313E+03  0.73592381770E+03  0.17208012923E+03 0.  0.
         24    2    5    5    0    0 -0.12997005204E+02  0.15826530627E+01  0.20535998802E+03  0.22116021378E+03  0.81041276777E+02 0.  0.
          5    1    5    5  501    0  0.93181857962E+02  0.49269066961E+02  0.50383447511E+03  0.51476360392E+03  0.47000000000E+01 0. -1.
        -13    1    6    6    0    0 -0.13856465478E+02 -0.34293632927E+01  0.21217635745E+03  0.21265598706E+03  0.00000000000E+00 0.  1.
         14    1    6    6    0    0  0.85946027408E+00  0.50120163554E+01 -0.68163694305E+01  0.85042267210E+01  0.00000000000E+00 0. -1.
         -5    1    3    3    0  503  0.14883614091E+02  0.39509151519E+02  0.14229301733E+03  0.14849878048E+03  0.47000000000E+01 0.  1.
         11    1    4    4    0    0 -0.40236528581E+02 -0.90103736109E+02  0.26397114569E+03  0.28181275211E+03  0.00000000000E+00 0. -1.
        -12    1    4    4    0    0 -0.54831938268E+02 -0.25713543453E+00  0.14955396945E+03  0.15928903713E+03  0.00000000000E+00 0.  1.
</event>
<event>
12    1  0.8226261E-002  0.1945736E+03  0.7818608E-02  0.1154613E+00
         21   -1    0    0  503  502  0.00000000000E+00  0.00000000000E+00  0.75639263416E+03  0.75639263416E+03  0.00000000000E+00 0.  1.
         21   -1    0    0  501  503 -0.00000000000E+00 -0.00000000000E+00 -0.66152553779E+02  0.66152553779E+02  0.00000000000E+00 0.  1.
          6    2    1    2  501    0  0.53112803018E+02  0.73093748842E+02  0.14000227494E+03  0.23891814737E+03  0.17122376643E+03 0.  0.
         24    2    3    3    0    0 -0.60309401562E+01  0.61139378722E+02  0.17174904789E+02  0.10198917973E+03  0.79576501287E+02 0.  0.
         -6    2    1    2    0  502 -0.53112803018E+02 -0.73093748842E+02  0.55023780545E+03  0.58362704057E+03  0.17232299319E+03 0.  0.
        -24    2    5    5    0    0 -0.26540851475E+02 -0.82813442511E+02  0.20817144230E+03  0.24036033982E+03  0.82917190672E+02 0.  0.
          5    1    3    3  501    0  0.59143743175E+02  0.11954370120E+02  0.12282737015E+03  0.13692896764E+03  0.47000000000E+01 0. -1.
        -11    1    4    4    0    0 -0.71864719911E+01  0.78220965100E+02  0.25982270040E+02  0.82735984416E+02  0.00000000000E+00 0.  1.
         12    1    4    4    0    0  0.11555318349E+01 -0.17081586378E+02 -0.88073652509E+01  0.19253195310E+02  0.00000000000E+00 0. -1.
         -5    1    5    5    0  502 -0.26571951543E+02  0.97196936691E+01  0.34206636314E+03  0.34326670076E+03  0.47000000000E+01 0.  1.
         13    1    6    6    0    0 -0.38245707570E+02 -0.56252946329E+02  0.19839564277E+03  0.20973306651E+03  0.00000000000E+00 0. -1.
        -14    1    6    6    0    0  0.11704856095E+02 -0.26560496182E+02  0.97757995336E+01  0.30627273306E+02  0.00000000000E+00 0.  1.
</event>
<event>
12    1  0.8226261E-002  0.2415542E+03  0.7818608E-02  0.1118993E+00
         21   -1    0    0  503  502  0.00000000000E+00  0.00000000000E+00  0.12453339212E+03  0.12453339212E+03  0.00000000000E+00 0.  1.
         21   -1    0    0  501  503 -0.00000000000E+00 -0.00000000000E+00 -0.63620324926E+03  0.63620324926E+03  0.00000000000E+00 0. -1.
          6    2    1    2  501    0 -0.15751710284E+03  0.59371663009E+02 -0.45212725750E+03  0.51195206758E+03  0.17128698279E+03 0.  0.
         24    2    3    3    0    0 -0.90054980498E+02 -0.16558161548E+02 -0.33664186315E+03  0.35808380407E+03  0.80698169051E+02 0.  0.
         -6    2    1    2    0  502  0.15751710284E+03 -0.59371663009E+02 -0.59542599641E+02  0.24878457381E+03  0.17323917264E+03 0.  0.
        -24    2    5    5    0    0  0.16702937956E+03 -0.79530637942E+01 -0.27905485189E+02  0.18748732456E+03  0.80066946414E+02 0.  0.
          5    1    3    3  501    0 -0.67462122337E+02  0.75929824557E+02 -0.11548539435E+03  0.15386826351E+03  0.47000000000E+01 0. -1.
        -11    1    4    4    0    0 -0.33620344091E+02  0.28738368594E+02 -0.79744145477E+02  0.91188541518E+02  0.00000000000E+00 0.  1.
         12    1    4    4    0    0 -0.56434636408E+02 -0.45296530141E+02 -0.25689771767E+03  0.26689526256E+03  0.00000000000E+00 0. -1.
         -5    1    5    5    0  502 -0.95122767266E+01 -0.51418599215E+02 -0.31637114453E+02  0.61297249242E+02  0.47000000000E+01 0.  1.
         11    1    6    6    0    0  0.16712215469E+03  0.25899337228E+00 -0.40956119256E+02  0.17206767672E+03  0.00000000000E+00 0. -1.
        -12    1    6    6    0    0 -0.92775130653E-01 -0.82120571665E+01  0.13050634067E+02  0.15419647846E+02  0.00000000000E+00 0.  1.
</event>
<event>
12    1  0.8226261E-002  0.2040677E+03  0.7818608E-02  0.1146866E+00
         21   -1    0    0  503  502  0.00000000000E+00  0.00000000000E+00  0.38920545493E+03  0.38920545493E+03  0.00000000000E+00 0.  1.
         21   -1    0    0  501  503 -0.00000000000E+00 -0.00000000000E+00 -0.16493914959E+03  0.16493914959E+03  0.00000000000E+00 0.  1.
          6    2    1    2  501    0  0.44464030513E+02 -0.10079641211E+03 -0.54358760419E+02  0.20878165220E+03  0.16881331925E+03 0.  0.
         24    2    3    3    0    0 -0.65796338905E+01 -0.65917424166E+02 -0.89899078996E+02  0.13731694958E+03  0.79910586578E+02 0.  0.
         -6    2    1    2    0  502 -0.44464030513E+02  0.10079641211E+03  0.27862506575E+03  0.34536295232E+03  0.17177507056E+03 0.  0.
        -24    2    5    5    0    0 -0.91091456304E+01 -0.17245785568E+02  0.47044526610E+02  0.82997626051E+02  0.65536438660E+02 0.  0.
          5    1    3    3  501    0  0.51043664404E+02 -0.34878987945E+02  0.35540318577E+02  0.71464702619E+02  0.47000000000E+01 0. -1.
        -11    1    4    4    0    0  0.29265529485E+02 -0.60006944603E+02 -0.65682767877E+02  0.93656449925E+02  0.00000000000E+00 0.  1.
         12    1    4    4    0    0 -0.35845163375E+02 -0.59104795633E+01 -0.24216311119E+02  0.43660499656E+02  0.00000000000E+00 0. -1.
         -5    1    5    5    0  502 -0.35354884883E+02  0.11804219768E+03  0.23158053914E+03  0.26236532627E+03  0.47000000000E+01 0.  1.
         13    1    6    6    0    0 -0.20734596403E+02 -0.25479749255E+02 -0.10202058232E+01  0.32866121311E+02  0.00000000000E+00 0. -1.
        -14    1    6    6    0    0  0.11625450773E+02  0.82339636871E+01  0.48064732433E+02  0.50131504741E+02  0.00000000000E+00 0.  1.
</event>
<event>
12    1  0.8226261E-002  0.1785858E+03  0.7818608E-02  0.1169234E+00
         21   -1    0    0  503  502  0.00000000000E+00  0.00000000000E+00  0.28350457956E+03  0.28350457956E+03  0.00000000000E+00 0.  1.
         21   -1    0    0  501  503 -0.00000000000E+00 -0.00000000000E+00 -0.11807429299E+03  0.11807429299E+03  0.00000000000E+00 0.  1.
          6    2    1    2  501    0  0.12704843645E+02  0.45255841110E+02  0.12686288375E+03  0.21887597276E+03  0.17205521198E+03 0.  0.
         24    2    3    3    0    0 -0.48572410842E+02 -0.59085103732E+01  0.97418839198E+02  0.13366016120E+03  0.77333167983E+02 0.  0.
         -6    2    1    2    0  502 -0.12704843645E+02 -0.45255841110E+02  0.38567402818E+02  0.18270289979E+03  0.17228871357E+03 0.  0.
        -24    2    5    5    0    0  0.25864295945E+02 -0.62866236279E+02 -0.24884479860E+02  0.10624417915E+03  0.77765434459E+02 0.  0.
          5    1    3    3  501    0  0.61277254487E+02  0.51164351484E+02  0.29444044554E+02  0.85215811560E+02  0.47000000000E+01 0. -1.
        -13    1    4    4    0    0 -0.43703969063E+02  0.15934010740E+02  0.15954504147E+02  0.49178001309E+02  0.00000000000E+00 0.  1.
         14    1    4    4    0    0 -0.48684417788E+01 -0.21842521113E+02  0.81464335050E+02  0.84482159887E+02  0.00000000000E+00 0. -1.
         -5    1    5    5    0  502 -0.38569139590E+02  0.17610395169E+02  0.63451882679E+02  0.76458720642E+02  0.47000000000E+01 0.  1.
         13    1    6    6    0    0 -0.28090374621E+01 -0.30785517823E+02 -0.48233748492E+02  0.57289905679E+02  0.00000000000E+00 0. -1.
        -14    1    6    6    0    0  0.28673333407E+02 -0.32080718456E+02  0.23349268632E+02  0.48954273470E+02  0.00000000000E+00 0.  1.
</event>
<event>
12    1  0.8226261E-002  0.2191208E+03  0.7818608E-02  0.1134898E+00
         21   -1    0    0  501  502  0.00000000000E+00  0.00000000000E+00  0.58477000018E+03  0.58477000018E+03  0.00000000000E+00 0. -1.
         21   -1    0    0  502  503 -0.00000000000E+00 -0.00000000000E+00 -0.95082779500E+02  0.95082779500E+02  0.00000000000E+00 0. -1.
         -6    2    1    2    0  503 -0.11544702065E+03 -0.72258428644E+02  0.11496604304E+03  0.24576765278E+03  0.16921954088E+03 0.  0.
        -24    2    3    3    0    0 -0.36350976045E+02 -0.91835372165E+02  0.10250483864E+03  0.16320366181E+03  0.79831474018E+02 0.  0.
          6    2    1    2  501    0  0.11544702065E+03  0.72258428644E+02  0.37472117764E+03  0.43408512689E+03  0.17165267644E+03 0.  0.
         24    2    5    5    0    0  0.10883355459E+03  0.13124709792E+02  0.15326169677E+03  0.20472312850E+03  0.80033811821E+02 0.  0.
          5    1    5    5  501    0  0.66134660668E+01  0.59133718851E+02  0.22145948087E+03  0.22936199839E+03  0.47000000000E+01 0. -1.
        -13    1    6    6    0    0  0.33622723776E+02 -0.11746096571E+01  0.26881162098E+00  0.33644308904E+02  0.00000000000E+00 0.  1.
         14    1    6    6    0    0  0.75210830813E+02  0.14299319449E+02  0.15299288515E+03  0.17107881959E+03  0.00000000000E+00 0. -1.
         -5    1    3    3    0  503 -0.79096044610E+02  0.19576943521E+02  0.12461204399E+02  0.82563990974E+02  0.47000000000E+01 0.  1.
         11    1    4    4    0    0 -0.55482593031E+02 -0.72433442449E+02  0.10071252074E+03  0.13589677534E+03  0.00000000000E+00 0. -1.
        -12    1    4    4    0    0  0.19131616986E+02 -0.19401929716E+02  0.17923178991E+01  0.27306886469E+02  0.00000000000E+00 0.  1.
</event>
<event>
12    1  0.8226261E-002  0.1824370E+03  0.7818608E-02  0.1165476E+00
         21   -1    0    0  501  502  0.00000000000E+00  0.00000000000E+00  0.10969233530E+03  0.10969233530E+03  0.00000000000E+00 0. -1.
         21   -1    0    0  502  503 -0.00000000000E+00 -0.00000000000E+00 -0.11892688613E+04  0.11892688613E+04  0.00000000000E+00 0. -1.
         -6    2    1    2    0  503 -0.57998917871E+02  0.16422787053E+02 -0.11003333052E+04  0.11153471897E+04  0.17214060758E+03 0.  0.
        -24    2    3    3    0    0 -0.64058973608E+02 -0.10417029705E+02 -0.10664949402E+04  0.10714812008E+04  0.80302177141E+02 0.  0.
          6    2    1    2  501    0  0.57998917871E+02 -0.16422787053E+02  0.20756779190E+02  0.18361400684E+03  0.17219081630E+03 0.  0.
         24    2    5    5    0    0 -0.32807237038E+02  0.10269106253E+02  0.19657254562E+02  0.88843157464E+02  0.79529426164E+02 0.  0.
          5    1    5    5  501    0  0.90806154908E+02 -0.26691893306E+02  0.10995246280E+01  0.94770849378E+02  0.47000000000E+01 0. -1.
        -11    1    6    6    0    0 -0.52803464308E+02 -0.92669139284E+01  0.26877084885E+02  0.59970486312E+02  0.00000000000E+00 0.  1.
         12    1    6    6    0    0  0.19996227270E+02  0.19536020181E+02 -0.72198303222E+01  0.28872671152E+02  0.00000000000E+00 0. -1.
         -5    1    3    3    0  503  0.60600557370E+01  0.26839816758E+02 -0.33838364987E+02  0.43865988923E+02  0.47000000000E+01 0.  1.
         13    1    4    4    0    0 -0.31966992076E+02  0.33320701239E+02 -0.61680032272E+03  0.61852630972E+03  0.00000000000E+00 0. -1.
        -14    1    4    4    0    0 -0.32091981532E+02 -0.43737730944E+02 -0.44969461747E+03  0.45295489109E+03  0.00000000000E+00 0.  1.
</event>
<event>
12    1  0.8226261E-002  0.2094500E+03  0.7818608E-02  0.1142253E+00
         21   -1    0    0  503  502  0.00000000000E+00  0.00000000000E+00  0.60898544306E+03  0.60898544306E+03  0.00000000000E+00 0.  1.
         21   -1    0    0  501  503 -0.00000000000E+00 -0.00000000000E+00 -0.11013018479E+03  0.11013018479E+03  0.00000000000E+00 0.  1.
          6    2    1    2  501    0  0.12335952810E+01 -0.11991269882E+03  0.37256112511E+02  0.21273771324E+03  0.17172285701E+03 0.  0.
         24    2    3    3    0    0 -0.17133447585E+02 -0.12226872985E+03  0.78120728132E+02  0.16762778134E+03  0.82176806866E+02 0.  0.
         -6    2    1    2    0  502 -0.12335952810E+01  0.11991269882E+03  0.46159914576E+03  0.50637791461E+03  0.17018884790E+03 0.  0.
        -24    2    5    5    0    0 -0.63032340662E+02  0.44529778418E+02  0.24000049790E+03  0.26424216684E+03  0.79168848722E+02 0.  0.
          5    1    3    3  501    0  0.18367042866E+02  0.23560310353E+01 -0.40864615620E+02  0.45109931896E+02  0.47000000000E+01 0. -1.
        -11    1    4    4    0    0  0.25293625552E+02 -0.86294950397E+02  0.63585132773E+02  0.11013471327E+03  0.00000000000E+00 0.  1.
         12    1    4    4    0    0 -0.42427073138E+02 -0.35973779458E+02  0.14535595359E+02  0.57493068069E+02  0.00000000000E+00 0. -1.
         -5    1    5    5    0  502  0.61798745381E+02  0.75382920401E+02  0.22159864786E+03  0.24213574778E+03  0.47000000000E+01 0.  1.
         11    1    6    6    0    0 -0.22094259089E+02  0.81219065233E+01  0.18542096157E+03  0.18690921497E+03  0.00000000000E+00 0. -1.
        -12    1    6    6    0    0 -0.40938081573E+02  0.36407871895E+02  0.54579536323E+02  0.77332951864E+02  0.00000000000E+00 0.  1.
</event>
<event>
12    1  0.8226261E-002  0.1778454E+03  0.7818608E-02  0.1169925E+00
         21   -1    0    0  501  502  0.00000000000E+00  0.00000000000E+00  0.15150658832E+04  0.15150658832E+04  0.00000000000E+00 0.  1.
         21   -1    0    0  502  503 -0.00000000000E+00 -0.00000000000E+00 -0.69426876564E+02  0.69426876564E+02  0.00000000000E+00 0.  1.
         -6    2    1    2    0  503 -0.48569459318E+01 -0.44509128710E+02  0.60192876663E+02  0.18767853976E+03  0.17203313467E+03 0.  0.
        -24    2    3    3    0    0  0.29979254756E+02 -0.73910044512E+02  0.78633941297E+02  0.13828079089E+03  0.81097657247E+02 0.  0.
          6    2    1    2  501    0  0.48569459318E+01  0.44509128710E+02  0.13854461300E+04  0.13968142200E+04  0.17211720914E+03 0.  0.
         24    2    5    5    0    0 -0.34382360401E+02  0.72985284111E+02  0.11910270482E+04  0.11963859687E+04  0.79277727034E+02 0.  0.
          5    1    5    5  501    0  0.39239306333E+02 -0.28476155400E+02  0.19441908176E+03  0.20042825135E+03  0.47000000000E+01 0. -1.
        -13    1    6    6    0    0  0.16278250746E+02  0.29049644850E+02  0.70116971883E+03  0.70195999738E+03  0.00000000000E+00 0.  1.
         14    1    6    6    0    0 -0.50660611147E+02  0.43935639260E+02  0.48985732941E+03  0.49442597130E+03  0.00000000000E+00 0. -1.
         -5    1    3    3    0  503 -0.34836200688E+02  0.29400915802E+02 -0.18441064634E+02  0.49397748867E+02  0.47000000000E+01 0.  1.
         11    1    4    4    0    0  0.20034545612E+02 -0.64306007335E+02  0.95254301396E+02  0.11666202266E+03  0.00000000000E+00 0. -1.
        -12    1    4    4    0    0  0.99447091443E+01 -0.96040371768E+01 -0.16620360099E+02  0.21618768232E+02  0.00000000000E+00 0.  1.
</event>
<event>
12    1  0.8226261E-002  0.1878148E+03  0.7818608E-02  0.1160498E+00
         21   -1    0    0  503  502  0.00000000000E+00  0.00000000000E+00  0.11348864711E+03  0.11348864711E+03  0.00000000000E+00 0. -1.
         21   -1    0    0  501  503 -0.00000000000E+00 -0.00000000000E+00 -0.44992815155E+03  0.44992815155E+03  0.00000000000E+00 0. -1.
          6    2    1    2  501    0 -0.61060853094E+02 -0.44290543205E+02 -0.32513596507E+03  0.37548343408E+03  0.17200096943E+03 0.  0.
         24    2    3    3    0    0 -0.74632239935E+01  0.33027145264E+01 -0.65518856678E+02  0.10611202320E+03  0.83068846458E+02 0.  0.
         -6    2    1    2    0  502  0.61060853094E+02  0.44290543205E+02 -0.11303539376E+02  0.18793336458E+03  0.17175884118E+03 0.  0.
        -24    2    5    5    0    0 -0.45241456773E+01  0.57333159808E+02  0.36298666386E+02  0.10571680965E+03  0.80937578130E+02 0.  0.
          5    1    3    3  501    0 -0.53597629101E+02 -0.47593257731E+02 -0.25961710839E+03  0.26937141087E+03  0.47000000000E+01 0. -1.
        -13    1    4    4    0    0 -0.27518065465E+02 -0.16090338466E+02  0.31112128192E+01  0.32028464904E+02  0.00000000000E+00 0.  1.
         14    1    4    4    0    0  0.20054841471E+02  0.19393052993E+02 -0.68630069497E+02  0.74083558297E+02  0.00000000000E+00 0. -1.
         -5    1    5    5    0  502  0.65584998772E+02 -0.13042616603E+02 -0.47602205762E+02  0.82216554934E+02  0.47000000000E+01 0.  1.
         13    1    6    6    0    0  0.32810336140E+02  0.49013620110E+02  0.11390791181E+02  0.60071650865E+02  0.00000000000E+00 0. -1.
        -14    1    6    6    0    0 -0.37334481817E+02  0.83195396980E+01  0.24907875205E+02  0.45645158786E+02  0.00000000000E+00 0.  1.
</event>
<event>
12    1  0.8226261E-002  0.1733914E+03  0.7818608E-02  0.1174432E+00
         21   -1    0    0  503  502  0.00000000000E+00  0.00000000000E+00  0.18848991918E+04  0.18848991918E+04  0.00000000000E+00 0.  1.
         21   -1    0    0  501  503 -0.00000000000E+00 -0.00000000000E+00 -0.19419834976E+02  0.19419834976E+02  0.00000000000E+00 0.  1.
          6    2    1    2  501    0  0.12011971661E+00 -0.14936329932E+02  0.13374439739E+04  0.13486367107E+04  0.17274688378E+03 0.  0.
         24    2    3    3    0    0 -0.10853868201E+02  0.26714180860E+02  0.34633974242E+03  0.35658586470E+03  0.79817340315E+02 0.  0.
         -6    2    1    2    0  502 -0.12011971661E+00  0.14936329932E+02  0.52803538287E+03  0.55568231598E+03  0.17244814394E+03 0.  0.
        -24    2    5    5    0    0  0.64165593522E+02  0.13771916022E+02  0.37426583112E+03  0.38894547592E+03  0.83046865295E+02 0.  0.
          5    1    3    3  501    0  0.10973987917E+02 -0.41650510792E+02  0.99110423149E+03  0.99205084604E+03  0.47000000000E+01 0. -1.
        -13    1    4    4    0    0  0.27551676372E+02 -0.29273700231E+01  0.21104590311E+03  0.21285684764E+03  0.00000000000E+00 0.  1.
         14    1    4    4    0    0 -0.38405544573E+02  0.29641550883E+02  0.13529383931E+03  0.14372901707E+03  0.00000000000E+00 0. -1.
         -5    1    5    5    0  502 -0.64285713238E+02  0.11644139104E+01  0.15376955175E+03  0.16673684006E+03  0.47000000000E+01 0.  1.
         11    1    6    6    0    0  0.64319127861E+02  0.20231961234E+02  0.37620450970E+03  0.38219905231E+03  0.00000000000E+00 0. -1.
        -12    1    6    6    0    0 -0.15353433949E+00 -0.64600452123E+01 -0.19386785846E+01  0.67464236150E+01  0.00000000000E+00 0.  1.
</event>
<event>
12    1  0.8226261E-002  0.2038935E+03  0.7818608E-02  0.1147533E+00
         21   -1    0    0  503  502  0.00000000000E+00  0.00000000000E+00  0.37379968953E+03  0.37379968953E+03  0.00000000000E+00 0.  1.
         21   -1    0    0  501  503 -0.00000000000E+00 -0.00000000000E+00 -0.11728230555E+03  0.11728230555E+03  0.00000000000E+00 0.  1.
          6    2    1    2  501    0 -0.84597586999E+02 -0.52368113731E+02  0.19391209961E+03  0.27779349323E+03  0.17224445257E+03 0.  0.
         24    2    3    3    0    0 -0.95418881618E+02 -0.93926052294E+02  0.15347694729E+03  0.21862209627E+03  0.79458047783E+02 0.  0.
         -6    2    1    2    0  502  0.84597586999E+02  0.52368113731E+02  0.62605284369E+02  0.21328850185E+03  0.17797020068E+03 0.  0.
        -24    2    5    5    0    0  0.11784354818E+03  0.58992548962E+02  0.81853746258E+02  0.17402311809E+03  0.78846605335E+02 0.  0.
          5    1    3    3  501    0  0.10821294619E+02  0.41557938563E+02  0.40435152319E+02  0.59171396958E+02  0.47000000000E+01 0. -1.
        -11    1    4    4    0    0 -0.18102587210E+02  0.92582757791E+01  0.31519232895E+01  0.20575566931E+02  0.00000000000E+00 0.  1.
         12    1    4    4    0    0 -0.77316294408E+02 -0.10318432807E+03  0.15032502400E+03  0.19804652934E+03  0.00000000000E+00 0. -1.
         -5    1    5    5    0  502 -0.33245961178E+02 -0.66244352314E+01 -0.19248461888E+02  0.39265383761E+02  0.47000000000E+01 0.  1.
         11    1    6    6    0    0  0.47603471033E+02  0.55761382767E+02  0.10886914002E+02  0.74121165391E+02  0.00000000000E+00 0. -1.
        -12    1    6    6    0    0  0.70240077144E+02  0.32311661948E+01  0.70966832256E+02  0.99901952697E+02  0.00000000000E+00 0.  1.
</event>
<event>
12    1  0.8226261E-002  0.1747544E+03  0.7818608E-02  0.1173409E+00
         21   -1    0    0  503  502  0.00000000000E+00  0.00000000000E+00  0.54617587166E+02  0.54617587166E+02  0.00000000000E+00 0. -1.
         21   -1    0    0  501  503 -0.00000000000E+00 -0.00000000000E+00 -0.80944203475E+03  0.80944203475E+03  0.00000000000E+00 0. -1.
          6    2    1    2  501    0 -0.20307488425E+02 -0.92711620804E+00 -0.62150895349E+03  0.64561015470E+03  0.17356796639E+03 0.  0.
         24    2    3    3    0    0 -0.24987622738E+02  0.58743423589E+02 -0.26743324247E+03  0.28648040640E+03  0.80469329390E+02 0.  0.
         -6    2    1    2    0  502  0.20307488425E+02  0.92711620804E+00 -0.13331549410E+03  0.21844946722E+03  0.17185428458E+03 0.  0.
        -24    2    5    5    0    0 -0.10214800963E+01  0.94180515496E+01 -0.21821347735E+00  0.83305111100E+02  0.82764429568E+02 0.  0.
          5    1    3    3  501    0  0.46801343135E+01 -0.59670539797E+02 -0.35407571102E+03  0.35912974830E+03  0.47000000000E+01 0. -1.
        -13    1    4    4    0    0 -0.33650433833E+02  0.31730669471E+02 -0.53697606133E+02  0.70870445086E+02  0.00000000000E+00 0.  1.
         14    1    4    4    0    0  0.86628110944E+01  0.27012754117E+02 -0.21373563633E+03  0.21560996132E+03  0.00000000000E+00 0. -1.
         -5    1    5    5    0  502  0.21328968521E+02 -0.84909353415E+01 -0.13309728062E+03  0.13514435612E+03  0.47000000000E+01 0.  1.
         11    1    6    6    0    0  0.34100034522E+02  0.50241430185E+01 -0.22793708456E+02  0.41323207918E+02  0.00000000000E+00 0. -1.
        -12    1    6    6    0    0 -0.35121514618E+02  0.43939085311E+01  0.22575494979E+02  0.41981903182E+02  0.00000000000E+00 0.  1.
</event>
<event>
12    1  0.8226261E-002  0.2163169E+03  0.7818608E-02  0.1136847E+00
         21   -1    0    0  503  502  0.00000000000E+00  0.00000000000E+00  0.34765165598E+02  0.34765165598E+02  0.00000000000E+00 0. -1.
         21   -1    0    0  501  503 -0.00000000000E+00 -0.00000000000E+00 -0.17569005517E+04  0.17569005517E+04  0.00000000000E+00 0.  1.
          6    2    1    2  501    0 -0.31987564642E+01  0.12920632154E+03 -0.12960293000E+04  0.13137960819E+04  0.17223150951E+03 0.  0.
         24    2    3    3    0    0 -0.31609008290E+02  0.14938497452E+03 -0.91297298650E+03  0.92912927837E+03  0.80290359549E+02 0.  0.
         -6    2    1    2    0  502  0.31987564642E+01 -0.12920632154E+03 -0.42610608606E+03  0.47786963533E+03  0.17346033040E+03 0.  0.
        -24    2    5    5    0    0  0.46237655600E+02 -0.12938071296E+02 -0.21347497764E+03  0.23168935358E+03  0.76177923306E+02 0.  0.
          5    1    3    3  501    0  0.28410251826E+02 -0.20178652984E+02 -0.38305631351E+03  0.38466680356E+03  0.47000000000E+01 0. -1.
        -11    1    4    4    0    0 -0.35030814925E+02  0.11911335881E+03 -0.85168645093E+03  0.86068865505E+03  0.00000000000E+00 0.  1.
         12    1    4    4    0    0  0.34218066349E+01  0.30271615710E+02 -0.61286535574E+02  0.68440623324E+02  0.00000000000E+00 0. -1.
         -5    1    5    5    0  502 -0.43038899136E+02 -0.11626825024E+03 -0.21263110842E+03  0.24618028175E+03  0.47000000000E+01 0.  1.
         13    1    6    6    0    0  0.31130207262E+02 -0.20335978929E+02 -0.30917144828E+02  0.48358160506E+02  0.00000000000E+00 0. -1.
        -14    1    6    6    0    0  0.15107448338E+02  0.73979076339E+01 -0.18255783282E+03  0.18333119308E+03  0.00000000000E+00 0.  1.
</event>
<event>
12    1  0.8226261E-002  0.2196587E+03  0.7818608E-02  0.1134256E+00
         21   -1    0    0  501  502  0.00000000000E+00  0.00000000000E+00  0.13841550374E+03  0.13841550374E+03  0.00000000000E+00 0. -1.
         21   -1    0    0  502  503 -0.00000000000E+00 -0.00000000000E+00 -0.49758519088E+03  0.49758519088E+03  0.00000000000E+00 0. -1.
         -6    2    1    2    0  503  0.13517773608E+03 -0.16841799509E+02 -0.35400040047E+03  0.41628121510E+03  0.17151413927E+03 0.  0.
        -24    2    3    3    0    0  0.11702119552E+03  0.40775279431E+00 -0.13473820182E+03  0.19554334165E+03  0.79929274787E+02 0.  0.
          6    2    1    2  501    0 -0.13517773608E+03  0.16841799509E+02 -0.51692866660E+01  0.21971947952E+03  0.17231732825E+03 0.  0.
         24    2    5    5    0    0 -0.82369551721E+02 -0.13140481005E+02  0.60610274942E+02  0.13007193519E+03  0.79294940592E+02 0.  0.
          5    1    5    5  501    0 -0.52808184354E+02  0.29982280514E+02 -0.65779561608E+02  0.89647544333E+02  0.47000000000E+01 0. -1.
        -13    1    6    6    0    0  0.14364944478E+02  0.62065873506E+01  0.33333737714E+01  0.15999523027E+02  0.00000000000E+00 0.  1.
         14    1    6    6    0    0 -0.96734496198E+02 -0.19347068356E+02  0.57276901171E+02  0.11407241216E+03  0.00000000000E+00 0. -1.
         -5    1    3    3    0  503  0.18156540550E+02 -0.17249552303E+02 -0.21926219865E+03  0.22073787345E+03  0.47000000000E+01 0.  1.
         11    1    4    4    0    0  0.27273243453E+02 -0.32048978658E+02 -0.64630196771E+02  0.77123467092E+02  0.00000000000E+00 0. -1.
        -12    1    4    4    0    0  0.89747952071E+02  0.32456731453E+02 -0.70108005048E+02  0.11841987455E+03  0.00000000000E+00 0.  1.
</event>
<event>
12    1  0.8226261E-002  0.2068433E+03  0.7818608E-02  0.1144549E+00
         21   -1    0    0  501  502  0.00000000000E+00  0.00000000000E+00  0.51292492613E+03  0.51292492613E+03  0.00000000000E+00 0. -1.
         21   -1    0    0  502  503 -0.00000000000E+00 -0.00000000000E+00 -0.86880818422E+02  0.86880818422E+02  0.00000000000E+00 0. -1.
         -6    2    1    2    0  503 -0.89161206873E+02  0.64105810127E+02  0.14460436816E+03  0.25053151338E+03  0.17261616438E+03 0.  0.
        -24    2    3    3    0    0 -0.12660960494E+03  0.44726007887E+02  0.85384826623E+02  0.17768233115E+03  0.79057158698E+02 0.  0.
          6    2    1    2  501    0  0.89161206873E+02 -0.64105810127E+02  0.28143973955E+03  0.34927423117E+03  0.17528515584E+03 0.  0.
         24    2    5    5    0    0  0.21843871717E+01 -0.76546635121E+02  0.11233616944E+03  0.15864934109E+03  0.81768206347E+02 0.  0.
          5    1    5    5  501    0  0.86976819702E+02  0.12440824994E+02  0.16910357011E+03  0.19062489008E+03  0.47000000000E+01 0. -1.
        -13    1    6    6    0    0 -0.22055693942E+02  0.70077858444E+01  0.12781840048E+02  0.26437438089E+02  0.00000000000E+00 0.  1.
         14    1    6    6    0    0  0.24240081114E+02 -0.83554420966E+02  0.99554329389E+02  0.13221190300E+03  0.00000000000E+00 0. -1.
         -5    1    3    3    0  503  0.37448398065E+02  0.19379802239E+02  0.59219541534E+02  0.72849182233E+02  0.47000000000E+01 0.  1.
         13    1    4    4    0    0 -0.21721895167E+02 -0.22317593938E+02  0.20702249096E+02  0.37396508480E+02  0.00000000000E+00 0. -1.
        -14    1    4    4    0    0 -0.10488770977E+03  0.67043601826E+02  0.64682577527E+02  0.14028582267E+03  0.00000000000E+00 0.  1.
</event>
<event>
12    1  0.8226261E-002  0.2255625E+03  0.7818608E-02  0.1129833E+00
         21   -1    0    0  501  502  0.00000000000E+00  0.00000000000E+00  0.38586044536E+03  0.38586044536E+03  0.00000000000E+00 0.  1.
         21   -1    0    0  502  503 -0.00000000000E+00 -0.00000000000E+00 -0.13368078496E+03  0.13368078496E+03  0.00000000000E+00 0.  1.
         -6    2    1    2    0  503 -0.22368380746E+02 -0.14312677515E+03  0.15718607216E+03  0.27479196318E+03  0.17267757099E+03 0.  0.
        -24    2    3    3    0    0  0.53669830763E+02 -0.58507470855E+02  0.83003451839E+02  0.13889719718E+03  0.78097909615E+02 0.  0.
          6    2    1    2  501    0  0.22368380746E+02  0.14312677515E+03  0.94993588232E+02  0.24474926714E+03  0.17289535488E+03 0.  0.
         24    2    5    5    0    0 -0.46741345534E+02  0.97544734317E+02  0.25941457223E+02  0.13684114182E+03  0.79704518804E+02 0.  0.
          5    1    5    5  501    0  0.69109726280E+02  0.45582040831E+02  0.69052131009E+02  0.10790812532E+03  0.47000000000E+01 0. -1.
        -13    1    6    6    0    0  0.17815851812E+02  0.50078042099E+02  0.18859409399E+02  0.56399398925E+02  0.00000000000E+00 0.  1.
         14    1    6    6    0    0 -0.64557197346E+02  0.47466692219E+02  0.70820478238E+01  0.80441742900E+02  0.00000000000E+00 0. -1.
         -5    1    3    3    0  503 -0.76038211508E+02 -0.84619304293E+02  0.74182620326E+02  0.13589476600E+03  0.47000000000E+01 0.  1.
         11    1    4    4    0    0  0.34117662781E+02  0.68885792027E+01  0.55067632937E+02  0.65145311684E+02  0.00000000000E+00 0. -1.
        -12    1    4    4    0    0  0.19552167982E+02 -0.65396050058E+02  0.27935818901E+02  0.73751885492E+02  0.00000000000E+00 0.  1.
</event>
<event>
12    1  0.8226261E-002  0.2145906E+03  0.7818608E-02  0.1138534E+00
         21   -1    0    0  503  502  0.00000000000E+00  0.00000000000E+00  0.12719670988E+03  0.12719670988E+03  0.00000000000E+00 0.  1.
         21   -1    0    0  501  503 -0.00000000000E+00 -0.00000000000E+00 -0.38528681558E+03  0.38528681558E+03  0.00000000000E+00 0. -1.
          6    2    1    2  501    0 -0.74537316771E+02 -0.10350013359E+03 -0.19737784843E+03  0.28946985993E+03  0.16901684979E+03 0.  0.
         24    2    3    3    0    0 -0.94393172433E+02 -0.40336466750E+02 -0.17822308198E+03  0.22038368990E+03  0.79173242138E+02 0.  0.
         -6    2    1    2    0  502  0.74537316771E+02  0.10350013359E+03 -0.60712257270E+02  0.22301366553E+03  0.17257180415E+03 0.  0.
        -24    2    5    5    0    0  0.20040406103E+02  0.55703390670E+02 -0.98164751734E+02  0.14128716281E+03  0.82590909208E+02 0.  0.
          5    1    3    3  501    0  0.19855855663E+02 -0.63163666835E+02 -0.19154766450E+02  0.69086170034E+02  0.47000000000E+01 0. -1.
        -11    1    4    4    0    0 -0.62448164044E+02 -0.59498390407E+02 -0.90203194062E+02  0.12480564039E+03  0.00000000000E+00 0.  1.
         12    1    4    4    0    0 -0.31945008389E+02  0.19161923657E+02 -0.88019887915E+02  0.95578049508E+02  0.00000000000E+00 0. -1.
         -5    1    5    5    0  502  0.54496910668E+02  0.47796742915E+02  0.37452494463E+02  0.81726502722E+02  0.47000000000E+01 0.  1.
         13    1    6    6    0    0 -0.86444191570E+01 -0.35726008905E+01 -0.68373024411E+02  0.69009853838E+02  0.00000000000E+00 0. -1.
        -14    1    6    6    0    0  0.28684825260E+02  0.59275991561E+02 -0.29791727323E+02  0.72277308974E+02  0.00000000000E+00 0.  1.
</event>
<event>
12    1  0.8226261E-002  0.2731655E+03  0.7818608E-02  0.1099617E+00
         21   -1    0    0  503  502  0.00000000000E+00  0.00000000000E+00  0.24877952913E+03  0.24877952913E+03  0.00000000000E+00 0. -1.
         21   -1    0    0  501  503 -0.00000000000E+00 -0.00000000000E+00 -0.43401637885E+03  0.43401637885E+03  0.00000000000E+00 0. -1.
          6    2    1    2  501    0  0.21093976469E+03  0.21952883137E+02 -0.28322551614E+03  0.39349213284E+03  0.17216809290E+03 0.  0.
         24    2    3    3    0    0  0.59961316662E+02 -0.28111933827E+02 -0.62097795900E+02  0.12105767041E+03  0.80082351295E+02 0.  0.
         -6    2    1    2    0  502 -0.21093976469E+03 -0.21952883137E+02  0.97988666418E+02  0.28930377514E+03  0.17063816150E+03 0.  0.
        -24    2    5    5    0    0 -0.53471309094E+02  0.29301786309E+02  0.60763537171E+02  0.11950637853E+03  0.82896269418E+02 0.  0.
          5    1    3    3  501    0  0.15097844802E+03  0.50064816964E+02 -0.22112772024E+03  0.27243446244E+03  0.47000000000E+01 0. -1.
        -13    1    4    4    0    0 -0.15661778037E+02 -0.23355761365E+02 -0.15658327030E+02  0.32186427040E+02  0.00000000000E+00 0.  1.
         14    1    4    4    0    0  0.75623094699E+02 -0.47561724622E+01 -0.46439468869E+02  0.88871243365E+02  0.00000000000E+00 0. -1.
         -5    1    5    5    0  502 -0.15746845559E+03 -0.51254669446E+02  0.37225129247E+02  0.16979739661E+03  0.47000000000E+01 0.  1.
         13    1    6    6    0    0 -0.64039568450E+02  0.41308037963E+02  0.67828868591E+02  0.10202046727E+03  0.00000000000E+00 0. -1.
        -14    1    6    6    0    0  0.10568259357E+02 -0.12006251654E+02 -0.70653314202E+01  0.17485911263E+02  0.00000000000E+00 0.  1.
</event>
<event>
12    1  0.8226261E-002  0.2230760E+03  0.7818608E-02  0.1131975E+00
         21   -1    0    0  501  502  0.00000000000E+00  0.00000000000E+00  0.67411394798E+02  0.67411394798E+02  0.00000000000E+00 0.  1.
         21   -1    0    0  502  503 -0.00000000000E+00 -0.00000000000E+00 -0.82724025562E+03  0.82724025562E+03  0.00000000000E+00 0.  1.
         -6    2    1    2    0  503 -0.67121082896E+02 -0.12134631440E+03 -0.22935557719E+03  0.31994823726E+03  0.17473616098E+03 0.  0.
        -24    2    3    3    0    0 -0.22713096209E+02 -0.14756706360E+03 -0.19454055972E+03  0.25754813781E+03  0.78696193761E+02 0.  0.
          6    2    1    2  501    0  0.67121082896E+02  0.12134631440E+03 -0.53047328363E+03  0.57470341315E+03  0.17219738864E+03 0.  0.
         24    2    5    5    0    0  0.15980961415E+02  0.65483339294E+02 -0.11497468884E+03  0.15233253787E+03  0.73773736297E+02 0.  0.
          5    1    5    5  501    0  0.51140121482E+02  0.55862975102E+02 -0.41549859479E+03  0.42237087528E+03  0.47000000000E+01 0. -1.
        -11    1    6    6    0    0  0.42611506607E+01  0.70621384720E+02 -0.11940430060E+03  0.13879093769E+03  0.00000000000E+00 0.  1.
         12    1    6    6    0    0  0.11719810754E+02 -0.51380454253E+01  0.44296117613E+01  0.13541600174E+02  0.00000000000E+00 0. -1.
         -5    1    3    3    0  503 -0.44407986687E+02  0.26220749208E+02 -0.34815017469E+02  0.62400099455E+02  0.47000000000E+01 0.  1.
         11    1    4    4    0    0 -0.16874292109E+02 -0.48048838162E+01 -0.55396084039E+02  0.58108129978E+02  0.00000000000E+00 0. -1.
        -12    1    4    4    0    0 -0.58388041003E+01 -0.14276217979E+03 -0.13914447568E+03  0.19944000783E+03  0.00000000000E+00 0.  1.
</event>
<event>
12    1  0.8226261E-002  0.1834114E+03  0.7818608E-02  0.1165227E+00
         21   -1    0    0  503  502  0.00000000000E+00  0.00000000000E+00  0.12064563678E+04  0.12064563678E+04  0.00000000000E+00 0. -1.
         21   -1    0    0  501  503 -0.00000000000E+00 -0.00000000000E+00 -0.44886680657E+02  0.44886680657E+02  0.00000000000E+00 0. -1.
          6    2    1    2  501    0  0.40836054326E+02  0.30690931789E+02  0.18799605182E+03  0.26064361471E+03  0.17315617737E+03 0.  0.
         24    2    3    3    0    0 -0.37789992275E+02 -0.16737865193E+02  0.80039385327E+02  0.11883995528E+03  0.77513818895E+02 0.  0.
         -6    2    1    2    0  502 -0.40836054326E+02 -0.30690931789E+02  0.97357363531E+03  0.99069943373E+03  0.17615398946E+03 0.  0.
        -24    2    5    5    0    0 -0.32478576406E+02  0.34636231972E+02  0.79493913734E+03  0.80025295929E+03  0.78879910565E+02 0.  0.
          5    1    3    3  501    0  0.78626046602E+02  0.47428796982E+02  0.10795666649E+03  0.14180365943E+03  0.47000000000E+01 0. -1.
        -11    1    4    4    0    0 -0.46152859486E+02  0.58210632530E+01  0.82442413006E+02  0.94661093795E+02  0.00000000000E+00 0.  1.
         12    1    4    4    0    0  0.83628672110E+01 -0.22558928446E+02 -0.24030276791E+01  0.24178861484E+02  0.00000000000E+00 0. -1.
         -5    1    5    5    0  502 -0.83574779209E+01 -0.65327163761E+02  0.17863449797E+03  0.19044647444E+03  0.47000000000E+01 0.  1.
         13    1    6    6    0    0  0.18254382691E+02  0.88973345336E+01  0.46515460187E+03  0.46559766827E+03  0.00000000000E+00 0. -1.
        -14    1    6    6    0    0 -0.50732959097E+02  0.25738897438E+02  0.32978453546E+03  0.33465529102E+03  0.00000000000E+00 0.  1.
</event>
<event>
12    1  0.8226261E-002  0.1835310E+03  0.7818608E-02  0.1165001E+00
         21   -1    0    0  501  502  0.00000000000E+00  0.00000000000E+00  0.56147200871E+03  0.56147200871E+03  0.00000000000E+00 0.  1.
         21   -1    0    0  502  503 -0.00000000000E+00 -0.00000000000E+00 -0.25181694383E+03  0.25181694383E+03  0.00000000000E+00 0.  1.
         -6    2    1    2    0  503  0.58909557486E+02  0.21704521966E+01 -0.20105127894E+03  0.27060618523E+03  0.17126308387E+03 0.  0.
        -24    2    3    3    0    0  0.85355177320E+02  0.13408459622E+02 -0.70863688154E+02  0.13720242811E+03  0.79608736311E+02 0.  0.
          6    2    1    2  501    0 -0.58909557486E+02 -0.21704521966E+01  0.51070634382E+03  0.54268276731E+03  0.17380612614E+03 0.  0.
         24    2    5    5    0    0 -0.19188555439E+02 -0.14787304149E+02  0.10006361919E+03  0.12990379467E+03  0.79217441012E+02 0.  0.
          5    1    5    5  501    0 -0.39721002047E+02  0.12616851953E+02  0.41064272464E+03  0.41277897264E+03  0.47000000000E+01 0. -1.
        -13    1    6    6    0    0 -0.10947803866E+00 -0.46128936511E+02  0.54398000840E+02  0.71323441199E+02  0.00000000000E+00 0.  1.
         14    1    6    6    0    0 -0.19079077401E+02  0.31341632362E+02  0.45665618349E+02  0.58580353470E+02  0.00000000000E+00 0. -1.
         -5    1    3    3    0  503 -0.26445619834E+02 -0.11238007426E+02 -0.13018759078E+03  0.13340375712E+03  0.47000000000E+01 0.  1.
         13    1    4    4    0    0  0.71608854917E+02  0.42861186822E+02 -0.60531914725E+02  0.10309714903E+03  0.00000000000E+00 0. -1.
        -14    1    4    4    0    0  0.13746322403E+02 -0.29452727199E+02 -0.10331773429E+02  0.34105279082E+02  0.00000000000E+00 0.  1.
</event>
<event>
12    1  0.8226261E-002  0.1782936E+03  0.7818608E-02  0.1169617E+00
         21   -1    0    0  503  502  0.00000000000E+00  0.00000000000E+00  0.18086952289E+03  0.18086952289E+03  0.00000000000E+00 0.  1.
         21   -1    0    0  501  503 -0.00000000000E+00 -0.00000000000E+00 -0.51688711854E+03  0.51688711854E+03  0.00000000000E+00 0. -1.
          6    2    1    2  501    0 -0.90478746507E+01 -0.42808358760E+02 -0.45158793423E+03  0.48528284661E+03  0.17220150771E+03 0.  0.
         24    2    3    3    0    0 -0.50614083308E+02 -0.79151346305E+02 -0.32078342923E+03  0.34322486206E+03  0.77939569013E+02 0.  0.
         -6    2    1    2    0  502  0.90478746507E+01  0.42808358760E+02  0.11557033858E+03  0.21247379482E+03  0.17284151906E+03 0.  0.
        -24    2    5    5    0    0 -0.79959631409E+01 -0.28173454407E+02  0.11475908049E+02  0.85247026116E+02  0.79231812023E+02 0.  0.
          5    1    3    3  501    0  0.41566208657E+02  0.36342987545E+02 -0.13080450500E+03  0.14205798455E+03  0.47000000000E+01 0. -1.
        -11    1    4    4    0    0  0.43279158051E+01 -0.41375673274E+02 -0.53613646516E+02  0.67860889229E+02  0.00000000000E+00 0.  1.
         12    1    4    4    0    0 -0.54941999113E+02 -0.37775673031E+02 -0.26716978271E+03  0.27536397283E+03  0.00000000000E+00 0. -1.
         -5    1    5    5    0  502  0.17043837792E+02  0.70981813167E+02  0.10409443053E+03  0.12722676870E+03  0.47000000000E+01 0.  1.
         11    1    6    6    0    0 -0.32361546724E+02  0.84615664456E+01 -0.11802464752E+02  0.35470635564E+02  0.00000000000E+00 0. -1.
        -12    1    6    6    0    0  0.24365583583E+02 -0.36635020852E+02  0.23278372801E+02  0.49776390553E+02  0.00000000000E+00 0.  1.
</event>
<event>
12    1  0.8226261E-002  0.1844187E+03  0.7818608E-02  0.1164717E+00
         21   -1    0    0  501  502  0.00000000000E+00  0.00000000000E+00  0.69169703169E+02  0.69169703169E+02  0.00000000000E+00 0.  1.
         21   -1    0    0  502  503 -0.00000000000E+00 -0.00000000000E+00 -0.56910110108E+03  0.56910110108E+03  0.00000000000E+00 0.  1.
         -6    2    1    2    0  503 -0.50311745791E+02  0.11747992423E+02 -0.37955064114E+03  0.42198214379E+03  0.17703376344E+03 0.  0.
        -24    2    3    3    0    0 -0.87910967097E+02 -0.37157064524E+02 -0.25120832288E+03  0.27950671891E+03  0.76872614450E+02 0.  0.
          6    2    1    2  501    0  0.50311745791E+02 -0.11747992423E+02 -0.12038075678E+03  0.21628866046E+03  0.17210453496E+03 0.  0.
         24    2    5    5    0    0 -0.10774822142E+02 -0.80250151486E+01 -0.13107301830E+03  0.15398421601E+03  0.79690055801E+02 0.  0.
          5    1    5    5  501    0  0.61086567933E+02 -0.37229772749E+01  0.10692261529E+02  0.62304444450E+02  0.47000000000E+01 0. -1.
        -13    1    6    6    0    0 -0.83645629167E+01 -0.27111744914E+02 -0.80872118535E+01  0.29502806996E+02  0.00000000000E+00 0.  1.
         14    1    6    6    0    0 -0.24102592250E+01  0.19086729765E+02 -0.12298580645E+03  0.12448140902E+03  0.00000000000E+00 0. -1.
         -5    1    3    3    0  503  0.37599221306E+02  0.48905056947E+02 -0.12834231826E+03  0.14247542488E+03  0.47000000000E+01 0.  1.
         13    1    4    4    0    0 -0.85419742023E+02 -0.26419452598E+00 -0.18159491364E+03  0.20068212373E+03  0.00000000000E+00 0. -1.
        -14    1    4    4    0    0 -0.24912250748E+01 -0.36892869998E+02 -0.69613409237E+02  0.78824595176E+02  0.00000000000E+00 0.  1.
</event>
<event>
12    1  0.8226261E-002  0.1865268E+03  0.7818608E-02  0.1162237E+00
         21   -1    0    0  501  502  0.00000000000E+00  0.00000000000E+00  0.12550286605E+03  0.12550286605E+03  0.00000000000E+00 0. -1.
         21   -1    0    0  502  503 -0.00000000000E+00 -0.00000000000E+00 -0.28150080980E+03  0.28150080980E+03  0.00000000000E+00 0. -1.
         -6    2    1    2    0  503  0.15142413435E+02  0.65273080223E+02 -0.43944044343E+02  0.19163330607E+03  0.17407578027E+03 0.  0.
        -24    2    3    3    0    0  0.60895110721E+02  0.36952571082E+02 -0.74047926627E+02  0.12979727875E+03  0.79312868522E+02 0.  0.
          6    2    1    2  501    0 -0.15142413435E+02 -0.65273080223E+02 -0.11205389941E+03  0.21537036977E+03  0.17128471069E+03 0.  0.
         24    2    5    5    0    0  0.41756307879E+02 -0.36094214774E+02 -0.20077358880E+02  0.10325148339E+03  0.84919885154E+02 0.  0.
          5    1    5    5  501    0 -0.56898721314E+02 -0.29178865448E+02 -0.91976540529E+02  0.11211888638E+03  0.47000000000E+01 0. -1.
        -13    1    6    6    0    0  0.21658929340E+02  0.26966580374E+02 -0.11824673696E+02  0.36553092691E+02  0.00000000000E+00 0.  1.
         14    1    6    6    0    0  0.20097378539E+02 -0.63060795149E+02 -0.82526851842E+01  0.66698390698E+02  0.00000000000E+00 0. -1.
         -5    1    3    3    0  503 -0.45752697286E+02  0.28320509140E+02  0.30103882284E+02  0.61836027327E+02  0.47000000000E+01 0.  1.
         11    1    4    4    0    0  0.54853703812E+02  0.99835841892E+01 -0.56665721177E+01  0.56042045062E+02  0.00000000000E+00 0. -1.
        -12    1    4    4    0    0  0.60414069092E+01  0.26968986893E+02 -0.68381354509E+02  0.73755233685E+02  0.00000000000E+00 0.  1.
</event>
<event>
12    1  0.8226261E-002  0.1846810E+03  0.7818608E-02  0.1163425E+00
         21   -1    0    0  501  502  0.00000000000E+00  0.00000000000E+00  0.21027281095E+03  0.21027281095E+03  0.00000000000E+00 0.  1.
         21   -1    0    0  502  503 -0.00000000000E+00 -0.00000000000E+00 -0.39376229948E+03  0.39376229948E+03  0.00000000000E+00 0.  1.
         -6    2    1    2    0  503  0.53166760109E+02 -0.42367770960E+02 -0.32352521448E+03  0.37252601369E+03  0.17171294091E+03 0.  0.
        -24    2    3    3    0    0  0.91722982045E+02 -0.66159371995E+02 -0.22866786819E+03  0.26729945490E+03  0.79811256786E+02 0.  0.
          6    2    1    2  501    0 -0.53166760109E+02  0.42367770960E+02  0.14003572595E+03  0.23150909674E+03  0.17136138693E+03 0.  0.
         24    2    5    5    0    0  0.32001308374E+02 -0.71028972291E+01  0.74044811908E+02  0.11285903295E+03  0.78612926808E+02 0.  0.
          5    1    5    5  501    0 -0.85168068482E+02  0.49470668189E+02  0.65990914046E+02  0.11865006379E+03  0.47000000000E+01 0. -1.
        -13    1    6    6    0    0  0.54658691872E+01  0.62340518782E+01  0.81756317490E+02  0.82175632509E+02  0.00000000000E+00 0.  1.
         14    1    6    6    0    0  0.26535439186E+02 -0.13336949107E+02 -0.77115055815E+01  0.30683400441E+02  0.00000000000E+00 0. -1.
         -5    1    3    3    0  503 -0.38556221937E+02  0.23791601034E+02 -0.94857346292E+02  0.10522655879E+03  0.47000000000E+01 0.  1.
         11    1    4    4    0    0  0.85951191019E+02 -0.63530363323E+02 -0.12941889726E+03  0.16784804220E+03  0.00000000000E+00 0. -1.
        -12    1    4    4    0    0  0.57717910268E+01 -0.26290086711E+01 -0.99248970926E+02  0.99451412701E+02  0.00000000000E+00 0.  1.
</event>
<event>
12    1  0.8226261E-002  0.2090065E+03  0.7818608E-02  0.1143000E+00
         21   -1    0    0  501  502  0.00000000000E+00  0.00000000000E+00  0.44340431231E+03  0.44340431231E+03  0.00000000000E+00 0.  1.
         21   -1    0    0  502  503 -0.00000000000E+00 -0.00000000000E+00 -0.10335801431E+03  0.10335801431E+03  0.00000000000E+00 0.  1.
         -6    2    1    2    0  503  0.71917120682E+02  0.90518402740E+02  0.23653245723E+03  0.31352679694E+03  0.17025215299E+03 0.  0.
        -24    2    3    3    0    0  0.50044405864E+02  0.10529167399E+02  0.46206896333E+02  0.10586697282E+03  0.80358152923E+02 0.  0.
          6    2    1    2  501    0 -0.71917120682E+02 -0.90518402740E+02  0.10351384077E+03  0.23323552968E+03  0.17412077300E+03 0.  0.
         24    2    5    5    0    0  0.20816023792E+01 -0.88002531243E+02  0.10664519682E+03  0.15897897431E+03  0.78436838893E+02 0.  0.
          5    1    5    5  501    0 -0.73998723061E+02 -0.25158714966E+01 -0.31313560488E+01  0.74256555365E+02  0.47000000000E+01 0. -1.
        -11    1    6    6    0    0 -0.37860944690E+02 -0.43183683932E+02  0.58992042167E+02  0.82330691300E+02  0.00000000000E+00 0.  1.
         12    1    6    6    0    0  0.39942547070E+02 -0.44818847311E+02  0.47653154651E+02  0.76648283013E+02  0.00000000000E+00 0. -1.
         -5    1    3    3    0  503  0.21872714818E+02  0.79989235341E+02  0.19032556090E+03  0.20765982412E+03  0.47000000000E+01 0.  1.
         11    1    4    4    0    0 -0.16062120442E+02 -0.57903221450E+01 -0.79794566710E+01  0.18846518840E+02  0.00000000000E+00 0. -1.
        -12    1    4    4    0    0  0.66106526306E+02  0.16319489544E+02  0.54186353004E+02  0.87020453981E+02  0.00000000000E+00 0.  1.
</event>
<event>
12    1  0.8226261E-002  0.2277612E+03  0.7818608E-02  0.1128984E+00
         21   -1    0    0  503  502  0.00000000000E+00  0.00000000000E+00  0.21204475193E+03  0.21204475193E+03  0.00000000000E+00 0. -1.
         21   -1    0    0  501  503 -0.00000000000E+00 -0.00000000000E+00 -0.27830757078E+03  0.27830757078E+03  0.00000000000E+00 0.  1.
          6    2    1    2  501    0  0.14572455048E+03  0.35589657430E+02 -0.12366118240E+03  0.25546988899E+03  0.16574229339E+03 0.  0.
         24    2    3    3    0    0  0.51650862328E+02 -0.71202432131E+01 -0.11947099427E+03  0.15196316413E+03  0.78108740463E+02 0.  0.
         -6    2    1    2    0  502 -0.14572455048E+03 -0.35589657430E+02  0.57398363558E+02  0.23488243372E+03  0.17138528875E+03 0.  0.
        -24    2    5    5    0    0 -0.49190412776E+02 -0.76627927619E+02  0.21241983164E+02  0.12383130493E+03  0.81187648266E+02 0.  0.
          5    1    3    3  501    0  0.94073688151E+02  0.42709900643E+02 -0.41901881319E+01  0.10350672486E+03  0.47000000000E+01 0. -1.
        -13    1    4    4    0    0  0.48630155424E+02  0.27046736132E+02 -0.51462428709E+02  0.75794455738E+02  0.00000000000E+00 0.  1.
         14    1    4    4    0    0  0.30207069037E+01 -0.34166979345E+02 -0.68008565563E+02  0.76168708389E+02  0.00000000000E+00 0. -1.
         -5    1    5    5    0  502 -0.96534137703E+02  0.41038270189E+02  0.36156380394E+02  0.11105112879E+03  0.47000000000E+01 0.  1.
         11    1    6    6    0    0  0.10935228190E+01  0.12243753323E+02 -0.11262339970E+02  0.16671700249E+02  0.00000000000E+00 0. -1.
        -12    1    6    6    0    0 -0.50283935595E+02 -0.88871680942E+02  0.32504323134E+02  0.10715960468E+03  0.00000000000E+00 0.  1.
</event>
<event>
12    1  0.8226261E-002  0.5507102E+03  0.7818608E-02  0.1001359E+00
         21   -1    0    0  503  502  0.00000000000E+00  0.00000000000E+00  0.48222780184E+03  0.48222780184E+03  0.00000000000E+00 0.  1.
         21   -1    0    0  501  503 -0.00000000000E+00 -0.00000000000E+00 -0.72237642272E+03  0.72237642272E+03  0.00000000000E+00 0. -1.
          6    2    1    2  501    0  0.35767415716E+03 -0.38118015349E+03 -0.33743358725E+03  0.64586617847E+03  0.17335680714E+03 0.  0.
         24    2    3    3    0    0  0.25868996626E+03 -0.35728127383E+03 -0.28606467811E+03  0.53171767290E+03  0.79500165683E+02 0.  0.
         -6    2    1    2    0  502 -0.35767415716E+03  0.38118015349E+03  0.97284966370E+02  0.55873804609E+03  0.17174029041E+03 0.  0.
        -24    2    5    5    0    0 -0.13636087590E+03  0.23252885642E+03  0.89353373543E+02  0.29197639828E+03  0.67839768857E+02 0.  0.
          5    1    3    3  501    0  0.98984190904E+02 -0.23898879655E+02 -0.51368909139E+02  0.11414850557E+03  0.47000000000E+01 0. -1.
        -13    1    4    4    0    0  0.20346241272E+02 -0.47153656465E+01 -0.42989771002E+01  0.21323353657E+02  0.00000000000E+00 0.  1.
         14    1    4    4    0    0  0.23834372498E+03 -0.35256590819E+03 -0.28176570101E+03  0.51039431925E+03  0.00000000000E+00 0. -1.
         -5    1    5    5    0  502 -0.22131328126E+03  0.14865129706E+03  0.79315928269E+01  0.26676164781E+03  0.47000000000E+01 0.  1.
         13    1    6    6    0    0 -0.16917161816E+02  0.19205883556E+02 -0.10789774424E+02  0.27775448856E+02  0.00000000000E+00 0. -1.
        -14    1    6    6    0    0 -0.11944371409E+03  0.21332297287E+03  0.10014314797E+03  0.26420094942E+03  0.00000000000E+00 0.  1.
</event>
<event>
12    1  0.8226261E-002  0.2023936E+03  0.7818608E-02  0.1148410E+00
         21   -1    0    0  503  502  0.00000000000E+00  0.00000000000E+00  0.14125828980E+03  0.14125828980E+03  0.00000000000E+00 0.  1.
         21   -1    0    0  501  503 -0.00000000000E+00 -0.00000000000E+00 -0.34984818722E+03  0.34984818722E+03  0.00000000000E+00 0.  1.
          6    2    1    2  501    0  0.92667071395E+02 -0.39468088319E+02 -0.21037870810E+03  0.29192868152E+03  0.17555124083E+03 0.  0.
         24    2    3    3    0    0  0.69107575124E+02  0.44290728647E+02 -0.10644669258E+03  0.15630219763E+03  0.79761852022E+02 0.  0.
         -6    2    1    2    0  502 -0.92667071395E+02  0.39468088319E+02  0.17888106828E+01  0.19917779549E+03  0.17182455662E+03 0.  0.
        -24    2    5    5    0    0 -0.10590054505E+03 -0.14012438279E+02 -0.28489429681E+02  0.13613690884E+03  0.79437626326E+02 0.  0.
          5    1    3    3  501    0  0.23559496270E+02 -0.83758816966E+02 -0.10393201552E+03  0.13562648390E+03  0.47000000000E+01 0. -1.
        -13    1    4    4    0    0  0.39834851020E+02  0.61527031922E+02 -0.95958911127E+02  0.12074975626E+03  0.00000000000E+00 0.  1.
         14    1    4    4    0    0  0.29272724105E+02 -0.17236303275E+02 -0.10487781453E+02  0.35552441363E+02  0.00000000000E+00 0. -1.
         -5    1    5    5    0  502  0.13233473657E+02  0.53480526598E+02  0.30278240363E+02  0.63040886651E+02  0.47000000000E+01 0.  1.
         11    1    6    6    0    0 -0.26429604184E+02  0.15168807677E+02 -0.40442517049E+02  0.50638067587E+02  0.00000000000E+00 0. -1.
        -12    1    6    6    0    0 -0.79470940868E+02 -0.29181245957E+02  0.11953087368E+02  0.85498841254E+02  0.00000000000E+00 0.  1.
</event>
<event>
12    1  0.8226261E-002  0.1829487E+03  0.7818608E-02  0.1165852E+00
         21   -1    0    0  501  502  0.00000000000E+00  0.00000000000E+00  0.39755436547E+03  0.39755436547E+03  0.00000000000E+00 0.  1.
         21   -1    0    0  502  503 -0.00000000000E+00 -0.00000000000E+00 -0.10382626888E+03  0.10382626888E+03  0.00000000000E+00 0.  1.
         -6    2    1    2    0  503 -0.47637651833E+02  0.68975625501E+01  0.32137910637E+02  0.18216339473E+03  0.17272444772E+03 0.  0.
        -24    2    3    3    0    0 -0.53529195282E+01  0.15215323265E+02  0.83417547438E+02  0.11501523854E+03  0.77523274353E+02 0.  0.
          6    2    1    2  501    0  0.47637651833E+02 -0.68975625501E+01  0.26159018595E+03  0.31921723961E+03  0.17650297005E+03 0.  0.
         24    2    5    5    0    0 -0.47472942297E+02 -0.46715683665E+01  0.89325792249E+02  0.12237189041E+03  0.68704283703E+02 0.  0.
          5    1    5    5  501    0  0.95110594129E+02 -0.22259941836E+01  0.17226439371E+03  0.19684534921E+03  0.47000000000E+01 0. -1.
        -11    1    6    6    0    0 -0.80540888391E+01  0.38790844002E+01  0.80611537974E+02  0.81105706935E+02  0.00000000000E+00 0.  1.
         12    1    6    6    0    0 -0.39418853458E+02 -0.85506527667E+01  0.87142542749E+01  0.41266183471E+02  0.00000000000E+00 0. -1.
         -5    1    3    3    0  503 -0.42284732304E+02 -0.83177607151E+01 -0.51279636801E+02  0.67148156191E+02  0.47000000000E+01 0.  1.
         11    1    4    4    0    0  0.26805963139E+02  0.28587169157E+00  0.28095835028E+01  0.26954315831E+02  0.00000000000E+00 0. -1.
        -12    1    4    4    0    0 -0.32158882667E+02  0.14929451574E+02  0.80607963935E+02  0.88060922709E+02  0.00000000000E+00 0.  1.
</event>
<event>
12    1  0.8226261E-002  0.1951085E+03  0.7818608E-02  0.1154392E+00
         21   -1    0    0  501  502  0.00000000000E+00  0.00000000000E+00  0.32197480321E+03  0.32197480321E+03  0.00000000000E+00 0.  1.
         21   -1    0    0  502  503 -0.00000000000E+00 -0.00000000000E+00 -0.13361777264E+03  0.13361777264E+03  0.00000000000E+00 0.  1.
         -6    2    1    2    0  503 -0.38256323028E+02  0.80451463997E+02  0.13309810540E+02  0.19346879691E+03  0.17122219486E+03 0.  0.
        -24    2    3    3    0    0  0.30727829632E+02  0.26629996896E+02  0.45933056944E+02  0.99970508986E+02  0.78936054489E+02 0.  0.
          6    2    1    2  501    0  0.38256323028E+02 -0.80451463997E+02  0.17504722003E+03  0.26212377894E+03  0.17358387580E+03 0.  0.
         24    2    5    5    0    0  0.60449686060E+02  0.81471247422E+01  0.11731587443E+03  0.15396993688E+03  0.78887178189E+02 0.  0.
          5    1    5    5  501    0 -0.22193363032E+02 -0.88598588739E+02  0.57731345599E+02  0.10815384207E+03  0.47000000000E+01 0. -1.
        -13    1    6    6    0    0  0.31038904944E+02 -0.26840488714E+02  0.94201248143E+02  0.10275067205E+03  0.00000000000E+00 0.  1.
         14    1    6    6    0    0  0.29410781116E+02  0.34987613457E+02  0.23114626283E+02  0.51219264827E+02  0.00000000000E+00 0. -1.
         -5    1    3    3    0  503 -0.68984152660E+02  0.53821467101E+02 -0.32623246404E+02  0.93498287926E+02  0.47000000000E+01 0.  1.
         11    1    4    4    0    0  0.49141321196E+02  0.23379502503E+02  0.46104332993E+01  0.54614345015E+02  0.00000000000E+00 0. -1.
        -12    1    4    4    0    0 -0.18413491564E+02  0.32504943927E+01  0.41322623644E+02  0.45356163972E+02  0.00000000000E+00 0.  1.
</event>
<event>
12    1  0.8226261E-002  0.2909009E+03  0.7818608E-02  0.1090696E+00
         21   -1    0    0  503  502  0.00000000000E+00  0.00000000000E+00  0.36966696066E+03  0.36966696066E+03  0.00000000000E+00 0. -1.
         21   -1    0    0  501  503 -0.00000000000E+00 -0.00000000000E+00 -0.24175742875E+03  0.24175742875E+03  0.00000000000E+00 0. -1.
          6    2    1    2  501    0 -0.23339983890E+03 -0.25908291566E+02 -0.18119948534E+02  0.29146473319E+03  0.17168760523E+03 0.  0.
         24    2    3    3    0    0 -0.19939982867E+03  0.34069353334E+02  0.87778152414E+01  0.21731017649E+03  0.78902789918E+02 0.  0.
         -6    2    1    2    0  502  0.23339983890E+03  0.25908291566E+02  0.14602948045E+03  0.31995965622E+03  0.16094361769E+03 0.  0.
        -24    2    5    5    0    0  0.12276672269E+03  0.67138084982E+02  0.56279902968E+02  0.17157953987E+03  0.81810270571E+02 0.  0.
          5    1    3    3  501    0 -0.34000010230E+02 -0.59977644900E+02 -0.26897763776E+02  0.74154556701E+02  0.47000000000E+01 0. -1.
        -13    1    4    4    0    0 -0.85837901538E+02 -0.11687590118E+02 -0.25251912425E+02  0.90235271287E+02  0.00000000000E+00 0.  1.
         14    1    4    4    0    0 -0.11356192713E+03  0.45756943452E+02  0.34029727666E+02  0.12707490520E+03  0.00000000000E+00 0. -1.
         -5    1    5    5    0  502  0.11063311621E+03 -0.41229793416E+02  0.89749577483E+02  0.14838011634E+03  0.47000000000E+01 0.  1.
         13    1    6    6    0    0  0.71527361651E+02  0.75126519460E+01 -0.47155247130E+01  0.72075235534E+02  0.00000000000E+00 0. -1.
        -14    1    6    6    0    0  0.51239361035E+02  0.59625433036E+02  0.60995427681E+02  0.99504304339E+02  0.00000000000E+00 0.  1.
</event>
<event>
12    1  0.8226261E-002  0.1823019E+03  0.7818608E-02  0.1166330E+00
         21   -1    0    0  501  502  0.00000000000E+00  0.00000000000E+00  0.10682554562E+03  0.10682554562E+03  0.00000000000E+00 0.  1.
         21   -1    0    0  502  503 -0.00000000000E+00 -0.00000000000E+00 -0.50715022538E+03  0.50715022538E+03  0.00000000000E+00 0.  1.
         -6    2    1    2    0  503 -0.28733054987E+02  0.35160764191E+02 -0.39252036682E+03  0.43150687029E+03  0.17338994478E+03 0.  0.
        -24    2    3    3    0    0  0.37159152640E+02  0.22434516782E+02 -0.11941706065E+03  0.15023965528E+03  0.80171126196E+02 0.  0.
          6    2    1    2  501    0  0.28733054987E+02 -0.35160764191E+02 -0.78043129427E+01  0.18246890071E+03  0.17655629312E+03 0.  0.
         24    2    5    5    0    0  0.63504518269E+02 -0.70229138004E+02  0.22544375253E+02  0.12431412123E+03  0.77335607694E+02 0.  0.
          5    1    5    5  501    0 -0.34771463282E+02  0.35068373814E+02 -0.30348688196E+02  0.58154779476E+02  0.47000000000E+01 0. -1.
        -13    1    6    6    0    0  0.34505766604E+02  0.71466457899E+01  0.22264131956E+02  0.41682298962E+02  0.00000000000E+00 0.  1.
         14    1    6    6    0    0  0.28998751665E+02 -0.77375783794E+02  0.28024329755E+00  0.82631822273E+02  0.00000000000E+00 0. -1.
         -5    1    3    3    0  503 -0.65892207627E+02  0.12726247409E+02 -0.27310330617E+03  0.28126721501E+03  0.47000000000E+01 0.  1.
         13    1    4    4    0    0  0.21083148138E+02  0.47809952895E+02 -0.10419728720E+03  0.11656485487E+03  0.00000000000E+00 0. -1.
        -14    1    4    4    0    0  0.16076004502E+02 -0.25375436113E+02 -0.15219773453E+02  0.33674800410E+02  0.00000000000E+00 0.  1.
</event>
<event>
12    1  0.8226261E-002  0.2654745E+03  0.7818608E-02  0.1103936E+00
         21   -1    0    0  501  502  0.00000000000E+00  0.00000000000E+00  0.12563679634E+03  0.12563679634E+03  0.00000000000E+00 0. -1.
         21   -1    0    0  502  503 -0.00000000000E+00 -0.00000000000E+00 -0.56795789886E+03  0.56795789886E+03  0.00000000000E+00 0.  1.
         -6    2    1    2    0  503  0.13172638342E+03  0.15290677732E+03 -0.26105727410E+03  0.37213970428E+03  0.17206026998E+03 0.  0.
        -24    2    3    3    0    0  0.50904114546E+02  0.18344824678E+02 -0.15650312551E+03  0.18347911425E+03  0.79016426149E+02 0.  0.
          6    2    1    2  501    0 -0.13172638342E+03 -0.15290677732E+03 -0.18126382842E+03  0.32145499092E+03  0.17246568660E+03 0.  0.
         24    2    5    5    0    0 -0.12612302615E+03 -0.10204233270E+03 -0.57563874597E+02  0.18750590389E+03  0.74331749254E+02 0.  0.
          5    1    5    5  501    0 -0.56033572658E+01 -0.50864444615E+02 -0.12369995383E+03  0.13394908703E+03  0.47000000000E+01 0. -1.
        -13    1    6    6    0    0 -0.97298060972E+02 -0.54778773252E+02 -0.68611978569E+02  0.13105430276E+03  0.00000000000E+00 0.  1.
         14    1    6    6    0    0 -0.28824965178E+02 -0.47263559449E+02  0.11048103972E+02  0.56451601135E+02  0.00000000000E+00 0. -1.
         -5    1    3    3    0  503  0.80822268870E+02  0.13456195264E+03 -0.10455414858E+03  0.18866059003E+03  0.47000000000E+01 0.  1.
         11    1    4    4    0    0  0.54079628287E+02 -0.64064120725E+01 -0.49460317893E+02  0.73566101959E+02  0.00000000000E+00 0. -1.
        -12    1    4    4    0    0 -0.31755137417E+01  0.24751236750E+02 -0.10704280762E+03  0.10991301229E+03  0.00000000000E+00 0.  1.
</event>
<event>
12    1  0.8226261E-002  0.1845103E+03  0.7818608E-02  0.1163680E+00
         21   -1    0    0  501  502  0.00000000000E+00  0.00000000000E+00  0.37689287852E+03  0.37689287852E+03  0.00000000000E+00 0. -1.
         21   -1    0    0  502  503 -0.00000000000E+00 -0.00000000000E+00 -0.91130002621E+02  0.91130002621E+02  0.00000000000E+00 0.  1.
         -6    2    1    2    0  503  0.60399201928E+02 -0.27883470148E+02  0.11619790693E+03  0.21743089087E+03  0.17131458557E+03 0.  0.
        -24    2    3    3    0    0 -0.27815429159E+02  0.82086113495E+01  0.66193529043E+02  0.10969516192E+03  0.82524940851E+02 0.  0.
          6    2    1    2  501    0 -0.60399201928E+02  0.27883470148E+02  0.16956496897E+03  0.25059199027E+03  0.17210030617E+03 0.  0.
         24    2    5    5    0    0  0.30182703751E+02  0.66050155540E+01  0.11248328001E+03  0.14132962950E+03  0.79793195553E+02 0.  0.
          5    1    5    5  501    0 -0.90581905679E+02  0.21278454594E+02  0.57081688964E+02  0.10926236077E+03  0.47000000000E+01 0. -1.
        -11    1    6    6    0    0  0.26413921150E+02 -0.11179397868E+02  0.13444557706E+01  0.28713789867E+02  0.00000000000E+00 0.  1.
         12    1    6    6    0    0  0.37687826008E+01  0.17784413422E+02  0.11113882423E+03  0.11261583963E+03  0.00000000000E+00 0. -1.
         -5    1    3    3    0  503  0.88214631088E+02 -0.36092081498E+02  0.50004377887E+02  0.10773572895E+03  0.47000000000E+01 0.  1.
         11    1    4    4    0    0 -0.11784280905E+02  0.36945156486E+02  0.66278103922E+02  0.76789328190E+02  0.00000000000E+00 0. -1.
        -12    1    4    4    0    0 -0.16031148254E+02 -0.28736545137E+02 -0.84574879866E-01  0.32905833733E+02  0.00000000000E+00 0.  1.
</event>
<event>
12    1  0.8226261E-002  0.1716449E+03  0.7818608E-02  0.1176464E+00
         21   -1    0    0  501  502  0.00000000000E+00  0.00000000000E+00  0.28356572768E+03  0.28356572768E+03  0.00000000000E+00 0.  1.
         21   -1    0    0  502  503 -0.00000000000E+00 -0.00000000000E+00 -0.12599038227E+03  0.12599038227E+03  0.00000000000E+00 0.  1.
         -6    2    1    2    0  503 -0.30520538142E+01  0.10263104124E+02 -0.86387460615E+01  0.17062284700E+03  0.17006728564E+03 0.  0.
        -24    2    3    3    0    0 -0.29107793549E+02 -0.40882503158E+02  0.32909919953E+02  0.99607662953E+02  0.79498308019E+02 0.  0.
          6    2    1    2  501    0  0.30520538142E+01 -0.10263104124E+02  0.16621409148E+03  0.23893326295E+03  0.17131063481E+03 0.  0.
         24    2    5    5    0    0  0.77939396519E+01  0.60279238278E+02  0.10755769114E+03  0.14694755290E+03  0.79565031998E+02 0.  0.
          5    1    5    5  501    0 -0.47418858377E+01 -0.70542342402E+02  0.58656400344E+02  0.91985710055E+02  0.47000000000E+01 0. -1.
        -11    1    6    6    0    0 -0.34563386108E+02  0.16163170383E+02  0.32445918162E+02  0.50086059353E+02  0.00000000000E+00 0.  1.
         12    1    6    6    0    0  0.42357325760E+02  0.44116067895E+02  0.75111772973E+02  0.96861493542E+02  0.00000000000E+00 0. -1.
         -5    1    3    3    0  503  0.26055739735E+02  0.51145607282E+02 -0.41548666015E+02  0.71015184045E+02  0.47000000000E+01 0.  1.
         11    1    4    4    0    0  0.23748458625E+01 -0.53915584396E+02  0.36788314131E+02  0.65313935651E+02  0.00000000000E+00 0. -1.
        -12    1    4    4    0    0 -0.31482639411E+02  0.13033081238E+02 -0.38783941776E+01  0.34293727302E+02  0.00000000000E+00 0.  1.
</event>
<event>
12    1  0.8226261E-002  0.2317322E+03  0.7818608E-02  0.1125731E+00
         21   -1    0    0  501  502  0.00000000000E+00  0.00000000000E+00  0.68818451110E+03  0.68818451110E+03  0.00000000000E+00 0.  1.
         21   -1    0    0  502  503 -0.00000000000E+00 -0.00000000000E+00 -0.90893635603E+02  0.90893635603E+02  0.00000000000E+00 0. -1.
         -6    2    1    2    0  503  0.82716163256E+02 -0.12836344477E+03  0.14785276609E+03  0.27341577619E+03  0.17197851207E+03 0.  0.
        -24    2    3    3    0    0  0.27991657617E+02 -0.13858663873E+03  0.69431679449E+02  0.17712848709E+03  0.81018229420E+02 0.  0.
          6    2    1    2  501    0 -0.82716163256E+02  0.12836344477E+03  0.44943810941E+03  0.50566237051E+03  0.17430054833E+03 0.  0.
         24    2    5    5    0    0 -0.24734594131E+02  0.16502450507E+02  0.29113939126E+03  0.30328816622E+03  0.79608012199E+02 0.  0.
          5    1    5    5  501    0 -0.57981569125E+02  0.11186099426E+03  0.15829871815E+03  0.20237420429E+03  0.47000000000E+01 0. -1.
        -13    1    6    6    0    0 -0.38777405057E+02  0.15338394305E+02  0.28480016084E+03  0.28783690712E+03  0.00000000000E+00 0.  1.
         14    1    6    6    0    0  0.14042810926E+02  0.11640562021E+01  0.63392304156E+01  0.15451259101E+02  0.00000000000E+00 0. -1.
         -5    1    3    3    0  503  0.54724505639E+02  0.10223193959E+02  0.78421086640E+02  0.96287289099E+02  0.47000000000E+01 0.  1.
         11    1    4    4    0    0  0.50439183143E+02 -0.58926518129E+02  0.49450958833E+02  0.91988276778E+02  0.00000000000E+00 0. -1.
        -12    1    4    4    0    0 -0.22447525526E+02 -0.79660120599E+02  0.19980720615E+02  0.85140210315E+02  0.00000000000E+00 0.  1.
</event>
<event>
12    1  0.8226261E-002  0.1927458E+03  0.7818608E-02  0.1156239E+00
         21   -1    0    0  503  502  0.00000000000E+00  0.00000000000E+00  0.13986743627E+04  0.13986743627E+04  0.00000000000E+00 0.  1.
         21   -1    0    0  501  503 -0.00000000000E+00 -0.00000000000E+00 -0.45464995386E+02  0.45464995386E+02  0.00000000000E+00 0.  1.
          6    2    1    2  501    0  0.75429084218E+02  0.41149556512E+02  0.21031091392E+03  0.28527464570E+03  0.17253437401E+03 0.  0.
         24    2    3    3    0    0 -0.15459111274E+02  0.36815965836E+00  0.43936973569E+02  0.91299996742E+02  0.78524595483E+02 0.  0.
         -6    2    1    2    0  502 -0.75429084218E+02 -0.41149556512E+02  0.11428984534E+04  0.11588647124E+04  0.17137010855E+03 0.  0.
        -24    2    5    5    0    0  0.62585685478E+01 -0.68014302578E+02  0.57567072982E+03  0.58513658201E+03  0.79516761762E+02 0.  0.
          5    1    3    3  501    0  0.90888195493E+02  0.40781396853E+02  0.16637394035E+03  0.19397464896E+03  0.47000000000E+01 0. -1.
        -11    1    4    4    0    0 -0.42294796086E+01 -0.19848438127E+02 -0.16776904198E+02  0.26330847087E+02  0.00000000000E+00 0.  1.
         12    1    4    4    0    0 -0.11229631666E+02  0.20216597785E+02  0.60713877767E+02  0.64969149655E+02  0.00000000000E+00 0. -1.
         -5    1    5    5    0  502 -0.81687652766E+02  0.26864746066E+02  0.56722772354E+03  0.57372813034E+03  0.47000000000E+01 0.  1.
         11    1    6    6    0    0  0.27752708757E+01  0.10910669840E+02  0.24119181842E+03  0.24145442245E+03  0.00000000000E+00 0. -1.
        -12    1    6    6    0    0  0.34832976721E+01 -0.78924972418E+02  0.33447891139E+03  0.34368215956E+03  0.00000000000E+00 0.  1.
</event>
<event>
12    1  0.8226261E-002  0.2155711E+03  0.7818608E-02  0.1137332E+00
         21   -1    0    0  501  502  0.00000000000E+00  0.00000000000E+00  0.23534688519E+03  0.23534688519E+03  0.00000000000E+00 0. -1.
         21   -1    0    0  502  503 -0.00000000000E+00 -0.00000000000E+00 -0.37856091391E+03  0.37856091391E+03  0.00000000000E+00 0. -1.
         -6    2    1    2    0  503 -0.73804363762E+02 -0.10600696137E+03 -0.28415873370E+03  0.35634940246E+03  0.17191320695E+03 0.  0.
        -24    2    3    3    0    0 -0.95808063022E+02 -0.10892408691E+03 -0.28984208578E+03  0.33296002681E+03  0.76225344316E+02 0.  0.
          6    2    1    2  501    0  0.73804363762E+02  0.10600696137E+03  0.14094470498E+03  0.25755839664E+03  0.17258724706E+03 0.  0.
         24    2    5    5    0    0  0.56999537262E+02  0.41991584354E+02  0.95177229605E+01  0.11033233817E+03  0.84085655086E+02 0.  0.
          5    1    5    5  501    0  0.16804826500E+02  0.64015377013E+02  0.13142698202E+03  0.14722605847E+03  0.47000000000E+01 0. -1.
        -11    1    6    6    0    0 -0.19917654208E+02 -0.39451983343E+01  0.82815780729E+00  0.20321500545E+02  0.00000000000E+00 0.  1.
         12    1    6    6    0    0  0.76917191470E+02  0.45936782689E+02  0.86895651532E+01  0.90010837625E+02  0.00000000000E+00 0. -1.
         -5    1    3    3    0  503  0.22003699260E+02  0.29171255406E+01  0.56833520741E+01  0.23389375651E+02  0.47000000000E+01 0.  1.
         13    1    4    4    0    0 -0.55708852368E+01  0.75373454810E+00 -0.76253268199E+02  0.76460210496E+02  0.00000000000E+00 0. -1.
        -14    1    4    4    0    0 -0.90237177786E+02 -0.10967782146E+03 -0.21358881758E+03  0.25649981631E+03  0.00000000000E+00 0.  1.
</event>
<event>
12    1  0.8226261E-002  0.2737019E+03  0.7818608E-02  0.1099379E+00
         21   -1    0    0  503  502  0.00000000000E+00  0.00000000000E+00  0.17435799294E+04  0.17435799294E+04  0.00000000000E+00 0.  1.
         21   -1    0    0  501  503 -0.00000000000E+00 -0.00000000000E+00 -0.12675603597E+03  0.12675603597E+03  0.00000000000E+00 0. -1.
          6    2    1    2  501    0  0.15097155215E+03  0.14907114301E+03  0.47778942401E+02  0.27784092214E+03  0.17291077308E+03 0.  0.
         24    2    3    3    0    0  0.73174796697E+02  0.15740761295E+02 -0.18750237385E+02  0.10968162978E+03  0.77949766334E+02 0.  0.
         -6    2    1    2    0  502 -0.15097155215E+03 -0.14907114301E+03  0.15690449510E+04  0.15924950432E+04  0.17065693401E+03 0.  0.
        -24    2    5    5    0    0 -0.12171456826E+03 -0.47944785359E+02  0.66861518971E+03  0.68591997387E+03  0.79541184760E+02 0.  0.
          5    1    3    3  501    0  0.77796755448E+02  0.13333038171E+03  0.66529179786E+02  0.16815929236E+03  0.47000000000E+01 0. -1.
        -13    1    4    4    0    0 -0.96200529054E+01  0.21323224267E+02  0.37761045461E+01  0.23695659446E+02  0.00000000000E+00 0.  1.
         14    1    4    4    0    0  0.82794849603E+02 -0.55824629716E+01 -0.22526341931E+02  0.85985970334E+02  0.00000000000E+00 0. -1.
         -5    1    5    5    0  502 -0.29256983890E+02 -0.10112635765E+03  0.90042976127E+03  0.90657506931E+03  0.47000000000E+01 0.  1.
         11    1    6    6    0    0 -0.47889024134E+02  0.41413469840E+01  0.10997806200E+03  0.12002367895E+03  0.00000000000E+00 0. -1.
        -12    1    6    6    0    0 -0.73825544121E+02 -0.52086132343E+02  0.55863712771E+03  0.56589629492E+03  0.00000000000E+00 0.  1.
</event>
<event>
12    1  0.8226261E-002  0.1885434E+03  0.7818608E-02  0.1159941E+00
         21   -1    0    0  501  502  0.00000000000E+00  0.00000000000E+00  0.35338778134E+03  0.35338778134E+03  0.00000000000E+00 0. -1.
         21   -1    0    0  502  503 -0.00000000000E+00 -0.00000000000E+00 -0.11906996232E+03  0.11906996232E+03  0.00000000000E+00 0.  1.
         -6    2    1    2    0  503  0.67836896101E+02  0.33386994643E+02  0.23353505634E+02  0.18998425421E+03  0.17271969991E+03 0.  0.
        -24    2    3    3    0    0  0.11970129673E+02 -0.31863517314E+02  0.48982545260E+02  0.10021977028E+03  0.80536605809E+02 0.  0.
          6    2    1    2  501    0 -0.67836896101E+02 -0.33386994643E+02  0.21096431338E+03  0.28247348945E+03  0.17195579327E+03 0.  0.
         24    2    5    5    0    0  0.25100241485E+02 -0.21235943145E+02  0.57117783798E+02  0.10226304508E+03  0.78194000789E+02 0.  0.
          5    1    5    5  501    0 -0.92937137587E+02 -0.12151051499E+02  0.15384652958E+03  0.18021044437E+03  0.47000000000E+01 0. -1.
        -11    1    6    6    0    0  0.82658303997E+01 -0.48813204145E+02  0.20929790185E+02  0.53750432262E+02  0.00000000000E+00 0.  1.
         12    1    6    6    0    0  0.16834411086E+02  0.27577261001E+02  0.36187993612E+02  0.48512612820E+02  0.00000000000E+00 0. -1.
         -5    1    3    3    0  503  0.55866766428E+02  0.65250511957E+02 -0.25629039626E+02  0.89764483923E+02  0.47000000000E+01 0.  1.
         13    1    4    4    0    0  0.32007352258E+02 -0.35187381928E+02  0.40694150425E+00  0.47568771762E+02  0.00000000000E+00 0. -1.
        -14    1    4    4    0    0 -0.20037222586E+02  0.33238646145E+01  0.48575603756E+02  0.52650998520E+02  0.00000000000E+00 0.  1.
</event>
<event>
12    1  0.8226261E-002  0.2058625E+03  0.7818608E-02  0.1145032E+00
         21   -1    0    0  503  502  0.00000000000E+00  0.00000000000E+00  0.44629051366E+03  0.44629051366E+03  0.00000000000E+00 0. -1.
         21   -1    0    0  501  503 -0.00000000000E+00 -0.00000000000E+00 -0.94854636824E+02  0.94854636824E+02  0.00000000000E+00 0. -1.
          6    2    1    2  501    0 -0.10318929924E+03  0.46248629287E+02  0.16213577368E+03  0.26147766057E+03  0.17115954744E+03 0.  0.
         24    2    3    3    0    0 -0.28951033841E+02  0.33465654405E+02  0.90301929840E+01  0.90778705278E+02  0.78747168594E+02 0.  0.
         -6    2    1    2    0  502  0.10318929924E+03 -0.46248629287E+02  0.18930010315E+03  0.27966748991E+03  0.17202444208E+03 0.  0.
        -24    2    5    5    0    0 -0.76087944897E+01 -0.52056430739E+02  0.91168857222E+02  0.13147241726E+03  0.78774807123E+02 0.  0.
          5    1    3    3  501    0 -0.74238265399E+02  0.12782974882E+02  0.15310558070E+03  0.17069895529E+03  0.47000000000E+01 0. -1.
        -11    1    4    4    0    0  0.25030495304E+02 -0.21037715158E+01 -0.19982155024E+01  0.25198103399E+02  0.00000000000E+00 0.  1.
         12    1    4    4    0    0 -0.53981529144E+02  0.35569425921E+02  0.11028408486E+02  0.65580601879E+02  0.00000000000E+00 0. -1.
         -5    1    5    5    0  502  0.11079809373E+03  0.58078014521E+01  0.98131245928E+02  0.14819507265E+03  0.47000000000E+01 0.  1.
         13    1    6    6    0    0  0.27290889260E+02 -0.47356887829E+02  0.74793388466E+02  0.92636485359E+02  0.00000000000E+00 0. -1.
        -14    1    6    6    0    0 -0.34899683750E+02 -0.46995429104E+01  0.16375468755E+02  0.38835931898E+02  0.00000000000E+00 0.  1.
</event>
<event>
12    1  0.8226261E-002  0.1785424E+03  0.7818608E-02  0.1169977E+00
         21   -1    0    0  501  502  0.00000000000E+00  0.00000000000E+00  0.90015441746E+03  0.90015441746E+03  0.00000000000E+00 0. -1.
         21   -1    0    0  502  503 -0.00000000000E+00 -0.00000000000E+00 -0.47315172416E+02  0.47315172416E+02  0.00000000000E+00 0. -1.
         -6    2    1    2    0  503  0.34106179535E+02 -0.24934512597E+02  0.18015162994E+03  0.25149112446E+03  0.17031798059E+03 0.  0.
        -24    2    3    3    0    0 -0.27925606268E+02 -0.59932491335E+02  0.97603551970E+02  0.14236241082E+03  0.79805135506E+02 0.  0.
          6    2    1    2  501    0 -0.34106179535E+02  0.24934512597E+02  0.67268761510E+03  0.69597846541E+03  0.17347171356E+03 0.  0.
         24    2    5    5    0    0 -0.76132061807E+02 -0.54984115673E+01  0.57519382578E+03  0.58543676916E+03  0.77858526224E+02 0.  0.
          5    1    5    5  501    0  0.42025882272E+02  0.30432924164E+02  0.97493789326E+02  0.11054169626E+03  0.47000000000E+01 0. -1.
        -13    1    6    6    0    0 -0.22067156403E+02 -0.26679213243E+02  0.38557993855E+03  0.38713128112E+03  0.00000000000E+00 0.  1.
         14    1    6    6    0    0 -0.54064905404E+02  0.21180801676E+02  0.18961388723E+03  0.19830548804E+03  0.00000000000E+00 0. -1.
         -5    1    3    3    0  503  0.62031785803E+02  0.34997978738E+02  0.82548077972E+02  0.10912871365E+03  0.47000000000E+01 0.  1.
         13    1    4    4    0    0 -0.23895071096E+02 -0.69995353888E+02  0.40669831735E+02  0.84405919235E+02  0.00000000000E+00 0. -1.
        -14    1    4    4    0    0 -0.40305351711E+01  0.10062862553E+02  0.56933720235E+02  0.57956491581E+02  0.00000000000E+00 0.  1.
</event>
<event>
12    1  0.8226261E-002  0.1865967E+03  0.7818608E-02  0.1161821E+00
         21   -1    0    0  501  502  0.00000000000E+00  0.00000000000E+00  0.12361150559E+03  0.12361150559E+03  0.00000000000E+00 0. -1.
         21   -1    0    0  502  503 -0.00000000000E+00 -0.00000000000E+00 -0.34577949515E+03  0.34577949515E+03  0.00000000000E+00 0. -1.
         -6    2    1    2    0  503 -0.69877251683E+02  0.92562106906E+01 -0.84753570086E+01  0.18569594331E+03  0.17158858921E+03 0.  0.
        -24    2    3    3    0    0 -0.52643387395E+02  0.59088139339E+02  0.32201288956E+02  0.11893587502E+03  0.82741071478E+02 0.  0.
          6    2    1    2  501    0  0.69877251683E+02 -0.92562106906E+01 -0.21369263255E+03  0.28369505742E+03  0.17277105273E+03 0.  0.
         24    2    5    5    0    0  0.46819657094E+02  0.47709518265E+02 -0.63644024709E+02  0.12148093455E+03  0.78985930106E+02 0.  0.
          5    1    5    5  501    0  0.23057594589E+02 -0.56965728955E+02 -0.15004860784E+03  0.16221412287E+03  0.47000000000E+01 0. -1.
        -11    1    6    6    0    0  0.61390710257E+02  0.17738888961E+02 -0.20799558810E+02  0.67202002456E+02  0.00000000000E+00 0.  1.
         12    1    6    6    0    0 -0.14571053163E+02  0.29970629304E+02 -0.42844465899E+02  0.54278932095E+02  0.00000000000E+00 0. -1.
         -5    1    3    3    0  503 -0.17233864288E+02 -0.49831928649E+02 -0.40676645965E+02  0.66760068290E+02  0.47000000000E+01 0.  1.
         13    1    4    4    0    0 -0.51822065484E+02  0.26379489911E+02  0.54213425745E+02  0.79501569103E+02  0.00000000000E+00 0. -1.
        -14    1    4    4    0    0 -0.82132191106E+00  0.32708649429E+02 -0.22012136788E+02  0.39434305917E+02  0.00000000000E+00 0.  1.
</event>
<event>
12    1  0.8226261E-002  0.1918040E+03  0.7818608E-02  0.1157014E+00
         21   -1    0    0  501  502  0.00000000000E+00  0.00000000000E+00  0.14842095720E+04  0.14842095720E+04  0.00000000000E+00 0.  1.
         21   -1    0    0  502  503 -0.00000000000E+00 -0.00000000000E+00 -0.24852716174E+02  0.24852716174E+02  0.00000000000E+00 0. -1.
         -6    2    1    2    0  503 -0.71524994160E+02 -0.47504000346E+02  0.66979194575E+03  0.69671374021E+03  0.17151189572E+03 0.  0.
        -24    2    3    3    0    0 -0.97442168400E+02 -0.26745841501E+02  0.31308228776E+03  0.33843107083E+03  0.79402484681E+02 0.  0.
          6    2    1    2  501    0  0.71524994160E+02  0.47504000346E+02  0.78956491003E+03  0.81234854792E+03  0.17066036830E+03 0.  0.
         24    2    5    5    0    0  0.76213003560E+02 -0.17743415994E+01  0.26030004383E+03  0.28075309927E+03  0.72488755927E+02 0.  0.
          5    1    5    5  501    0 -0.46880093998E+01  0.49278341945E+02  0.52926486621E+03  0.53159544864E+03  0.47000000000E+01 0. -1.
        -11    1    6    6    0    0  0.82000506092E+01  0.45351431015E+01  0.15472610055E+03  0.15500959500E+03  0.00000000000E+00 0.  1.
         12    1    6    6    0    0  0.68012952951E+02 -0.63094847010E+01  0.10557394328E+03  0.12574350427E+03  0.00000000000E+00 0. -1.
         -5    1    3    3    0  503  0.25917174240E+02 -0.20758158845E+02  0.35670965798E+03  0.35828266938E+03  0.47000000000E+01 0.  1.
         11    1    4    4    0    0 -0.51624512964E+02  0.22243146491E+02  0.96267546783E+02  0.11147774876E+03  0.00000000000E+00 0. -1.
        -12    1    4    4    0    0 -0.45817655436E+02 -0.48988987992E+02  0.21681474098E+03  0.22695332208E+03  0.00000000000E+00 0.  1.
</event>
<event>
12    1  0.8226261E-002  0.2862457E+03  0.7818608E-02  0.1092331E+00
         21   -1    0    0  501  502  0.00000000000E+00  0.00000000000E+00  0.18329593621E+03  0.18329593621E+03  0.00000000000E+00 0.  1.
         21   -1    0    0  502  503 -0.00000000000E+00 -0.00000000000E+00 -0.90189821339E+03  0.90189821339E+03  0.00000000000E+00 0. -1.
         -6    2    1    2    0  503  0.59958500136E+02  0.22059798535E+03 -0.74465819568E+03  0.79776499649E+03  0.17220530872E+03 0.  0.
        -24    2    3    3    0    0  0.63088873964E+02  0.47732392436E+02 -0.31734266239E+03  0.33677370867E+03  0.80321716697E+02 0.  0.
          6    2    1    2  501    0 -0.59958500136E+02 -0.22059798535E+03  0.26055918512E+02  0.28742915311E+03  0.17227337081E+03 0.  0.
         24    2    5    5    0    0 -0.67198232130E+02 -0.23878535593E+03  0.85412809983E+01  0.26074495000E+03  0.79880703943E+02 0.  0.
          5    1    5    5  501    0  0.72397319947E+01  0.18187370585E+02  0.17514637513E+02  0.26684203106E+02  0.47000000000E+01 0. -1.
        -11    1    6    6    0    0 -0.32145344653E+02 -0.60583628091E+02  0.35354435569E+02  0.77159803590E+02  0.00000000000E+00 0.  1.
         12    1    6    6    0    0 -0.35052887477E+02 -0.17820172784E+03 -0.26813154571E+02  0.18358514641E+03  0.00000000000E+00 0. -1.
         -5    1    3    3    0  503 -0.31303738286E+01  0.17286559291E+03 -0.42731553329E+03  0.46099128782E+03  0.47000000000E+01 0.  1.
         13    1    4    4    0    0  0.31990381220E+02  0.61933348659E+02 -0.14269241031E+03  0.15880884147E+03  0.00000000000E+00 0. -1.
        -14    1    4    4    0    0  0.31098492744E+02 -0.14200956223E+02 -0.17465025208E+03  0.17796486721E+03  0.00000000000E+00 0.  1.
</event>
<event>
12    1  0.8226261E-002  0.2112225E+03  0.7818608E-02  0.1140870E+00
         21   -1    0    0  503  502  0.00000000000E+00  0.00000000000E+00  0.17684391550E+03  0.17684391550E+03  0.00000000000E+00 0. -1.
         21   -1    0    0  501  503 -0.00000000000E+00 -0.00000000000E+00 -0.38333673163E+03  0.38333673163E+03  0.00000000000E+00 0.  1.
          6    2    1    2  501    0  0.12308272490E+03 -0.85017627132E+01 -0.26780614443E+03  0.34023915887E+03  0.16976724388E+03 0.  0.
         24    2    3    3    0    0  0.49646290057E+02  0.39308640982E+02 -0.21532970566E+03  0.23799136530E+03  0.79139651546E+02 0.  0.
         -6    2    1    2    0  502 -0.12308272490E+03  0.85017627132E+01  0.61313328299E+02  0.21994148826E+03  0.17144473423E+03 0.  0.
        -24    2    5    5    0    0 -0.13599042114E+03  0.51075730803E+02  0.44994771508E+02  0.17232282935E+03  0.81046302392E+02 0.  0.
          5    1    3    3  501    0  0.73436434839E+02 -0.47810403695E+02 -0.52476438773E+02  0.10224779357E+03  0.47000000000E+01 0. -1.
        -13    1    4    4    0    0  0.68823336329E+02  0.19067984233E+02 -0.13142839872E+03  0.14957828598E+03  0.00000000000E+00 0.  1.
         14    1    4    4    0    0 -0.19177046272E+02  0.20240656749E+02 -0.83901306939E+02  0.88413079323E+02  0.00000000000E+00 0. -1.
         -5    1    5    5    0  502  0.12907696246E+02 -0.42573968090E+02  0.16318556791E+02  0.47618658917E+02  0.47000000000E+01 0.  1.
         13    1    6    6    0    0 -0.64241608507E+02  0.60711388191E+02  0.46579600274E+02  0.99912542162E+02  0.00000000000E+00 0. -1.
        -14    1    6    6    0    0 -0.71748812635E+02 -0.96356573877E+01 -0.15848287661E+01  0.72410287184E+02  0.00000000000E+00 0.  1.
</event>
<event>
12    1  0.8226261E-002  0.2105737E+03  0.7818608E-02  0.1141149E+00
         21   -1    0    0  503  502  0.00000000000E+00  0.00000000000E+00  0.28075962364E+03  0.28075962364E+03  0.00000000000E+00 0. -1.
         21   -1    0    0  501  503 -0.00000000000E+00 -0.00000000000E+00 -0.16618919187E+03  0.16618919187E+03  0.00000000000E+00 0.  1.
          6    2    1    2  501    0  0.71974311819E+02  0.98540382153E+02  0.70856666286E+01  0.21069287284E+03  0.17161227088E+03 0.  0.
         24    2    3    3    0    0  0.68377366140E+02  0.10350091918E+03  0.58762514072E+02  0.15844221248E+03  0.79139100100E+02 0.  0.
         -6    2    1    2    0  502 -0.71974311819E+02 -0.98540382153E+02  0.10748476514E+03  0.23625594266E+03  0.17138666001E+03 0.  0.
        -24    2    5    5    0    0 -0.47272542740E+02 -0.13388566376E+03  0.10286616498E+03  0.19263384052E+03  0.79788998983E+02 0.  0.
          5    1    3    3  501    0  0.35969456788E+01 -0.49605370318E+01 -0.51676847443E+02  0.52250660355E+02  0.47000000000E+01 0. -1.
        -11    1    4    4    0    0 -0.17377155109E+02  0.14582146045E+02  0.29135799163E+01  0.22871236322E+02  0.00000000000E+00 0.  1.
         12    1    4    4    0    0  0.85754521249E+02  0.88918773140E+02  0.55848934155E+02  0.13557097616E+03  0.00000000000E+00 0. -1.
         -5    1    5    5    0  502 -0.24701769078E+02  0.35345281611E+02  0.46186001622E+01  0.43622102141E+02  0.47000000000E+01 0.  1.
         13    1    6    6    0    0 -0.48030802786E+02 -0.31513562473E+02  0.55337443972E+02  0.79763997778E+02  0.00000000000E+00 0. -1.
        -14    1    6    6    0    0  0.75826004615E+00 -0.10237210129E+03  0.47528721006E+02  0.11286984275E+03  0.00000000000E+00 0.  1.
</event>
<event>
12    1  0.8226261E-002  0.2007883E+03  0.7818608E-02  0.1149393E+00
         21   -1    0    0  501  502  0.00000000000E+00  0.00000000000E+00  0.23228582949E+03  0.23228582949E+03  0.00000000000E+00 0. -1.
         21   -1    0    0  502  503 -0.00000000000E+00 -0.00000000000E+00 -0.25952012905E+03  0.25952012905E+03  0.00000000000E+00 0. -1.
         -6    2    1    2    0  503  0.92523319132E+02 -0.38157388345E+02 -0.15616893214E+03  0.25318471454E+03  0.17232879459E+03 0.  0.
        -24    2    3    3    0    0  0.77061881488E+02 -0.35416781057E+02 -0.18936935847E+03  0.21615870624E+03  0.60588368487E+02 0.  0.
          6    2    1    2  501    0 -0.92523319132E+02  0.38157388345E+02  0.12893463257E+03  0.23862124399E+03  0.17406725062E+03 0.  0.
         24    2    5    5    0    0 -0.38943269863E+02 -0.39755996170E+02  0.10056617491E+03  0.13978715799E+03  0.79559892551E+02 0.  0.
          5    1    5    5  501    0 -0.53580049269E+02  0.77913384515E+02  0.28368457663E+02  0.98834086005E+02  0.47000000000E+01 0. -1.
        -11    1    6    6    0    0 -0.61530259281E+01  0.78277904749E+01 -0.10572344027E+02  0.14522688801E+02  0.00000000000E+00 0.  1.
         12    1    6    6    0    0 -0.32790243935E+02 -0.47583786645E+02  0.11113851894E+03  0.12526446919E+03  0.00000000000E+00 0. -1.
         -5    1    3    3    0  503  0.15461437644E+02 -0.27406072881E+01  0.33200426334E+02  0.37026008306E+02  0.47000000000E+01 0.  1.
         13    1    4    4    0    0  0.40441769990E+02  0.56933475796E+01 -0.12475610360E+03  0.13127085112E+03  0.00000000000E+00 0. -1.
        -14    1    4    4    0    0  0.36620111497E+02 -0.41110128636E+02 -0.64613254870E+02  0.84887855123E+02  0.00000000000E+00 0.  1.
</event>
<event>
12    1  0.8226261E-002  0.1898626E+03  0.7818608E-02  0.1158839E+00
         21   -1    0    0  501  502  0.00000000000E+00  0.00000000000E+00  0.16221018386E+03  0.16221018386E+03  0.00000000000E+00 0.  1.
         21   -1    0    0  502  503 -0.00000000000E+00 -0.00000000000E+00 -0.67050774168E+03  0.67050774168E+03  0.00000000000E+00 0.  1.
         -6    2    1    2    0  503  0.80592791122E+02 -0.41315292286E+01 -0.59533308530E+03  0.62487540745E+03  0.17185902616E+03 0.  0.
        -24    2    3    3    0    0  0.11160659355E+03  0.24790323251E+02 -0.52675568417E+03  0.54410858606E+03  0.74242917323E+02 0.  0.
          6    2    1    2  501    0 -0.80592791122E+02  0.41315292286E+01  0.87035527476E+02  0.20784251809E+03  0.17061964063E+03 0.  0.
         24    2    5    5    0    0  0.17199343561E+02  0.17575183519E+01  0.84397468440E+01  0.82270529707E+02  0.79989402060E+02 0.  0.
          5    1    5    5  501    0 -0.97792134683E+02  0.23740108767E+01  0.78595780632E+02  0.12557198838E+03  0.47000000000E+01 0. -1.
        -11    1    6    6    0    0  0.45026743739E+02  0.12536879003E+02  0.19225329647E+02  0.50539037257E+02  0.00000000000E+00 0.  1.
         12    1    6    6    0    0 -0.27827400178E+02 -0.10779360651E+02 -0.10785582803E+02  0.31731492450E+02  0.00000000000E+00 0. -1.
         -5    1    3    3    0  503 -0.31013802426E+02 -0.28921852480E+02 -0.68577401128E+02  0.80766821389E+02  0.47000000000E+01 0.  1.
         11    1    4    4    0    0  0.64964971540E+02  0.16560782482E+02 -0.14891038961E+03  0.16330649460E+03  0.00000000000E+00 0. -1.
        -12    1    4    4    0    0  0.46641622009E+02  0.82295407690E+01 -0.37784529456E+03  0.38080209147E+03  0.00000000000E+00 0.  1.
</event>
<event>
12    1  0.8226261E-002  0.1825495E+03  0.7818608E-02  0.1165419E+00
         21   -1    0    0  501  502  0.00000000000E+00  0.00000000000E+00  0.25296837387E+02  0.25296837387E+02  0.00000000000E+00 0.  1.
         21   -1    0    0  502  503 -0.00000000000E+00 -0.00000000000E+00 -0.16044968202E+04  0.16044968202E+04  0.00000000000E+00 0.  1.
         -6    2    1    2    0  503  0.46828010136E+02  0.37057309076E+02 -0.11350024864E+04  0.11495481532E+04  0.17223299804E+03 0.  0.
        -24    2    3    3    0    0 -0.28896290681E+02 -0.16526422364E+02 -0.65628800876E+03  0.66190583844E+03  0.79355341739E+02 0.  0.
          6    2    1    2  501    0 -0.46828010136E+02 -0.37057309076E+02 -0.44419749634E+03  0.48024550436E+03  0.17250571587E+03 0.  0.
         24    2    5    5    0    0 -0.59319992028E+02 -0.10504660401E+02 -0.12539915020E+03  0.16006497986E+03  0.79162122017E+02 0.  0.
          5    1    5    5  501    0  0.12491981892E+02 -0.26552648675E+02 -0.31879834614E+03  0.32018052450E+03  0.47000000000E+01 0. -1.
        -11    1    6    6    0    0 -0.73337101095E+02  0.91674723342E+01 -0.10525904860E+03  0.12861508566E+03  0.00000000000E+00 0.  1.
         12    1    6    6    0    0  0.14017109067E+02 -0.19672132735E+02 -0.20140101598E+02  0.31449894202E+02  0.00000000000E+00 0. -1.
         -5    1    3    3    0  503  0.75724300817E+02  0.53583731440E+02 -0.47871447767E+03  0.48764231476E+03  0.47000000000E+01 0.  1.
         13    1    4    4    0    0 -0.24040599930E+01 -0.80255510925E+01 -0.44728114776E+01  0.94971057329E+01  0.00000000000E+00 0. -1.
        -14    1    4    4    0    0 -0.26492230688E+02 -0.85008712713E+01 -0.65181519728E+03  0.65240873271E+03  0.00000000000E+00 0.  1.
</event>
<event>
12    1  0.8226261E-002  0.2370106E+03  0.7818608E-02  0.1121907E+00
         21   -1    0    0  501  502  0.00000000000E+00  0.00000000000E+00  0.12290701380E+04  0.12290701380E+04  0.00000000000E+00 0.  1.
         21   -1    0    0  502  503 -0.00000000000E+00 -0.00000000000E+00 -0.49035333493E+02  0.49035333493E+02  0.00000000000E+00 0.  1.
         -6    2    1    2    0  503  0.16311170136E+03 -0.10492604356E+02  0.76029091993E+03  0.79637697699E+03  0.17163474204E+03 0.  0.
        -24    2    3    3    0    0  0.12642664584E+03 -0.64534300787E+02  0.63648006783E+03  0.65631443614E+03  0.74117404010E+02 0.  0.
          6    2    1    2  501    0 -0.16311170136E+03  0.10492604356E+02  0.41974388460E+03  0.48172849453E+03  0.17076853316E+03 0.  0.
         24    2    5    5    0    0 -0.10439276052E+03  0.71959245089E+02  0.28761061683E+03  0.32454276876E+03  0.80821781938E+02 0.  0.
          5    1    5    5  501    0 -0.58718940837E+02 -0.61466640733E+02  0.13213326776E+03  0.15718572577E+03  0.47000000000E+01 0. -1.
        -11    1    6    6    0    0 -0.50582387172E+02  0.61856778539E+02  0.94165443714E+02  0.12349886531E+03  0.00000000000E+00 0.  1.
         12    1    6    6    0    0 -0.53810373348E+02  0.10102466549E+02  0.19344517312E+03  0.20104390345E+03  0.00000000000E+00 0. -1.
         -5    1    3    3    0  503  0.36685055520E+02  0.54041696431E+02  0.12381085210E+03  0.14006254085E+03  0.47000000000E+01 0.  1.
         11    1    4    4    0    0  0.65093200380E+01 -0.47441936339E+00  0.11831379277E+01  0.66329583479E+01  0.00000000000E+00 0. -1.
        -12    1    4    4    0    0  0.11991732580E+03 -0.64059881423E+02  0.63529692991E+03  0.64968147779E+03  0.00000000000E+00 0.  1.
</event>
<event>
12    1  0.8226261E-002  0.1905985E+03  0.7818608E-02  0.1158645E+00
         21   -1    0    0  503  502  0.00000000000E+00  0.00000000000E+00  0.30318241151E+02  0.30318241151E+02  0.00000000000E+00 0.  1.
         21   -1    0    0  501  503 -0.00000000000E+00 -0.00000000000E+00 -0.12269636816E+04  0.12269636816E+04  0.00000000000E+00 0.  1.
          6    2    1    2  501    0  0.79844292697E+02  0.20993560471E+02 -0.71873147704E+03  0.74276318027E+03  0.16824495600E+03 0.  0.
         24    2    3    3    0    0  0.79304514270E+02  0.26056654827E+02 -0.72452962876E+03  0.73372797974E+03  0.80283311157E+02 0.  0.
         -6    2    1    2    0  502 -0.79844292697E+02 -0.20993560471E+02 -0.47791396339E+03  0.51451874247E+03  0.17179039346E+03 0.  0.
        -24    2    5    5    0    0 -0.12330557368E+03 -0.19815563101E+02 -0.38199205816E+03  0.40909876084E+03  0.76465303113E+02 0.  0.
          5    1    3    3  501    0  0.53977842672E+00 -0.50630943568E+01  0.57981517238E+01  0.90352005306E+01  0.47000000000E+01 0. -1.
        -11    1    4    4    0    0  0.34484657799E+02  0.32182420939E+02 -0.58821900969E+03  0.59010719637E+03  0.00000000000E+00 0.  1.
         12    1    4    4    0    0  0.44819856471E+02 -0.61257661113E+01 -0.13631061907E+03  0.14362078337E+03  0.00000000000E+00 0. -1.
         -5    1    5    5    0  502  0.43461280987E+02 -0.11779973695E+01 -0.95921905231E+02  0.10541998163E+03  0.47000000000E+01 0.  1.
         11    1    6    6    0    0 -0.11662751995E+03  0.45509459934E+01 -0.34575502000E+03  0.36492358566E+03  0.00000000000E+00 0. -1.
        -12    1    6    6    0    0 -0.66780537346E+01 -0.24366509094E+02 -0.36237038163E+02  0.44175175177E+02  0.00000000000E+00 0.  1.
</event>
<event>
12    1  0.8226261E-002  0.2684999E+03  0.7818608E-02  0.1102146E+00
         21   -1    0    0  501  502  0.00000000000E+00  0.00000000000E+00  0.11013645884E+03  0.11013645884E+03  0.00000000000E+00 0. -1.
         21   -1    0    0  502  503 -0.00000000000E+00 -0.00000000000E+00 -0.95302316893E+03  0.95302316893E+03  0.00000000000E+00 0. -1.
         -6    2    1    2    0  503 -0.61500966694E+02  0.19661162025E+03 -0.71897966926E+03  0.76747896401E+03  0.17220248914E+03 0.  0.
        -24    2    3    3    0    0 -0.13504378873E+02  0.33460410307E+02 -0.14611294633E+03  0.16988348044E+03  0.78799977998E+02 0.  0.
          6    2    1    2  501    0  0.61500966694E+02 -0.19661162025E+03 -0.12390704082E+03  0.29568066375E+03  0.17214994056E+03 0.  0.
         24    2    5    5    0    0  0.12967592953E+02 -0.79910445149E+02 -0.12531282187E+03  0.16919462162E+03  0.79810268429E+02 0.  0.
          5    1    5    5  501    0  0.48533373740E+02 -0.11670117510E+03  0.14057810534E+01  0.12648604214E+03  0.47000000000E+01 0. -1.
        -13    1    6    6    0    0  0.23943319273E+02 -0.91446526764E+02 -0.90286576865E+02  0.13071884239E+03  0.00000000000E+00 0.  1.
         14    1    6    6    0    0 -0.10975726320E+02  0.11536081614E+02 -0.35026245010E+02  0.38475779222E+02  0.00000000000E+00 0. -1.
         -5    1    3    3    0  503 -0.47996587821E+02  0.16315120994E+03 -0.57286672293E+03  0.59759548357E+03  0.47000000000E+01 0.  1.
         11    1    4    4    0    0  0.31974457201E+02  0.67839372859E+01 -0.70432415438E+02  0.77647362240E+02  0.00000000000E+00 0. -1.
        -12    1    4    4    0    0 -0.45478836073E+02  0.26676473021E+02 -0.75680530896E+02  0.92236118198E+02  0.00000000000E+00 0.  1.
</event>
<event>
12    1  0.8226261E-002  0.2104240E+03  0.7818608E-02  0.1141628E+00
         21   -1    0    0  501  502  0.00000000000E+00  0.00000000000E+00  0.45519123813E+03  0.45519123813E+03  0.00000000000E+00 0. -1.
         21   -1    0    0  502  503 -0.00000000000E+00 -0.00000000000E+00 -0.14164272632E+03  0.14164272632E+03  0.00000000000E+00 0. -1.
         -6    2    1    2    0  503 -0.76358920004E+02 -0.89960436299E+02 -0.11463230329E+02  0.21073597831E+03  0.17422595141E+03 0.  0.
        -24    2    3    3    0    0 -0.56313188660E+00  0.98664066249E+01  0.18472883111E+02  0.81783812949E+02  0.79054927442E+02 0.  0.
          6    2    1    2  501    0  0.76358920004E+02  0.89960436299E+02  0.32501174213E+03  0.38609798614E+03  0.17180063333E+03 0.  0.
         24    2    5    5    0    0  0.12447042833E+01  0.45006908037E+02  0.26365229813E+03  0.27909314290E+03  0.79707446628E+02 0.  0.
          5    1    5    5  501    0  0.75114215721E+02  0.44953528261E+02  0.61359444002E+02  0.10700484323E+03  0.47000000000E+01 0. -1.
        -11    1    6    6    0    0 -0.30492954730E+02  0.30125545258E+02  0.68414861009E+02  0.80733896055E+02  0.00000000000E+00 0.  1.
         12    1    6    6    0    0  0.31737659013E+02  0.14881362779E+02  0.19523743712E+03  0.19835924685E+03  0.00000000000E+00 0. -1.
         -5    1    3    3    0  503 -0.75795788118E+02 -0.99826842923E+02 -0.29936113439E+02  0.12895216536E+03  0.47000000000E+01 0.  1.
         13    1    4    4    0    0 -0.18490103065E+02 -0.37452913118E+01  0.43925844931E+02  0.47805762950E+02  0.00000000000E+00 0. -1.
        -14    1    4    4    0    0  0.17926971178E+02  0.13611697937E+02 -0.25452961820E+02  0.33978049999E+02  0.00000000000E+00 0.  1.
</event>
<event>
12    1  0.8226261E-002  0.1834765E+03  0.7818608E-02  0.1165027E+00
         21   -1    0    0  503  502  0.00000000000E+00  0.00000000000E+00  0.49080823696E+03  0.49080823696E+03  0.00000000000E+00 0. -1.
         21   -1    0    0  501  503 -0.00000000000E+00 -0.00000000000E+00 -0.11424567082E+03  0.11424567082E+03  0.00000000000E+00 0. -1.
          6    2    1    2  501    0 -0.50954988112E+02 -0.34692386116E+02 -0.40495237432E+01  0.18352114943E+03  0.17281099843E+03 0.  0.
         24    2    3    3    0    0  0.37549490400E+01 -0.76646875617E+02  0.22666733092E+01  0.11412849306E+03  0.84447213904E+02 0.  0.
         -6    2    1    2    0  502  0.50954988112E+02  0.34692386116E+02  0.38061208988E+03  0.42153275835E+03  0.17036528676E+03 0.  0.
        -24    2    5    5    0    0  0.79557981331E+02  0.53861990836E+02  0.36077072656E+03  0.38151557873E+03  0.78536827190E+02 0.  0.
          5    1    3    3  501    0 -0.54709937152E+02  0.41954489501E+02 -0.63161970524E+01  0.69392656367E+02  0.47000000000E+01 0. -1.
        -13    1    4    4    0    0 -0.68645321851E+01 -0.55023155021E+02  0.40690009307E+02  0.68777512662E+02  0.00000000000E+00 0.  1.
         14    1    4    4    0    0  0.10619481225E+02 -0.21623720596E+02 -0.38423335997E+02  0.45350980398E+02  0.00000000000E+00 0. -1.
         -5    1    5    5    0  502 -0.28602993218E+02 -0.19169604720E+02  0.19841363321E+02  0.40017179619E+02  0.47000000000E+01 0.  1.
         13    1    6    6    0    0  0.72813291605E+01  0.25958343763E+02  0.21268696204E+03  0.21438889241E+03  0.00000000000E+00 0. -1.
        -14    1    6    6    0    0  0.72276652170E+02  0.27903647073E+02  0.14808376451E+03  0.16712668632E+03  0.00000000000E+00 0.  1.
</event>
<event>
12    1  0.8226261E-002  0.2005098E+03  0.7818608E-02  0.1150031E+00
         21   -1    0    0  501  502  0.00000000000E+00  0.00000000000E+00  0.15535650321E+04  0.15535650321E+04  0.00000000000E+00 0.  1.
         21   -1    0    0  502  503 -0.00000000000E+00 -0.00000000000E+00 -0.26341024094E+02  0.26341024094E+02  0.00000000000E+00 0.  1.
         -6    2    1    2    0  503  0.33076854143E+02 -0.88125520719E+02  0.91586331917E+03  0.93755523506E+03  0.17704240652E+03 0.  0.
        -24    2    3    3    0    0 -0.49532557827E+02 -0.47813691038E+02  0.41312878379E+03  0.42646477181E+03  0.80356619309E+02 0.  0.
          6    2    1    2  501    0 -0.33076854143E+02  0.88125520719E+02  0.61136068888E+03  0.64235082118E+03  0.17318342841E+03 0.  0.
         24    2    5    5    0    0  0.38394153203E+02  0.69499713066E+02  0.46145041609E+03  0.47516767164E+03  0.80891955990E+02 0.  0.
          5    1    5    5  501    0 -0.71471007346E+02  0.18625807653E+02  0.14991027279E+03  0.16718314954E+03  0.47000000000E+01 0. -1.
        -11    1    6    6    0    0  0.46815921989E+02  0.40978322740E+02  0.15127387145E+03  0.16356875517E+03  0.00000000000E+00 0.  1.
         12    1    6    6    0    0 -0.84217687859E+01  0.28521390326E+02  0.31017654464E+03  0.31159891647E+03  0.00000000000E+00 0. -1.
         -5    1    3    3    0  503  0.82609411969E+02 -0.40311829680E+02  0.50273453538E+03  0.51109046325E+03  0.47000000000E+01 0.  1.
         13    1    4    4    0    0 -0.12878276709E+02  0.16939835577E+02  0.34049865551E+02  0.40152227640E+02  0.00000000000E+00 0. -1.
        -14    1    4    4    0    0 -0.36654281117E+02 -0.64753526615E+02  0.37907891824E+03  0.38631254417E+03  0.00000000000E+00 0.  1.
</event>
<event>
12    1  0.8226261E-002  0.1982085E+03  0.7818608E-02  0.1152118E+00
         21   -1    0    0  503  502  0.00000000000E+00  0.00000000000E+00  0.85551127500E+03  0.85551127500E+03  0.00000000000E+00 0.  1.
         21   -1    0    0  501  503 -0.00000000000E+00 -0.00000000000E+00 -0.62215727727E+02  0.62215727727E+02  0.00000000000E+00 0. -1.
          6    2    1    2  501    0  0.33042103454E+02  0.92722267434E+02  0.15240245611E+03  0.24688383455E+03  0.16743930141E+03 0.  0.
         24    2    3    3    0    0  0.37735029009E+02  0.36257639520E+01  0.25752254226E+02  0.91891660168E+02  0.79648101246E+02 0.  0.
         -6    2    1    2    0  502 -0.33042103454E+02 -0.92722267434E+02  0.64089309116E+03  0.67084316817E+03  0.17203895637E+03 0.  0.
        -24    2    5    5    0    0 -0.73957558444E+02 -0.35883005474E+02  0.50759935553E+03  0.52019760363E+03  0.78683737574E+02 0.  0.
          5    1    3    3  501    0 -0.46929255551E+01  0.89096503482E+02  0.12665020189E+03  0.15499217439E+03  0.47000000000E+01 0. -1.
        -13    1    4    4    0    0  0.45393185402E+02 -0.29548712787E+01  0.48809416214E+02  0.66720548982E+02  0.00000000000E+00 0.  1.
         14    1    4    4    0    0 -0.76581563933E+01  0.65806352307E+01 -0.23057161988E+02  0.25171111186E+02  0.00000000000E+00 0. -1.
         -5    1    5    5    0  502  0.40915454990E+02 -0.56839261960E+02  0.13329373563E+03  0.15064556454E+03  0.47000000000E+01 0.  1.
         13    1    6    6    0    0  0.14081882031E+02 -0.16260598556E+01  0.13761025738E+03  0.13833844877E+03  0.00000000000E+00 0. -1.
        -14    1    6    6    0    0 -0.88039440475E+02 -0.34256945618E+02  0.36998909815E+03  0.38185915486E+03  0.00000000000E+00 0.  1.
</event>
<event>
12    1  0.8226261E-002  0.2181528E+03  0.7818608E-02  0.1135377E+00
         21   -1    0    0  503  502  0.00000000000E+00  0.00000000000E+00  0.11964863082E+04  0.11964863082E+04  0.00000000000E+00 0. -1.
         21   -1    0    0  501  503 -0.00000000000E+00 -0.00000000000E+00 -0.45384713877E+02  0.45384713877E+02  0.00000000000E+00 0.  1.
          6    2    1    2  501    0 -0.11673691445E+03  0.70061262775E+02  0.35587898168E+03  0.41742126853E+03  0.17045403510E+03 0.  0.
         24    2    3    3    0    0 -0.11585024458E+03 -0.51109845144E+01  0.25952521925E+03  0.29511922243E+03  0.79338607788E+02 0.  0.
         -6    2    1    2    0  502  0.11673691445E+03 -0.70061262775E+02  0.79522261260E+03  0.82444975350E+03  0.16971241772E+03 0.  0.
        -24    2    5    5    0    0  0.93600812154E+02 -0.54592040329E+02  0.78155143528E+03  0.79308787917E+03  0.80151950700E+02 0.  0.
          5    1    3    3  501    0 -0.88666986107E+00  0.75172247290E+02  0.96353762426E+02  0.12230204610E+03  0.47000000000E+01 0. -1.
        -11    1    4    4    0    0 -0.17442067386E+01  0.20772742066E+02  0.21816036846E+02  0.30174302539E+02  0.00000000000E+00 0.  1.
         12    1    4    4    0    0 -0.11410603785E+03 -0.25883726580E+02  0.23770918241E+03  0.26494491989E+03  0.00000000000E+00 0. -1.
         -5    1    5    5    0  502  0.23136102292E+02 -0.15469222446E+02  0.13671177322E+02  0.31361874334E+02  0.47000000000E+01 0.  1.
         13    1    6    6    0    0  0.29267570353E+02  0.16543094734E+02  0.31439111910E+03  0.31618355496E+03  0.00000000000E+00 0. -1.
        -14    1    6    6    0    0  0.64333241801E+02 -0.71135135063E+02  0.46716031617E+03  0.47690432421E+03  0.00000000000E+00 0.  1.
</event>
<event>
12    1  0.8226261E-002  0.2415931E+03  0.7818608E-02  0.1119045E+00
         21   -1    0    0  503  502  0.00000000000E+00  0.00000000000E+00  0.44849991004E+02  0.44849991004E+02  0.00000000000E+00 0.  1.
         21   -1    0    0  501  503 -0.00000000000E+00 -0.00000000000E+00 -0.14273191320E+04  0.14273191320E+04  0.00000000000E+00 0. -1.
          6    2    1    2  501    0  0.79523146494E+02 -0.14899743157E+03 -0.92083585111E+03  0.95200100527E+03  0.17275150910E+03 0.  0.
         24    2    3    3    0    0  0.10359425509E+03 -0.10522379076E+03 -0.47907421272E+03  0.50739895280E+03  0.78343986290E+02 0.  0.
         -6    2    1    2    0  502 -0.79523146494E+02  0.14899743157E+03 -0.46163328986E+03  0.52016811771E+03  0.17013350914E+03 0.  0.
        -24    2    5    5    0    0  0.43364539662E+01  0.10374462503E+03 -0.34710907394E+03  0.37111062840E+03  0.80353203050E+02 0.  0.
          5    1    3    3  501    0 -0.24071108591E+02 -0.43773640812E+02 -0.44176163839E+03  0.44460205246E+03  0.47000000000E+01 0. -1.
        -13    1    4    4    0    0  0.80830888528E+02 -0.10574700940E+03 -0.45581125386E+03  0.47484730354E+03  0.00000000000E+00 0.  1.
         14    1    4    4    0    0  0.22763366557E+02  0.52321864072E+00 -0.23262958855E+02  0.32551649258E+02  0.00000000000E+00 0. -1.
         -5    1    5    5    0  502 -0.83859600460E+02  0.45252806542E+02 -0.11452421591E+03  0.14905748931E+03  0.47000000000E+01 0.  1.
         13    1    6    6    0    0  0.39492670392E+02  0.38015546545E+02 -0.11646287008E+03  0.12871850255E+03  0.00000000000E+00 0. -1.
        -14    1    6    6    0    0 -0.35156216426E+02  0.65729078482E+02 -0.23064620387E+03  0.24239212584E+03  0.00000000000E+00 0.  1.
</event>
<event>
12    1  0.8226261E-002  0.2999023E+03  0.7818608E-02  0.1085483E+00
         21   -1    0    0  501  502  0.00000000000E+00  0.00000000000E+00  0.24403239440E+03  0.24403239440E+03  0.00000000000E+00 0. -1.
         21   -1    0    0  502  503 -0.00000000000E+00 -0.00000000000E+00 -0.36667331852E+03  0.36667331852E+03  0.00000000000E+00 0. -1.
         -6    2    1    2    0  503  0.22010195961E+03 -0.10530559621E+03 -0.62380386024E+02  0.30632126980E+03  0.17437679476E+03 0.  0.
        -24    2    3    3    0    0  0.12691757277E+03 -0.10323898104E+03  0.16411136671E+02  0.18418284465E+03  0.82991790992E+02 0.  0.
          6    2    1    2  501    0 -0.22010195961E+03  0.10530559621E+03 -0.60260538092E+02  0.30438444312E+03  0.17171026628E+03 0.  0.
         24    2    5    5    0    0 -0.16485192728E+03  0.87627599422E+02 -0.10671128868E+03  0.22992076155E+03  0.81372620387E+02 0.  0.
          5    1    5    5  501    0 -0.55250032330E+02  0.17677996791E+02  0.46450750593E+02  0.74463681574E+02  0.47000000000E+01 0. -1.
        -11    1    6    6    0    0 -0.23075039247E+02  0.51349535002E+02 -0.40171188685E+02  0.69158922646E+02  0.00000000000E+00 0.  1.
         12    1    6    6    0    0 -0.14177688804E+03  0.36278064420E+02 -0.66540100000E+02  0.16076183890E+03  0.00000000000E+00 0. -1.
         -5    1    3    3    0  503  0.93184386842E+02 -0.20666151737E+01 -0.78791522695E+02  0.12213842515E+03  0.47000000000E+01 0.  1.
         13    1    4    4    0    0  0.10861735638E+02 -0.52011022837E+02  0.21265868180E+02  0.57230769233E+02  0.00000000000E+00 0. -1.
        -14    1    4    4    0    0  0.11605583713E+03 -0.51227958202E+02 -0.48547315083E+01  0.12695207542E+03  0.00000000000E+00 0.  1.
</event>
<event>
12    1  0.8226261E-002  0.1869528E+03  0.7818608E-02  0.1161351E+00
         21   -1    0    0  501  502  0.00000000000E+00  0.00000000000E+00  0.18015732660E+03  0.18015732660E+03  0.00000000000E+00 0.  1.
         21   -1    0    0  502  503 -0.00000000000E+00 -0.00000000000E+00 -0.31885721837E+03  0.31885721837E+03  0.00000000000E+00 0.  1.
         -6    2    1    2    0  503  0.22307733172E+02  0.64395605709E+02 -0.22584768621E+03  0.29318684654E+03  0.17408882970E+03 0.  0.
        -24    2    3    3    0    0 -0.34512439033E+02  0.18880903596E+02 -0.62298671732E+02  0.11410449059E+03  0.87126995265E+02 0.  0.
          6    2    1    2  501    0 -0.22307733172E+02 -0.64395605709E+02  0.87147794447E+02  0.20582769842E+03  0.17356806839E+03 0.  0.
         24    2    5    5    0    0 -0.43208781753E+01 -0.24363337196E+02  0.12246804807E+03  0.14929700065E+03  0.81724717289E+02 0.  0.
          5    1    5    5  501    0 -0.17986854997E+02 -0.40032268513E+02 -0.35320253623E+02  0.56530697775E+02  0.47000000000E+01 0. -1.
        -11    1    6    6    0    0 -0.39340925459E+02 -0.30344856190E+01  0.85174474783E+02  0.93870163915E+02  0.00000000000E+00 0.  1.
         12    1    6    6    0    0  0.35020047284E+02 -0.21328851577E+02  0.37293573288E+02  0.55426836730E+02  0.00000000000E+00 0. -1.
         -5    1    3    3    0  503  0.56820172205E+02  0.45514702113E+02 -0.16354901448E+03  0.17908235596E+03  0.47000000000E+01 0.  1.
         13    1    4    4    0    0  0.18838743664E+02 -0.19878588205E+02 -0.30180850130E+02  0.40754634662E+02  0.00000000000E+00 0. -1.
        -14    1    4    4    0    0 -0.53351182697E+02  0.38759491800E+02 -0.32117821601E+02  0.73349855925E+02  0.00000000000E+00 0.  1.
</event>
<event>
12    1  0.8226261E-002  0.1840750E+03  0.7818608E-02  0.1164089E+00
         21   -1    0    0  501  502  0.00000000000E+00  0.00000000000E+00  0.16639721582E+04  0.16639721582E+04  0.00000000000E+00 0. -1.
         21   -1    0    0  502  503 -0.00000000000E+00 -0.00000000000E+00 -0.20283161282E+02  0.20283161282E+02  0.00000000000E+00 0. -1.
         -6    2    1    2    0  503 -0.26401377551E+02 -0.59328862731E+02  0.82909994384E+03  0.84928813220E+03  0.17224014613E+03 0.  0.
        -24    2    3    3    0    0 -0.57485424893E+02 -0.87861378480E+02  0.72577039262E+03  0.73757685878E+03  0.79074420039E+02 0.  0.
          6    2    1    2  501    0  0.26401377551E+02  0.59328862731E+02  0.81458905309E+03  0.83496718729E+03  0.17145825074E+03 0.  0.
         24    2    5    5    0    0 -0.41634352887E+02  0.24130524629E+02  0.28159862908E+03  0.29647980052E+03  0.79289234189E+02 0.  0.
          5    1    5    5  501    0  0.68035730438E+02  0.35198338103E+02  0.53299042401E+03  0.53848738677E+03  0.47000000000E+01 0. -1.
        -11    1    6    6    0    0 -0.39479833715E+02 -0.18810798546E+02  0.19438845625E+03  0.19924702090E+03  0.00000000000E+00 0.  1.
         12    1    6    6    0    0 -0.21545191720E+01  0.42941323175E+02  0.87210172827E+02  0.97232779623E+02  0.00000000000E+00 0. -1.
         -5    1    3    3    0  503  0.31084047342E+02  0.28532515749E+02  0.10332955122E+03  0.11171127342E+03  0.47000000000E+01 0.  1.
         13    1    4    4    0    0 -0.51748149204E+02 -0.18228613103E+02  0.20802666765E+03  0.21514006538E+03  0.00000000000E+00 0. -1.
        -14    1    4    4    0    0 -0.57372756886E+01 -0.69632765378E+02  0.51774372497E+03  0.52243679340E+03  0.00000000000E+00 0.  1.
</event>
<event>
12    1  0.8226261E-002  0.2218625E+03  0.7818608E-02  0.1132514E+00
         21   -1    0    0  501  502  0.00000000000E+00  0.00000000000E+00  0.17127525380E+03  0.17127525380E+03  0.00000000000E+00 0.  1.
         21   -1    0    0  502  503 -0.00000000000E+00 -0.00000000000E+00 -0.33491467443E+03  0.33491467443E+03  0.00000000000E+00 0. -1.
         -6    2    1    2    0  503  0.13959867626E+03  0.16474754142E+02  0.13590746348E+02  0.22227841486E+03  0.17165015989E+03 0.  0.
        -24    2    3    3    0    0  0.15554406128E+03  0.51435943852E+02  0.14680901149E+01  0.18171255627E+03  0.78598260153E+02 0.  0.
          6    2    1    2  501    0 -0.13959867626E+03 -0.16474754142E+02 -0.17723016698E+03  0.28391151336E+03  0.17156924956E+03 0.  0.
         24    2    5    5    0    0 -0.16069404748E+02 -0.46387990143E+02 -0.58875556837E+02  0.11017554602E+03  0.79134368947E+02 0.  0.
          5    1    5    5  501    0 -0.12352927151E+03  0.29913236000E+02 -0.11835461014E+03  0.17373596734E+03  0.47000000000E+01 0. -1.
        -11    1    6    6    0    0 -0.17783311538E+02 -0.66175114994E+02 -0.29241493949E+02  0.74501389128E+02  0.00000000000E+00 0.  1.
         12    1    6    6    0    0  0.17139067898E+01  0.19787124851E+02 -0.29634062888E+02  0.35674156887E+02  0.00000000000E+00 0. -1.
         -5    1    3    3    0  503 -0.15945385018E+02 -0.34961189710E+02  0.12122656234E+02  0.40565858594E+02  0.47000000000E+01 0.  1.
         11    1    4    4    0    0  0.11865031181E+03  0.39330836976E+02 -0.33552140765E+02  0.12942394438E+03  0.00000000000E+00 0. -1.
        -12    1    4    4    0    0  0.36893749470E+02  0.12105106876E+02  0.35020230880E+02  0.52288611890E+02  0.00000000000E+00 0.  1.
</event>
<event>
12    1  0.8226261E-002  0.2410017E+03  0.7818608E-02  0.1119358E+00
         21   -1    0    0  503  502  0.00000000000E+00  0.00000000000E+00  0.30869735401E+03  0.30869735401E+03  0.00000000000E+00 0.  1.
         21   -1    0    0  501  503 -0.00000000000E+00 -0.00000000000E+00 -0.34588434068E+03  0.34588434068E+03  0.00000000000E+00 0. -1.
          6    2    1    2  501    0  0.13335292854E+03  0.10415625776E+03 -0.24039962733E+03  0.34040244114E+03  0.17161093070E+03 0.  0.
         24    2    3    3    0    0  0.10370104991E+03  0.66366917123E+01 -0.15345643180E+03  0.20634831432E+03  0.90734761437E+02 0.  0.
         -6    2    1    2    0  502 -0.13335292854E+03 -0.10415625776E+03  0.20321264065E+03  0.31417925355E+03  0.16965169160E+03 0.  0.
        -24    2    5    5    0    0 -0.67865816956E+02 -0.30720148966E+02  0.18342188957E+03  0.21370444235E+03  0.80476719877E+02 0.  0.
          5    1    3    3  501    0  0.29651878624E+02  0.97519566052E+02 -0.86943195529E+02  0.13405412682E+03  0.47000000000E+01 0. -1.
        -11    1    4    4    0    0  0.51159320592E+02  0.27219432074E+02 -0.19751662827E+02  0.61223375849E+02  0.00000000000E+00 0.  1.
         12    1    4    4    0    0  0.52541729320E+02 -0.20582740362E+02 -0.13370476897E+03  0.14512493847E+03  0.00000000000E+00 0. -1.
         -5    1    5    5    0  502 -0.65487111580E+02 -0.73436108798E+02  0.19790751085E+02  0.10047481121E+03  0.47000000000E+01 0.  1.
         13    1    6    6    0    0  0.67481325522E+01 -0.14077306113E+02  0.69072637501E+00  0.15626418120E+02  0.00000000000E+00 0. -1.
        -14    1    6    6    0    0 -0.74613949508E+02 -0.16642842853E+02  0.18273116319E+03  0.19807802423E+03  0.00000000000E+00 0.  1.
</event>
<event>
12    1  0.8226261E-002  0.1840171E+03  0.7818608E-02  0.1164003E+00
         21   -1    0    0  501  502  0.00000000000E+00  0.00000000000E+00  0.72585799603E+02  0.72585799603E+02  0.00000000000E+00 0.  1.
         21   -1    0    0  502  503 -0.00000000000E+00 -0.00000000000E+00 -0.57702290042E+03  0.57702290042E+03  0.00000000000E+00 0.  1.
         -6    2    1    2    0  503  0.28607212598E+02 -0.59639623906E+02 -0.10978227562E+03  0.21416096963E+03  0.17157364459E+03 0.  0.
        -24    2    3    3    0    0  0.32209200789E+02  0.27300011119E+02 -0.25280477453E+02  0.92776792934E+02  0.78649269191E+02 0.  0.
          6    2    1    2  501    0 -0.28607212598E+02  0.59639623906E+02 -0.39465482519E+03  0.43544773039E+03  0.17171790095E+03 0.  0.
         24    2    5    5    0    0 -0.78200155337E+02  0.14412407502E+02 -0.19451672936E+03  0.22430249963E+03  0.78433867388E+02 0.  0.
          5    1    5    5  501    0  0.49592942739E+02  0.45227216404E+02 -0.20013809583E+03  0.21114523077E+03  0.47000000000E+01 0. -1.
        -11    1    6    6    0    0 -0.84800135259E+01 -0.80586527304E+01  0.42664267004E+01  0.12452104642E+02  0.00000000000E+00 0.  1.
         12    1    6    6    0    0 -0.69720141811E+02  0.22471060232E+02 -0.19878315606E+03  0.21185039498E+03  0.00000000000E+00 0. -1.
         -5    1    3    3    0  503 -0.36019881919E+01 -0.86939635024E+02 -0.84501798170E+02  0.12138417669E+03  0.47000000000E+01 0.  1.
         11    1    4    4    0    0 -0.24111724717E+02  0.11023977652E+02  0.47070072878E+01  0.26926924624E+02  0.00000000000E+00 0. -1.
        -12    1    4    4    0    0  0.56320925507E+02  0.16276033467E+02 -0.29987484741E+02  0.65849868310E+02  0.00000000000E+00 0.  1.
</event>
<event>
12    1  0.8226261E-002  0.2137154E+03  0.7818608E-02  0.1139563E+00
         21   -1    0    0  501  502  0.00000000000E+00  0.00000000000E+00  0.38192398679E+02  0.38192398679E+02  0.00000000000E+00 0. -1.
         21   -1    0    0  502  503 -0.00000000000E+00 -0.00000000000E+00 -0.13969484656E+04  0.13969484656E+04  0.00000000000E+00 0. -1.
         -6    2    1    2    0  503 -0.69789149814E+02  0.96358434468E+02 -0.39648501112E+03  0.45041607219E+03  0.17753535063E+03 0.  0.
        -24    2    3    3    0    0 -0.11080713481E+03  0.59905845613E+02 -0.23101730671E+03  0.27602307483E+03  0.83383513809E+02 0.  0.
          6    2    1    2  501    0  0.69789149814E+02 -0.96358434468E+02 -0.96227105576E+03  0.98472479204E+03  0.17193562163E+03 0.  0.
         24    2    5    5    0    0 -0.22615773615E+02 -0.47615020220E+02 -0.48754018968E+03  0.49861155882E+03  0.90218549468E+02 0.  0.
          5    1    5    5  501    0  0.92404923429E+02 -0.48743414248E+02 -0.47473086607E+03  0.48611323322E+03  0.47000000000E+01 0. -1.
        -11    1    6    6    0    0  0.12689789015E+02  0.16847429233E+02 -0.41455528390E+02  0.46512659041E+02  0.00000000000E+00 0.  1.
         12    1    6    6    0    0 -0.35305562629E+02 -0.64462449453E+02 -0.44608466129E+03  0.45209889978E+03  0.00000000000E+00 0. -1.
         -5    1    3    3    0  503  0.41017984995E+02  0.36452588855E+02 -0.16546770441E+03  0.17439299736E+03  0.47000000000E+01 0.  1.
         13    1    4    4    0    0 -0.33952430818E+02  0.20117617050E+02 -0.15780855437E+03  0.16266845394E+03  0.00000000000E+00 0. -1.
        -14    1    4    4    0    0 -0.76854703991E+02  0.39788228563E+02 -0.73208752334E+02  0.11335462089E+03  0.00000000000E+00 0.  1.
</event>
<event>
12    1  0.8226261E-002  0.1971835E+03  0.7818608E-02  0.1152354E+00
         21   -1    0    0  501  502  0.00000000000E+00  0.00000000000E+00  0.14943935643E+03  0.14943935643E+03  0.00000000000E+00 0. -1.
         21   -1    0    0  502  503 -0.00000000000E+00 -0.00000000000E+00 -0.26769057339E+03  0.26769057339E+03  0.00000000000E+00 0. -1.
         -6    2    1    2    0  503 -0.82859777725E+02 -0.44434538850E+02 -0.96870483311E+02  0.21879068301E+03  0.17217810961E+03 0.  0.
        -24    2    3    3    0    0 -0.95099094039E+02 -0.82647080135E+02 -0.97043540321E+02  0.17839118891E+03  0.80818253013E+02 0.  0.
          6    2    1    2  501    0  0.82859777725E+02  0.44434538850E+02 -0.21380733648E+02  0.19833924680E+03  0.17332382999E+03 0.  0.
         24    2    5    5    0    0  0.45796649036E+02 -0.23790275923E+02  0.36930373953E+02  0.10112517308E+03  0.78734603697E+02 0.  0.
          5    1    5    5  501    0  0.37063128689E+02  0.68224814773E+02 -0.58311107602E+02  0.97214073717E+02  0.47000000000E+01 0. -1.
        -13    1    6    6    0    0  0.10182468649E+01  0.24690406328E+02 -0.14969925634E+01  0.24756695621E+02  0.00000000000E+00 0.  1.
         14    1    6    6    0    0  0.44778402171E+02 -0.48480682251E+02  0.38427366517E+02  0.76368477462E+02  0.00000000000E+00 0. -1.
         -5    1    3    3    0  503  0.12239316314E+02  0.38212541285E+02  0.17305701016E+00  0.40399494106E+02  0.47000000000E+01 0.  1.
         13    1    4    4    0    0 -0.49861349648E+02  0.58422817766E+01 -0.29487560142E+02  0.58222011716E+02  0.00000000000E+00 0. -1.
        -14    1    4    4    0    0 -0.45237744391E+02 -0.88489361912E+02 -0.67555980180E+02  0.12016917719E+03  0.00000000000E+00 0.  1.
</event>
<event>
12    1  0.8226261E-002  0.2574042E+03  0.7818608E-02  0.1108739E+00
         21   -1    0    0  503  502  0.00000000000E+00  0.00000000000E+00  0.14742493469E+03  0.14742493469E+03  0.00000000000E+00 0.  1.
         21   -1    0    0  501  503 -0.00000000000E+00 -0.00000000000E+00 -0.45361102770E+03  0.45361102770E+03  0.00000000000E+00 0.  1.
          6    2    1    2  501    0  0.16811521272E+03  0.92470086502E+02 -0.18299946270E+03  0.31582546711E+03  0.17159102740E+03 0.  0.
         24    2    3    3    0    0  0.15422446908E+03  0.13079807104E+03 -0.14960942061E+03  0.26292015483E+03  0.76489913249E+02 0.  0.
         -6    2    1    2    0  502 -0.16811521272E+03 -0.92470086502E+02 -0.12318663031E+03  0.28521049528E+03  0.17133779234E+03 0.  0.
        -24    2    5    5    0    0 -0.17325550413E+03 -0.12012869796E+03 -0.12760878678E+03  0.25634759778E+03  0.70581262669E+02 0.  0.
          5    1    3    3  501    0  0.13890743638E+02 -0.38327984536E+02 -0.33390042091E+02  0.52905312288E+02  0.47000000000E+01 0. -1.
        -11    1    4    4    0    0  0.13167949232E+03  0.68460143922E+02 -0.11732917963E+03  0.18918883792E+03  0.00000000000E+00 0.  1.
         12    1    4    4    0    0  0.22544976761E+02  0.62337927116E+02 -0.32280240981E+02  0.73731316901E+02  0.00000000000E+00 0. -1.
         -5    1    5    5    0  502  0.51402914121E+01  0.27658611463E+02  0.44221564687E+01  0.28862897493E+02  0.47000000000E+01 0.  1.
         13    1    6    6    0    0 -0.99680611558E+02 -0.40939083976E+02 -0.94419252592E+02  0.14327326400E+03  0.00000000000E+00 0. -1.
        -14    1    6    6    0    0 -0.73574892573E+02 -0.79189613989E+02 -0.33189534183E+02  0.11307433378E+03  0.00000000000E+00 0.  1.
</event>
<event>
12    1  0.8226261E-002  0.2327328E+03  0.7818608E-02  0.1124775E+00
         21   -1    0    0  501  502  0.00000000000E+00  0.00000000000E+00  0.23080548253E+03  0.23080548253E+03  0.00000000000E+00 0. -1.
         21   -1    0    0  502  503 -0.00000000000E+00 -0.00000000000E+00 -0.32813397831E+03  0.32813397831E+03  0.00000000000E+00 0. -1.
         -6    2    1    2    0  503  0.14285559275E+03 -0.64123223158E+02 -0.19803618564E+03  0.30558611600E+03  0.17217733690E+03 0.  0.
        -24    2    3    3    0    0  0.14878248572E+03 -0.76658399402E+02 -0.21428891324E+03  0.28371147639E+03  0.80992130741E+02 0.  0.
          6    2    1    2  501    0 -0.14285559275E+03  0.64123223158E+02  0.10070768986E+03  0.25335334484E+03  0.17183239049E+03 0.  0.
         24    2    5    5    0    0 -0.17745874238E+02  0.40149096161E+02  0.88476840317E+02  0.12529521698E+03  0.77096524898E+02 0.  0.
          5    1    5    5  501    0 -0.12510971851E+03  0.23974126997E+02  0.12230849541E+02  0.12805812786E+03  0.47000000000E+01 0. -1.
        -11    1    6    6    0    0 -0.21875625977E+02  0.16211105450E+02  0.96062605659E+02  0.99846718313E+02  0.00000000000E+00 0.  1.
         12    1    6    6    0    0  0.41297517397E+01  0.23937990712E+02 -0.75857653426E+01  0.25448498670E+02  0.00000000000E+00 0. -1.
         -5    1    3    3    0  503 -0.59268929689E+01  0.12535176244E+02  0.16252727601E+02  0.21874639613E+02  0.47000000000E+01 0.  1.
         11    1    4    4    0    0  0.78589286585E+02 -0.84389632021E+02 -0.13362619337E+03  0.17650451981E+03  0.00000000000E+00 0. -1.
        -12    1    4    4    0    0  0.70193199132E+02  0.77312326184E+01 -0.80662719873E+02  0.10720695658E+03  0.00000000000E+00 0.  1.
</event>
<event>
12    1  0.8226261E-002  0.2232443E+03  0.7818608E-02  0.1131533E+00
         21   -1    0    0  501  502  0.00000000000E+00  0.00000000000E+00  0.26704209818E+03  0.26704209818E+03  0.00000000000E+00 0. -1.
         21   -1    0    0  502  503 -0.00000000000E+00 -0.00000000000E+00 -0.25294368249E+03  0.25294368249E+03  0.00000000000E+00 0. -1.
         -6    2    1    2    0  503  0.89382011649E+02  0.11015127084E+03  0.14038233747E+03  0.26371424227E+03  0.17238200147E+03 0.  0.
        -24    2    3    3    0    0  0.87702091083E+02  0.10365437540E+02  0.99814531855E+02  0.15588163351E+03  0.80851987115E+02 0.  0.
          6    2    1    2  501    0 -0.89382011649E+02 -0.11015127084E+03 -0.12628392178E+03  0.25627153839E+03  0.17206111129E+03 0.  0.
         24    2    5    5    0    0 -0.86636616927E+02 -0.59891372352E+02 -0.15067411737E+03  0.20014163346E+03  0.79127137719E+02 0.  0.
          5    1    5    5  501    0 -0.27453947219E+01 -0.50259898485E+02  0.24390195583E+02  0.56129904939E+02  0.47000000000E+01 0. -1.
        -13    1    6    6    0    0 -0.13161573703E+02 -0.37089558231E+02 -0.11301633846E+02  0.40946175398E+02  0.00000000000E+00 0.  1.
         14    1    6    6    0    0 -0.73475043224E+02 -0.22801814121E+02 -0.13937248352E+03  0.15919545806E+03  0.00000000000E+00 0. -1.
         -5    1    3    3    0  503  0.16799205664E+01  0.99785833297E+02  0.40567805614E+02  0.10783260876E+03  0.47000000000E+01 0.  1.
         13    1    4    4    0    0 -0.14624879212E+01 -0.10615600327E+02  0.50947045268E+02  0.52061802339E+02  0.00000000000E+00 0. -1.
        -14    1    4    4    0    0  0.89164579004E+02  0.20981037867E+02  0.48867486587E+02  0.10381983117E+03  0.00000000000E+00 0.  1.
</event>
<event>
12    1  0.8226261E-002  0.1999290E+03  0.7818608E-02  0.1151336E+00
         21   -1    0    0  503  502  0.00000000000E+00  0.00000000000E+00  0.50954987437E+03  0.50954987437E+03  0.00000000000E+00 0.  1.
         21   -1    0    0  501  503 -0.00000000000E+00 -0.00000000000E+00 -0.88840048417E+02  0.88840048417E+02  0.00000000000E+00 0.  1.
          6    2    1    2  501    0 -0.82986745439E+02  0.22939330120E+02  0.91900603424E+02  0.21356905895E+03  0.17249060625E+03 0.  0.
         24    2    3    3    0    0 -0.92485883227E+02 -0.12462376113E+02  0.11626214576E+03  0.16930745970E+03  0.80244501121E+02 0.  0.
         -6    2    1    2    0  502  0.82986745439E+02 -0.22939330120E+02  0.32880922252E+03  0.38482086383E+03  0.18043996131E+03 0.  0.
        -24    2    5    5    0    0  0.41016745125E+02  0.23407162154E+02  0.65218854367E+02  0.11387538877E+03  0.80522273822E+02 0.  0.
          5    1    3    3  501    0  0.94991377880E+01  0.35401706233E+02 -0.24361542335E+02  0.44261599246E+02  0.47000000000E+01 0. -1.
        -11    1    4    4    0    0 -0.46089775378E+01  0.16222245582E+02 -0.42820208188E+01  0.17399414587E+02  0.00000000000E+00 0.  1.
         12    1    4    4    0    0 -0.87876905689E+02 -0.28684621695E+02  0.12054416658E+03  0.15190804512E+03  0.00000000000E+00 0. -1.
         -5    1    5    5    0  502  0.41970000314E+02 -0.46346492275E+02  0.26359036816E+03  0.27094547506E+03  0.47000000000E+01 0.  1.
         11    1    6    6    0    0  0.30167743554E+02  0.48486315176E+02  0.18999902372E+02  0.60183152133E+02  0.00000000000E+00 0. -1.
        -12    1    6    6    0    0  0.10849001571E+02 -0.25079153022E+02  0.46218951995E+02  0.53692236635E+02  0.00000000000E+00 0.  1.
</event>
<event>
12    1  0.8226261E-002  0.2312584E+03  0.7818608E-02  0.1126508E+00
         21   -1    0    0  503  502  0.00000000000E+00  0.00000000000E+00  0.11255927878E+03  0.11255927878E+03  0.00000000000E+00 0.  1.
         21   -1    0    0  501  503 -0.00000000000E+00 -0.00000000000E+00 -0.10525788851E+04  0.10525788851E+04  0.00000000000E+00 0. -1.
          6    2    1    2  501    0  0.60504415660E+02 -0.13581358950E+03 -0.90667113511E+03  0.93569921050E+03  0.17712806064E+03 0.  0.
         24    2    3    3    0    0  0.35162461377E+02 -0.44635392235E+02 -0.71597590822E+03  0.72276157206E+03  0.80833606624E+02 0.  0.
         -6    2    1    2    0  502 -0.60504415660E+02  0.13581358950E+03 -0.33348471175E+02  0.22943895335E+03  0.17153424549E+03 0.  0.
        -24    2    5    5    0    0  0.36247946564E+02  0.11135581031E+03 -0.21495059426E+02  0.12883181678E+03  0.49209443348E+02 0.  0.
          5    1    3    3  501    0  0.25341954283E+02 -0.91178197270E+02 -0.19069522689E+03  0.21293763844E+03  0.47000000000E+01 0. -1.
        -13    1    4    4    0    0 -0.10151661575E+02  0.14129726706E+02 -0.56353522842E+02  0.58978173473E+02  0.00000000000E+00 0.  1.
         14    1    4    4    0    0  0.45314122952E+02 -0.58765118941E+02 -0.65962238538E+03  0.66378339859E+03  0.00000000000E+00 0. -1.
         -5    1    5    5    0  502 -0.96752362224E+02  0.24457779193E+02 -0.11853411749E+02  0.10060713657E+03  0.47000000000E+01 0.  1.
         13    1    6    6    0    0  0.18348602785E+01  0.81168142484E+02 -0.11843326529E+02  0.82048147144E+02  0.00000000000E+00 0. -1.
        -14    1    6    6    0    0  0.34413086285E+02  0.30187667827E+02 -0.96517328970E+01  0.46783669634E+02  0.00000000000E+00 0.  1.
</event>
<event>
12    1  0.8226261E-002  0.1821125E+03  0.7818608E-02  0.1166291E+00
         21   -1    0    0  503  502  0.00000000000E+00  0.00000000000E+00  0.32481346498E+03  0.32481346498E+03  0.00000000000E+00 0. -1.
         21   -1    0    0  501  503 -0.00000000000E+00 -0.00000000000E+00 -0.35304681055E+03  0.35304681055E+03  0.00000000000E+00 0. -1.
          6    2    1    2  501    0  0.25714639298E+02 -0.47717130457E+02 -0.30057121332E+03  0.35143708474E+03  0.17385857195E+03 0.  0.
         24    2    3    3    0    0  0.51771778436E+01  0.42872882445E+02 -0.13492357648E+03  0.16146454106E+03  0.77469602491E+02 0.  0.
         -6    2    1    2    0  502 -0.25714639298E+02  0.47717130457E+02  0.27233786775E+03  0.32642319079E+03  0.17159842092E+03 0.  0.
        -24    2    5    5    0    0 -0.36575167662E+01 -0.25574474067E+01  0.25674649011E+03  0.26915862155E+03  0.80670226267E+02 0.  0.
          5    1    3    3  501    0  0.20537461454E+02 -0.90590012901E+02 -0.16564763685E+03  0.18997254368E+03  0.47000000000E+01 0. -1.
        -13    1    4    4    0    0 -0.24309425585E+02 -0.34923674441E+01 -0.80356960660E+02  0.84026102665E+02  0.00000000000E+00 0.  1.
         14    1    4    4    0    0  0.29486603428E+02  0.46365249889E+02 -0.54566615819E+02  0.77438438394E+02  0.00000000000E+00 0. -1.
         -5    1    5    5    0  502 -0.22057122532E+02  0.50274577863E+02  0.15591377644E+02  0.57264569243E+02  0.47000000000E+01 0.  1.
         11    1    6    6    0    0  0.16592743403E+02 -0.35007434045E+02  0.16991729852E+03  0.17427773210E+03  0.00000000000E+00 0. -1.
        -12    1    6    6    0    0 -0.20250260169E+02  0.32449986638E+02  0.86829191589E+02  0.94880889444E+02  0.00000000000E+00 0.  1.
</event>
<event>
12    1  0.8226261E-002  0.1770334E+03  0.7818608E-02  0.1170834E+00
         21   -1    0    0  501  502  0.00000000000E+00  0.00000000000E+00  0.26729365730E+04  0.26729365730E+04  0.00000000000E+00 0. -1.
         21   -1    0    0  502  503 -0.00000000000E+00 -0.00000000000E+00 -0.15791972196E+02  0.15791972196E+02  0.00000000000E+00 0. -1.
         -6    2    1    2    0  503  0.37447671026E+01 -0.43697856411E+02  0.64493070670E+03  0.66878728673E+03  0.17151470057E+03 0.  0.
        -24    2    3    3    0    0 -0.31142605197E+02  0.21557423730E+02  0.47571769042E+03  0.48404282752E+03  0.80966372739E+02 0.  0.
          6    2    1    2  501    0 -0.37447671026E+01  0.43697856411E+02  0.20122138941E+04  0.20199412585E+04  0.17098071848E+03 0.  0.
         24    2    5    5    0    0 -0.42376585811E+02  0.80467980123E+02  0.14368840400E+04  0.14421255522E+04  0.82580221453E+02 0.  0.
          5    1    5    5  501    0  0.38631818708E+02 -0.36770123712E+02  0.57532985416E+03  0.57781570635E+03  0.47000000000E+01 0. -1.
        -13    1    6    6    0    0 -0.49654938431E+02  0.13700439041E+02  0.81475276575E+03  0.81637943644E+03  0.00000000000E+00 0.  1.
         14    1    6    6    0    0  0.72783526204E+01  0.66767541082E+02  0.62213127423E+03  0.62574611571E+03  0.00000000000E+00 0. -1.
         -5    1    3    3    0  503  0.34887372300E+02 -0.65255280141E+02  0.16921301628E+03  0.18474445922E+03  0.47000000000E+01 0.  1.
         13    1    4    4    0    0 -0.47415690268E+02  0.94925297118E+01  0.44250716774E+03  0.44514149358E+03  0.00000000000E+00 0. -1.
        -14    1    4    4    0    0  0.16273085071E+02  0.12064894018E+02  0.33210522678E+02  0.38901333935E+02  0.00000000000E+00 0.  1.
</event>
<event>
12    1  0.8226261E-002  0.1872691E+03  0.7818608E-02  0.1161725E+00
         21   -1    0    0  503  502  0.00000000000E+00  0.00000000000E+00  0.59748255332E+03  0.59748255332E+03  0.00000000000E+00 0. -1.
         21   -1    0    0  501  503 -0.00000000000E+00 -0.00000000000E+00 -0.60734394395E+02  0.60734394395E+02  0.00000000000E+00 0. -1.
          6    2    1    2  501    0 -0.63873346026E+02 -0.95250864873E+01  0.19650999533E+03  0.27145146238E+03  0.17578164455E+03 0.  0.
         24    2    3    3    0    0 -0.73639724450E+02 -0.38651775553E+02  0.20821404309E+03  0.23824271508E+03  0.80558890141E+02 0.  0.
         -6    2    1    2    0  502  0.63873346026E+02  0.95250864873E+01  0.34023816360E+03  0.38676548534E+03  0.17220627478E+03 0.  0.
        -24    2    5    5    0    0 -0.69726500665E+01 -0.30907366846E+02  0.21134311217E+03  0.23415499184E+03  0.95701441806E+02 0.  0.
          5    1    3    3  501    0  0.97663784239E+01  0.29126689066E+02 -0.11704047755E+02  0.33208747301E+02  0.47000000000E+01 0. -1.
        -11    1    4    4    0    0  0.17712016480E+02 -0.58778772358E+01  0.30582636891E+02  0.35826842560E+02  0.00000000000E+00 0.  1.
         12    1    4    4    0    0 -0.91351740930E+02 -0.32773898317E+02  0.17763140620E+03  0.20241587252E+03  0.00000000000E+00 0. -1.
         -5    1    5    5    0  502  0.70845996092E+02  0.40432453334E+02  0.12889505142E+03  0.15261049350E+03  0.47000000000E+01 0.  1.
         13    1    6    6    0    0 -0.14365031799E+02 -0.16435675326E+02  0.21611798441E+03  0.21721756086E+03  0.00000000000E+00 0. -1.
        -14    1    6    6    0    0  0.73923817324E+01 -0.14471691520E+02 -0.47748722344E+01  0.16937430974E+02  0.00000000000E+00 0.  1.
</event>
<event>
12    1  0.8226261E-002  0.2488568E+03  0.7818608E-02  0.1114213E+00
         21   -1    0    0  501  502  0.00000000000E+00  0.00000000000E+00  0.41038315256E+03  0.41038315256E+03  0.00000000000E+00 0.  1.
         21   -1    0    0  502  503 -0.00000000000E+00 -0.00000000000E+00 -0.49507739110E+03  0.49507739110E+03  0.00000000000E+00 0.  1.
         -6    2    1    2    0  503 -0.15869652259E+03  0.83734889353E+02 -0.42017535467E+03  0.48775578395E+03  0.17076960541E+03 0.  0.
        -24    2    3    3    0    0 -0.15773883666E+03  0.63019884224E+02 -0.23143145707E+03  0.29781795866E+03  0.79258884528E+02 0.  0.
          6    2    1    2  501    0  0.15869652259E+03 -0.83734889353E+02  0.33548111613E+03  0.41770475971E+03  0.17243424553E+03 0.  0.
         24    2    5    5    0    0  0.16510593999E+03 -0.35067275541E+02  0.20115694554E+03  0.27461496249E+03  0.80371485304E+02 0.  0.
          5    1    5    5  501    0 -0.64094173962E+01 -0.48667613811E+02  0.13432417059E+03  0.14308979722E+03  0.47000000000E+01 0. -1.
        -13    1    6    6    0    0  0.33362509339E+02 -0.42599222535E+02  0.70990039490E+02  0.89259937804E+02  0.00000000000E+00 0.  1.
         14    1    6    6    0    0  0.13174343065E+03  0.75319469936E+01  0.13016690605E+03  0.18535502468E+03  0.00000000000E+00 0. -1.
         -5    1    3    3    0  503 -0.95768593485E+00  0.20715005129E+02 -0.18874389759E+03  0.18993782530E+03  0.47000000000E+01 0.  1.
         11    1    4    4    0    0 -0.62285442017E+02  0.57138936371E+02 -0.68085663608E+02  0.10853567121E+03  0.00000000000E+00 0. -1.
        -12    1    4    4    0    0 -0.95453394642E+02  0.58809478527E+01 -0.16334579347E+03  0.18928228744E+03  0.00000000000E+00 0.  1.
</event>
<event>
12    1  0.8226261E-002  0.1935051E+03  0.7818608E-02  0.1155409E+00
         21   -1    0    0  501  502  0.00000000000E+00  0.00000000000E+00  0.82421037664E+02  0.82421037664E+02  0.00000000000E+00 0. -1.
         21   -1    0    0  502  503 -0.00000000000E+00 -0.00000000000E+00 -0.64423553692E+03  0.64423553692E+03  0.00000000000E+00 0.  1.
         -6    2    1    2    0  503  0.18885981209E+01  0.93487808488E+02 -0.47874889093E+03  0.51637651623E+03  0.16941271739E+03 0.  0.
        -24    2    3    3    0    0  0.31791353817E+02  0.53149041967E+02 -0.13179155395E+03  0.16577293016E+03  0.79222091883E+02 0.  0.
          6    2    1    2  501    0 -0.18885981209E+01 -0.93487808488E+02 -0.83065608329E+02  0.21028005835E+03  0.16903925732E+03 0.  0.
         24    2    5    5    0    0  0.44642662337E+02 -0.40593323377E+02 -0.95294082756E+02  0.13862386293E+03  0.80590495490E+02 0.  0.
          5    1    5    5  501    0 -0.46531260458E+02 -0.52894485111E+02  0.12228474427E+02  0.71656195417E+02  0.47000000000E+01 0. -1.
        -13    1    6    6    0    0 -0.11128106656E+02 -0.24700246405E+02 -0.70553012720E+02  0.75575555136E+02  0.00000000000E+00 0.  1.
         14    1    6    6    0    0  0.55770768993E+02 -0.15893076972E+02 -0.24741070035E+02  0.63048307798E+02  0.00000000000E+00 0. -1.
         -5    1    3    3    0  503 -0.29902755696E+02  0.40338766521E+02 -0.34695733698E+03  0.35060358607E+03  0.47000000000E+01 0.  1.
         13    1    4    4    0    0  0.31757282289E+02 -0.10916795576E+02 -0.27633984608E+02  0.43489521834E+02  0.00000000000E+00 0. -1.
        -14    1    4    4    0    0  0.34071527835E-01  0.64065837543E+02 -0.10415756934E+03  0.12228340833E+03  0.00000000000E+00 0.  1.
</event>
<event>
12    1  0.8226261E-002  0.2310602E+03  0.7818608E-02  0.1126344E+00
         21   -1    0    0  503  502  0.00000000000E+00  0.00000000000E+00  0.44451518147E+03  0.44451518147E+03  0.00000000000E+00 0.  1.
         21   -1    0    0  501  503 -0.00000000000E+00 -0.00000000000E+00 -0.11997911591E+03  0.11997911591E+03  0.00000000000E+00 0.  1.
          6    2    1    2  501    0 -0.45585037423E+02  0.14668234207E+03  0.13322097831E+03  0.26451051221E+03  0.16918710617E+03 0.  0.
         24    2    3    3    0    0 -0.91442176236E+02  0.12343495170E+03  0.93004436217E+02  0.19906757067E+03  0.85908169815E+02 0.  0.
         -6    2    1    2    0  502  0.45585037423E+02 -0.14668234207E+03  0.19131508724E+03  0.29998378517E+03  0.17261258253E+03 0.  0.
        -24    2    5    5    0    0  0.39644567167E+02 -0.77748412395E+02  0.19813301452E+03  0.23030057356E+03  0.78518503593E+02 0.  0.
          5    1    3    3  501    0  0.45857138812E+02  0.23247390375E+02  0.40216542097E+02  0.65442941541E+02  0.47000000000E+01 0. -1.
        -13    1    4    4    0    0 -0.38094285789E+02  0.56954498419E+02 -0.55752255884E+01  0.68746437291E+02  0.00000000000E+00 0.  1.
         14    1    4    4    0    0 -0.53347890447E+02  0.66480453277E+02  0.98579661805E+02  0.13032113338E+03  0.00000000000E+00 0. -1.
         -5    1    5    5    0  502  0.59404702563E+01 -0.68933929675E+02 -0.68179272764E+01  0.69683211605E+02  0.47000000000E+01 0.  1.
         13    1    6    6    0    0  0.14355733097E+01  0.85725611396E+01  0.73196449783E+02  0.73710717918E+02  0.00000000000E+00 0. -1.
        -14    1    6    6    0    0  0.38208993857E+02 -0.86320973535E+02  0.12493656473E+03  0.15658985564E+03  0.00000000000E+00 0.  1.
</event>
<event>
12    1  0.8226261E-002  0.1809489E+03  0.7818608E-02  0.1167875E+00
         21   -1    0    0  503  502  0.00000000000E+00  0.00000000000E+00  0.30450773407E+02  0.30450773407E+02  0.00000000000E+00 0.  1.
         21   -1    0    0  501  503 -0.00000000000E+00 -0.00000000000E+00 -0.12184206011E+04  0.12184206011E+04  0.00000000000E+00 0.  1.
          6    2    1    2  501    0  0.36615866286E+02 -0.42203057495E+02 -0.81943152169E+03  0.83830716547E+03  0.16783642399E+03 0.  0.
         24    2    3    3    0    0  0.60667475129E+02 -0.77763493384E+02 -0.69517291297E+03  0.70675749300E+03  0.80703602966E+02 0.  0.
         -6    2    1    2    0  502 -0.36615866286E+02  0.42203057495E+02 -0.36853830599E+03  0.41056420902E+03  0.17210655717E+03 0.  0.
        -24    2    5    5    0    0 -0.64803927093E+00  0.42077953546E+02 -0.36281947731E+03  0.37384234588E+03  0.79681568313E+02 0.  0.
          5    1    3    3  501    0 -0.24051608843E+02  0.35560435889E+02 -0.12425860872E+03  0.13154967248E+03  0.47000000000E+01 0. -1.
        -11    1    4    4    0    0 -0.42652097676E+01 -0.53983043435E+01 -0.29003239188E+03  0.29011398112E+03  0.00000000000E+00 0.  1.
         12    1    4    4    0    0  0.64932684896E+02 -0.72365189040E+02 -0.40514052110E+03  0.41664351188E+03  0.00000000000E+00 0. -1.
         -5    1    5    5    0  502 -0.35967827015E+02  0.12510394880E+00 -0.57188286811E+01  0.36721863142E+02  0.47000000000E+01 0.  1.
         13    1    6    6    0    0  0.38476676586E+02  0.30524813063E+02 -0.21059340495E+03  0.21624477118E+03  0.00000000000E+00 0. -1.
        -14    1    6    6    0    0 -0.39124715857E+02  0.11553140483E+02 -0.15222607236E+03  0.15759757470E+03  0.00000000000E+00 0.  1.
</event>
<event>
12    1  0.8226261E-002  0.1739199E+03  0.7818608E-02  0.1173929E+00
         21   -1    0    0  501  502  0.00000000000E+00  0.00000000000E+00  0.70320834089E+03  0.70320834089E+03  0.00000000000E+00 0.  1.
         21   -1    0    0  502  503 -0.00000000000E+00 -0.00000000000E+00 -0.10456608265E+03  0.10456608265E+03  0.00000000000E+00 0.  1.
         -6    2    1    2    0  503 -0.14821692973E+02 -0.52917859558E+01 -0.10667520800E+02  0.17424676009E+03  0.17320638505E+03 0.  0.
        -24    2    3    3    0    0 -0.56841896881E+02  0.31867976187E+02 -0.43221245676E+02  0.10922076174E+03  0.76253062689E+02 0.  0.
          6    2    1    2  501    0  0.14821692973E+02  0.52917859558E+01  0.60930977903E+03  0.63352766344E+03  0.17277502117E+03 0.  0.
         24    2    5    5    0    0  0.32788988272E+02 -0.23232063374E+02  0.14024734296E+03  0.16323191328E+03  0.73215393102E+02 0.  0.
          5    1    5    5  501    0 -0.17967295299E+02  0.28523849330E+02  0.46906243608E+03  0.47029575016E+03  0.47000000000E+01 0. -1.
        -11    1    6    6    0    0  0.13755250560E+02  0.24438029692E+02  0.27155047826E+02  0.39036147807E+02  0.00000000000E+00 0.  1.
         12    1    6    6    0    0  0.19033737712E+02 -0.47670093066E+02  0.11309229513E+03  0.12419576548E+03  0.00000000000E+00 0. -1.
         -5    1    3    3    0  503  0.42020203908E+02 -0.37159762142E+02  0.32553724876E+02  0.65025998356E+02  0.47000000000E+01 0.  1.
         11    1    4    4    0    0 -0.53982533955E+02  0.40470870071E+02 -0.25130560516E+01  0.67515337126E+02  0.00000000000E+00 0. -1.
        -12    1    4    4    0    0 -0.28593629262E+01 -0.86028938845E+01 -0.40708189625E+02  0.41705424612E+02  0.00000000000E+00 0.  1.
</event>
<event>
12    1  0.8226261E-002  0.2188600E+03  0.7818608E-02  0.1134871E+00
         21   -1    0    0  501  502  0.00000000000E+00  0.00000000000E+00  0.28922747729E+03  0.28922747729E+03  0.00000000000E+00 0.  1.
         21   -1    0    0  502  503 -0.00000000000E+00 -0.00000000000E+00 -0.39769338411E+03  0.39769338411E+03  0.00000000000E+00 0. -1.
         -6    2    1    2    0  503  0.62378787483E+02  0.11974603465E+03 -0.31695149384E+03  0.38517261870E+03  0.17224828243E+03 0.  0.
        -24    2    3    3    0    0  0.70194242066E+02  0.75140517503E+02 -0.10095551116E+03  0.16443048853E+03  0.79196220473E+02 0.  0.
          6    2    1    2  501    0 -0.62378787483E+02 -0.11974603465E+03  0.20848558703E+03  0.30174824270E+03  0.17133457338E+03 0.  0.
         24    2    5    5    0    0 -0.63850293140E+02 -0.28292082414E+02  0.47222030858E+02  0.11629200728E+03  0.80103738356E+02 0.  0.
          5    1    5    5  501    0  0.14715056566E+01 -0.91453952234E+02  0.16126355617E+03  0.18545623542E+03  0.47000000000E+01 0. -1.
        -11    1    6    6    0    0  0.54439856894E+01  0.56321426934E+01  0.37756819222E+02  0.38560801461E+02  0.00000000000E+00 0.  1.
         12    1    6    6    0    0 -0.69294278829E+02 -0.33924225107E+02  0.94652116356E+01  0.77731205824E+02  0.00000000000E+00 0. -1.
         -5    1    3    3    0  503 -0.78154545835E+01  0.44605517145E+02 -0.21599598269E+03  0.22074213016E+03  0.47000000000E+01 0.  1.
         13    1    4    4    0    0  0.24570312505E+02  0.59037992823E+02 -0.96606353509E+02  0.11585323643E+03  0.00000000000E+00 0. -1.
        -14    1    4    4    0    0  0.45623929562E+02  0.16102524680E+02 -0.43491576464E+01  0.48577252104E+02  0.00000000000E+00 0.  1.
</event>
<event>
12    1  0.8226261E-002  0.3286514E+03  0.7818608E-02  0.1071996E+00
         21   -1    0    0  501  502  0.00000000000E+00  0.00000000000E+00  0.71901599526E+03  0.71901599526E+03  0.00000000000E+00 0. -1.
         21   -1    0    0  502  503 -0.00000000000E+00 -0.00000000000E+00 -0.41421585573E+03  0.41421585573E+03  0.00000000000E+00 0.  1.
         -6    2    1    2    0  503 -0.45614665865E+02 -0.27537461220E+03 -0.30105694434E+03  0.44397535115E+03  0.16901761420E+03 0.  0.
        -24    2    3    3    0    0  0.77931964880E+01 -0.10595362076E+03 -0.64258794666E+02  0.14791568522E+03  0.80392497030E+02 0.  0.
          6    2    1    2  501    0  0.45614665865E+02  0.27537461220E+03  0.60585708388E+03  0.68925649984E+03  0.17349305952E+03 0.  0.
         24    2    5    5    0    0  0.57005435004E+02  0.26517460769E+03  0.60619608326E+03  0.67325666753E+03  0.11060586251E+03 0.  0.
          5    1    5    5  501    0 -0.11390769139E+02  0.10200004507E+02 -0.33899938312E+00  0.15999832315E+02  0.47000000000E+01 0. -1.
        -13    1    6    6    0    0 -0.31016152678E+02  0.75230546641E+02  0.20868123971E+03  0.22398548320E+03  0.00000000000E+00 0.  1.
         14    1    6    6    0    0  0.88021587682E+02  0.18994406105E+03  0.39751484355E+03  0.44927118433E+03  0.00000000000E+00 0. -1.
         -5    1    3    3    0  503 -0.53407862353E+02 -0.16942099143E+03 -0.23679814968E+03  0.29605966593E+03  0.47000000000E+01 0.  1.
         13    1    4    4    0    0  0.13908598079E+02 -0.19736389187E+02  0.16803993748E+02  0.29416804119E+02  0.00000000000E+00 0. -1.
        -14    1    4    4    0    0 -0.61154015915E+01 -0.86217231577E+02 -0.81062788415E+02  0.11849888110E+03  0.00000000000E+00 0.  1.
</event>
<event>
12    1  0.8226261E-002  0.2642009E+03  0.7818608E-02  0.1104763E+00
         21   -1    0    0  503  502  0.00000000000E+00  0.00000000000E+00  0.16336690036E+03  0.16336690036E+03  0.00000000000E+00 0.  1.
         21   -1    0    0  501  503 -0.00000000000E+00 -0.00000000000E+00 -0.47019849136E+03  0.47019849136E+03  0.00000000000E+00 0.  1.
          6    2    1    2  501    0  0.71505652968E+02  0.18636891175E+03 -0.25034995490E+03  0.36339451595E+03  0.17185471955E+03 0.  0.
         24    2    3    3    0    0 -0.30020421231E+02  0.68894584727E+02 -0.95976923730E+02  0.14439478078E+03  0.77398923327E+02 0.  0.
         -6    2    1    2    0  502 -0.71505652968E+02 -0.18636891175E+03 -0.56481636101E+02  0.27017087577E+03  0.17307714241E+03 0.  0.
        -24    2    5    5    0    0  0.20198011069E+02 -0.40958033294E+02 -0.30851020658E+02  0.96294758894E+02  0.78964390534E+02 0.  0.
          5    1    3    3  501    0  0.10152607420E+03  0.11747432702E+03 -0.15437303117E+03  0.21899973517E+03  0.47000000000E+01 0. -1.
        -11    1    4    4    0    0  0.14690854277E+02  0.40837073960E+02 -0.11694705858E+02  0.44947235222E+02  0.00000000000E+00 0.  1.
         12    1    4    4    0    0 -0.44711275508E+02  0.28057510766E+02 -0.84282217872E+02  0.99447545558E+02  0.00000000000E+00 0. -1.
         -5    1    5    5    0  502 -0.91703664037E+02 -0.14541087845E+03 -0.25630615444E+02  0.17387611687E+03  0.47000000000E+01 0.  1.
         11    1    6    6    0    0  0.21739470304E+02 -0.25094104734E+02 -0.56829085792E+02  0.65816894894E+02  0.00000000000E+00 0. -1.
        -12    1    6    6    0    0 -0.15414592350E+01 -0.15863928560E+02  0.25978065134E+02  0.30477864001E+02  0.00000000000E+00 0.  1.
</event>
<event>
12    1  0.8226261E-002  0.1951533E+03  0.7818608E-02  0.1154382E+00
         21   -1    0    0  501  502  0.00000000000E+00  0.00000000000E+00  0.88211102509E+02  0.88211102509E+02  0.00000000000E+00 0.  1.
         21   -1    0    0  502  503 -0.00000000000E+00 -0.00000000000E+00 -0.51847989414E+03  0.51847989414E+03  0.00000000000E+00 0.  1.
         -6    2    1    2    0  503  0.73020816383E+02 -0.51119936557E+02 -0.34165323922E+03  0.39236058039E+03  0.17109822219E+03 0.  0.
        -24    2    3    3    0    0  0.85668926922E+02 -0.21675071430E+02 -0.33968701801E+03  0.35991168506E+03  0.79625228910E+02 0.  0.
          6    2    1    2  501    0 -0.73020816383E+02  0.51119936557E+02 -0.88615552406E+02  0.21433041625E+03  0.17360738367E+03 0.  0.
         24    2    5    5    0    0 -0.73644967054E+02  0.88470152733E+02 -0.27176512382E+02  0.14227298186E+03  0.79072684564E+02 0.  0.
          5    1    5    5  501    0  0.62415067076E+00 -0.37350216176E+02 -0.61439040025E+02  0.72057434395E+02  0.47000000000E+01 0. -1.
        -13    1    6    6    0    0 -0.16786048736E+02 -0.12568476883E+02  0.57603691748E+01  0.21746721508E+02  0.00000000000E+00 0.  1.
         14    1    6    6    0    0 -0.56858918318E+02  0.10103862962E+03 -0.32936881557E+02  0.12052626035E+03  0.00000000000E+00 0. -1.
         -5    1    3    3    0  503 -0.12648110539E+02 -0.29444865127E+02 -0.19662212155E+01  0.32448895334E+02  0.47000000000E+01 0.  1.
         11    1    4    4    0    0 -0.14662838435E+02 -0.82299655519E+01 -0.34604698625E+02  0.38473579648E+02  0.00000000000E+00 0. -1.
        -12    1    4    4    0    0  0.10033176536E+03 -0.13445105878E+02 -0.30508231938E+03  0.32143810541E+03  0.00000000000E+00 0.  1.
</event>
<event>
12    1  0.8226261E-002  0.3711575E+03  0.7818608E-02  0.1054722E+00
         21   -1    0    0  501  502  0.00000000000E+00  0.00000000000E+00  0.11815559499E+04  0.11815559499E+04  0.00000000000E+00 0.  1.
         21   -1    0    0  502  503 -0.00000000000E+00 -0.00000000000E+00 -0.23208747525E+03  0.23208747525E+03  0.00000000000E+00 0. -1.
         -6    2    1    2    0  503  0.31792115566E+03 -0.74878162124E+02 -0.25619731913E+02  0.37204066600E+03  0.17628750981E+03 0.  0.
        -24    2    3    3    0    0  0.20590528214E+03 -0.12271283950E+03 -0.35602839109E+02  0.24973995174E+03  0.60390853186E+02 0.  0.
          6    2    1    2  501    0 -0.31792115566E+03  0.74878162124E+02  0.97508820655E+03  0.10416027591E+04  0.16570665923E+03 0.  0.
         24    2    5    5    0    0 -0.17731940459E+03 -0.22762866023E+02  0.58209640622E+03  0.61292191293E+03  0.69833558541E+02 0.  0.
          5    1    5    5  501    0 -0.14060175107E+03  0.97641028147E+02  0.39299180032E+03  0.42868084621E+03  0.47000000000E+01 0. -1.
        -13    1    6    6    0    0  0.16781933603E+01 -0.61155598894E+01  0.68106660671E+02  0.68401269239E+02  0.00000000000E+00 0.  1.
         14    1    6    6    0    0 -0.17899759795E+03 -0.16647306134E+02  0.51398974555E+03  0.54452064369E+03  0.00000000000E+00 0. -1.
         -5    1    3    3    0  503  0.11201587352E+03  0.47834677378E+02  0.99831071960E+01  0.12230071427E+03  0.47000000000E+01 0.  1.
         11    1    4    4    0    0  0.15789397571E+03 -0.85493902199E+02 -0.45140043426E+00  0.17955477895E+03  0.00000000000E+00 0. -1.
        -12    1    4    4    0    0  0.48011306431E+02 -0.37218937303E+02 -0.35151438675E+02  0.70185172793E+02  0.00000000000E+00 0.  1.
</event>
<event>
12    1  0.8226261E-002  0.1762757E+03  0.7818608E-02  0.1171574E+00
         21   -1    0    0  503  502  0.00000000000E+00  0.00000000000E+00  0.14674616938E+04  0.14674616938E+04  0.00000000000E+00 0. -1.
         21   -1    0    0  501  503 -0.00000000000E+00 -0.00000000000E+00 -0.66178676288E+02  0.66178676288E+02  0.00000000000E+00 0. -1.
          6    2    1    2  501    0  0.18713158429E+02  0.32098148715E+02  0.68190744779E+02  0.18900551330E+03  0.17231550405E+03 0.  0.
         24    2    3    3    0    0  0.80581756527E+02  0.22576950270E+02  0.70954075691E+02  0.12617158419E+03  0.62302886217E+02 0.  0.
         -6    2    1    2    0  502 -0.18713158429E+02 -0.32098148715E+02  0.13330922727E+04  0.13446348568E+04  0.17183543583E+03 0.  0.
        -24    2    5    5    0    0 -0.64044505219E+02 -0.62210628302E+02  0.86030026832E+03  0.86869782117E+03  0.80916573814E+02 0.  0.
          5    1    3    3  501    0 -0.61868598098E+02  0.95211984453E+01 -0.27633309121E+01  0.62833929116E+02  0.47000000000E+01 0. -1.
        -13    1    4    4    0    0  0.70565881362E+02  0.35894787229E+02  0.35036621272E+02  0.86576810941E+02  0.00000000000E+00 0.  1.
         14    1    4    4    0    0  0.10015875165E+02 -0.13317836958E+02  0.35917454419E+02  0.39594773247E+02  0.00000000000E+00 0. -1.
         -5    1    5    5    0  502  0.45331346790E+02  0.30112479586E+02  0.47279200443E+03  0.47593703562E+03  0.47000000000E+01 0.  1.
         13    1    6    6    0    0 -0.25654307219E+02  0.11611958208E+02  0.39604318006E+03  0.39704304744E+03  0.00000000000E+00 0. -1.
        -14    1    6    6    0    0 -0.38390197999E+02 -0.73822586509E+02  0.46425708826E+03  0.47165477373E+03  0.00000000000E+00 0.  1.
</event>
<event>
12    1  0.8226261E-002  0.2021606E+03  0.7818608E-02  0.1148438E+00
         21   -1    0    0  503  502  0.00000000000E+00  0.00000000000E+00  0.37804197376E+03  0.37804197376E+03  0.00000000000E+00 0. -1.
         21   -1    0    0  501  503 -0.00000000000E+00 -0.00000000000E+00 -0.10963595772E+03  0.10963595772E+03  0.00000000000E+00 0. -1.
          6    2    1    2  501    0 -0.10079649810E+03 -0.35220564629E+01  0.95843011305E+02  0.22372925723E+03  0.17520433445E+03 0.  0.
         24    2    3    3    0    0 -0.81201625549E+02  0.54927927575E+02  0.10005630767E+03  0.16175989761E+03  0.80896344499E+02 0.  0.
         -6    2    1    2    0  502  0.10079649810E+03  0.35220564629E+01  0.17256300474E+03  0.26394867426E+03  0.17239075709E+03 0.  0.
        -24    2    5    5    0    0 -0.11582043969E+02  0.91235139900E+01  0.49092896482E+02  0.96834130677E+02  0.82154452886E+02 0.  0.
          5    1    3    3  501    0 -0.19594872556E+02 -0.58449984038E+02 -0.42132963607E+01  0.61969359612E+02  0.47000000000E+01 0. -1.
        -13    1    4    4    0    0 -0.73424444044E+01  0.39603301234E+02  0.52697113468E+01  0.40621457582E+02  0.00000000000E+00 0.  1.
         14    1    4    4    0    0 -0.73859181144E+02  0.15324626341E+02  0.94786596319E+02  0.12113844003E+03  0.00000000000E+00 0. -1.
         -5    1    5    5    0  502  0.11237854207E+03 -0.56014575271E+01  0.12347010825E+03  0.16711454358E+03  0.47000000000E+01 0.  1.
         11    1    6    6    0    0  0.98725370585E+01 -0.15557425030E+02  0.59680841822E+02  0.62460414200E+02  0.00000000000E+00 0. -1.
        -12    1    6    6    0    0 -0.21454581027E+02  0.24680939020E+02 -0.10587945339E+02  0.34373716477E+02  0.00000000000E+00 0.  1.
</event>
<event>
12    1  0.8226261E-002  0.2523961E+03  0.7818608E-02  0.1111913E+00
         21   -1    0    0  501  502  0.00000000000E+00  0.00000000000E+00  0.70037645347E+03  0.70037645347E+03  0.00000000000E+00 0. -1.
         21   -1    0    0  502  503 -0.00000000000E+00 -0.00000000000E+00 -0.91962808830E+02  0.91962808830E+02  0.00000000000E+00 0. -1.
         -6    2    1    2    0  503 -0.90927295590E+01  0.18413076723E+03  0.35026861302E+03  0.43130929885E+03  0.17132656781E+03 0.  0.
        -24    2    3    3    0    0 -0.23156748549E+02  0.19382676820E+03  0.23858004483E+03  0.31822421880E+03  0.79001041574E+02 0.  0.
          6    2    1    2  501    0  0.90927295590E+01 -0.18413076723E+03  0.25814503162E+03  0.36102996345E+03  0.17238607828E+03 0.  0.
         24    2    5    5    0    0 -0.30525171516E+02 -0.15026938188E+03  0.25605118806E+03  0.30865968863E+03  0.78714161707E+02 0.  0.
          5    1    5    5  501    0  0.39617901075E+02 -0.33861385352E+02  0.20938435600E+01  0.52370274817E+02  0.47000000000E+01 0. -1.
        -13    1    6    6    0    0  0.47748245814E+01 -0.50191179202E+02  0.15157501998E+03  0.15974022694E+03  0.00000000000E+00 0.  1.
         14    1    6    6    0    0 -0.35299996098E+02 -0.10007820267E+03  0.10447616808E+03  0.14891946170E+03  0.00000000000E+00 0. -1.
         -5    1    3    3    0  503  0.14064018990E+02 -0.96960009660E+01  0.11168856819E+03  0.11308508005E+03  0.47000000000E+01 0.  1.
         11    1    4    4    0    0 -0.50892261253E+02  0.12037164521E+03  0.16627116225E+03  0.21148393467E+03  0.00000000000E+00 0. -1.
        -12    1    4    4    0    0  0.27735512705E+02  0.73455122981E+02  0.72308882575E+02  0.10674028413E+03  0.00000000000E+00 0.  1.
</event>
<event>
12    1  0.8226261E-002  0.3822953E+03  0.7818608E-02  0.1050104E+00
         21   -1    0    0  501  502  0.00000000000E+00  0.00000000000E+00  0.38268126839E+03  0.38268126839E+03  0.00000000000E+00 0.  1.
         21   -1    0    0  502  503 -0.00000000000E+00 -0.00000000000E+00 -0.11398678061E+04  0.11398678061E+04  0.00000000000E+00 0.  1.
         -6    2    1    2    0  503  0.25872262851E+03 -0.22276144810E+03 -0.99941321721E+03  0.10699747850E+04  0.17163682738E+03 0.  0.
        -24    2    3    3    0    0  0.99512375831E+02 -0.41767743390E+02 -0.26716340756E+03  0.29905423173E+03  0.80061787674E+02 0.  0.
          6    2    1    2  501    0 -0.25872262851E+03  0.22276144810E+03  0.24222667945E+03  0.45257428955E+03  0.17201645868E+03 0.  0.
         24    2    5    5    0    0 -0.20081400106E+03  0.12122082160E+03  0.97331228406E+02  0.26634676823E+03  0.80289988854E+02 0.  0.
          5    1    5    5  501    0 -0.57908627452E+02  0.10154062650E+03  0.14489545105E+03  0.18622752132E+03  0.47000000000E+01 0. -1.
        -11    1    6    6    0    0 -0.16531614680E+03  0.12327453894E+03  0.59950893306E+02  0.21475602425E+03  0.00000000000E+00 0.  1.
         12    1    6    6    0    0 -0.35497854252E+02 -0.20537173345E+01  0.37380335100E+02  0.51590743972E+02  0.00000000000E+00 0. -1.
         -5    1    3    3    0  503  0.15921025268E+03 -0.18099370471E+03 -0.73224980965E+03  0.77092055326E+03  0.47000000000E+01 0.  1.
         13    1    4    4    0    0  0.29738694235E+01 -0.10576049737E+02  0.22127633347E+01  0.11206830460E+02  0.00000000000E+00 0. -1.
        -14    1    4    4    0    0  0.96538506408E+02 -0.31191693653E+02 -0.26937617090E+03  0.28784740127E+03  0.00000000000E+00 0.  1.
</event>
<event>
12    1  0.8226261E-002  0.2333607E+03  0.7818608E-02  0.1127590E+00
         21   -1    0    0  503  502  0.00000000000E+00  0.00000000000E+00  0.74502588654E+03  0.74502588654E+03  0.00000000000E+00 0. -1.
         21   -1    0    0  501  503 -0.00000000000E+00 -0.00000000000E+00 -0.14233728908E+03  0.14233728908E+03  0.00000000000E+00 0. -1.
          6    2    1    2  501    0 -0.47039876004E+02 -0.12049920837E+03 -0.26089179956E+02  0.21667792334E+03  0.17186002444E+03 0.  0.
         24    2    3    3    0    0  0.21341130359E+02 -0.23600388745E+01 -0.16371554387E+02  0.79749666044E+02  0.75039774870E+02 0.  0.
         -6    2    1    2    0  502  0.47039876004E+02  0.12049920837E+03  0.62877777742E+03  0.67068525228E+03  0.19422771456E+03 0.  0.
        -24    2    5    5    0    0  0.93459051960E+02  0.13061806523E+03  0.54767600759E+03  0.57657511346E+03  0.81817961426E+02 0.  0.
          5    1    3    3  501    0 -0.68381006364E+02 -0.11813916949E+03 -0.97176255687E+01  0.13692825730E+03  0.47000000000E+01 0. -1.
        -13    1    4    4    0    0 -0.25853290695E+02  0.10404923747E+02  0.94158103522E+00  0.27884433879E+02  0.00000000000E+00 0.  1.
         14    1    4    4    0    0  0.47194421054E+02 -0.12764962621E+02 -0.17313135422E+02  0.51865232165E+02  0.00000000000E+00 0. -1.
         -5    1    5    5    0  502 -0.46419175956E+02 -0.10118856862E+02  0.81101769830E+02  0.94110138828E+02  0.47000000000E+01 0.  1.
         11    1    6    6    0    0  0.82295916850E+02  0.44818969004E+02  0.28065457689E+03  0.29588570334E+03  0.00000000000E+00 0. -1.
        -12    1    6    6    0    0  0.11163135110E+02  0.85799096222E+02  0.26702143070E+03  0.28068941012E+03  0.00000000000E+00 0.  1.
</event>
<event>
12    1  0.8226261E-002  0.1935133E+03  0.7818608E-02  0.1155971E+00
         21   -1    0    0  503  502  0.00000000000E+00  0.00000000000E+00  0.23620015435E+03  0.23620015435E+03  0.00000000000E+00 0. -1.
         21   -1    0    0  501  503 -0.00000000000E+00 -0.00000000000E+00 -0.23368036947E+03  0.23368036947E+03  0.00000000000E+00 0. -1.
          6    2    1    2  501    0 -0.30444897618E+01  0.87058405085E+02 -0.13402821557E+03  0.23539530947E+03  0.17279743729E+03 0.  0.
         24    2    3    3    0    0  0.35344162829E+02  0.99995208392E+02 -0.14138830724E+03  0.19395486452E+03  0.79872301219E+02 0.  0.
         -6    2    1    2    0  502  0.30444897618E+01 -0.87058405085E+02  0.13654800045E+03  0.23448521435E+03  0.16955684743E+03 0.  0.
        -24    2    5    5    0    0  0.32689825037E+02 -0.31886717306E+02  0.14568863231E+03  0.17101551933E+03  0.77043772401E+02 0.  0.
          5    1    3    3  501    0 -0.38388652591E+02 -0.12936803307E+02  0.73600916640E+01  0.41440444940E+02  0.47000000000E+01 0. -1.
        -13    1    4    4    0    0 -0.13421973023E+02  0.57221432882E+02 -0.32372931844E+02  0.67100286565E+02  0.00000000000E+00 0.  1.
         14    1    4    4    0    0  0.48766135852E+02  0.42773775510E+02 -0.10901537539E+03  0.12685457796E+03  0.00000000000E+00 0. -1.
         -5    1    5    5    0  502 -0.29645335275E+02 -0.55171687779E+02 -0.91406318560E+01  0.63469695026E+02  0.47000000000E+01 0.  1.
         11    1    6    6    0    0  0.47439240333E+02 -0.40351914720E+02  0.71130947633E+02  0.94542954556E+02  0.00000000000E+00 0. -1.
        -12    1    6    6    0    0 -0.14749415296E+02  0.84651974138E+01  0.74557684672E+02  0.76472564770E+02  0.00000000000E+00 0.  1.
</event>
<event>
12    1  0.8226261E-002  0.1782723E+03  0.7818608E-02  0.1169595E+00
         21   -1    0    0  503  502  0.00000000000E+00  0.00000000000E+00  0.14391804974E+03  0.14391804974E+03  0.00000000000E+00 0. -1.
         21   -1    0    0  501  503 -0.00000000000E+00 -0.00000000000E+00 -0.31165335305E+03  0.31165335305E+03  0.00000000000E+00 0. -1.
          6    2    1    2  501    0  0.45403432692E+02  0.93914151892E+00 -0.20713591343E+03  0.27299698963E+03  0.17192939257E+03 0.  0.
         24    2    3    3    0    0  0.30377521248E+02  0.46147254437E+01 -0.22959937148E+03  0.24532055779E+03  0.80760232792E+02 0.  0.
         -6    2    1    2    0  502 -0.45403432692E+02 -0.93914151892E+00  0.39400610110E+02  0.18257441316E+03  0.17239099332E+03 0.  0.
        -24    2    5    5    0    0 -0.44801045488E+02  0.31382111231E+02  0.83627943491E+02  0.12759102232E+03  0.79333885971E+02 0.  0.
          5    1    3    3  501    0  0.15025911445E+02 -0.36755839248E+01  0.22463458054E+02  0.27676431845E+02  0.47000000000E+01 0. -1.
        -11    1    4    4    0    0  0.12057267371E+02  0.14042834608E+02 -0.41974137464E+01  0.18978861463E+02  0.00000000000E+00 0.  1.
         12    1    4    4    0    0  0.18320253877E+02 -0.94281091641E+01 -0.22540195773E+03  0.22634169632E+03  0.00000000000E+00 0. -1.
         -5    1    5    5    0  502 -0.60238720480E+00 -0.32321252750E+02 -0.44227333380E+02  0.54983390834E+02  0.47000000000E+01 0.  1.
         13    1    6    6    0    0 -0.62257926994E+02  0.36438643419E+02  0.45324997591E+02  0.85194950639E+02  0.00000000000E+00 0. -1.
        -14    1    6    6    0    0  0.17456881507E+02 -0.50565321872E+01  0.38302945900E+02  0.42396071685E+02  0.00000000000E+00 0.  1.
</event>
<event>
12    1  0.8226261E-002  0.2402535E+03  0.7818608E-02  0.1120014E+00
         21   -1    0    0  503  502  0.00000000000E+00  0.00000000000E+00  0.14818396615E+04  0.14818396615E+04  0.00000000000E+00 0.  1.
         21   -1    0    0  501  503 -0.00000000000E+00 -0.00000000000E+00 -0.48809443577E+03  0.48809443577E+03  0.00000000000E+00 0. -1.
          6    2    1    2  501    0 -0.16305408094E+03  0.20886507703E+02 -0.44817861605E+03  0.50851333159E+03  0.17521089293E+03 0.  0.
         24    2    3    3    0    0 -0.16573900852E+03 -0.17180507590E+02 -0.27678540607E+03  0.33286018212E+03  0.80132084993E+02 0.  0.
         -6    2    1    2    0  502  0.16305408094E+03 -0.20886507703E+02  0.14419238418E+04  0.14614207657E+04  0.17199828296E+03 0.  0.
        -24    2    5    5    0    0  0.32547556479E+02 -0.11834331257E+02  0.88950733182E+03  0.89370606153E+03  0.79295877751E+02 0.  0.
          5    1    3    3  501    0  0.26849275752E+01  0.38067015293E+02 -0.17139320998E+03  0.17565314947E+03  0.47000000000E+01 0. -1.
        -13    1    4    4    0    0 -0.55291483227E+02 -0.31902126494E+01 -0.32040105278E+02  0.63983544138E+02  0.00000000000E+00 0.  1.
         14    1    4    4    0    0 -0.11044752529E+03 -0.13990294941E+02 -0.24474530079E+03  0.26887663799E+03  0.00000000000E+00 0. -1.
         -5    1    5    5    0  502  0.13050652446E+03 -0.90521764457E+01  0.55241650996E+03  0.56771470415E+03  0.47000000000E+01 0.  1.
         11    1    6    6    0    0  0.25609821518E+02 -0.42921865130E+02  0.39091032665E+03  0.39409267051E+03  0.00000000000E+00 0. -1.
        -12    1    6    6    0    0  0.69377349615E+01  0.31087533872E+02  0.49859700516E+03  0.49961339102E+03  0.00000000000E+00 0.  1.
</event>
<event>
12    1  0.8226261E-002  0.1841301E+03  0.7818608E-02  0.1165189E+00
         21   -1    0    0  503  502  0.00000000000E+00  0.00000000000E+00  0.10736525363E+03  0.10736525363E+03  0.00000000000E+00 0. -1.
         21   -1    0    0  501  503 -0.00000000000E+00 -0.00000000000E+00 -0.64095740809E+03  0.64095740809E+03  0.00000000000E+00 0. -1.
          6    2    1    2  501    0 -0.10329697448E+02 -0.22327465247E+02 -0.53907478855E+03  0.56965386820E+03  0.18247926881E+03 0.  0.
         24    2    3    3    0    0  0.18405444476E+02  0.63206196992E+02 -0.26990456077E+03  0.28572356463E+03  0.66751027987E+02 0.  0.
         -6    2    1    2    0  502  0.10329697448E+02  0.22327465247E+02  0.54826340920E+01  0.17866879351E+03  0.17688205151E+03 0.  0.
        -24    2    5    5    0    0 -0.33823342672E+02  0.41239422057E+02  0.54107921977E+02  0.11015849003E+03  0.79765388879E+02 0.  0.
          5    1    3    3  501    0 -0.28735141924E+02 -0.85533662240E+02 -0.26917022779E+03  0.28393030357E+03  0.47000000000E+01 0. -1.
        -13    1    4    4    0    0  0.42623806595E+02  0.32662584405E+02 -0.13461519524E+03  0.14493061823E+03  0.00000000000E+00 0.  1.
         14    1    4    4    0    0 -0.24218362118E+02  0.30543612588E+02 -0.13528936552E+03  0.14079294640E+03  0.00000000000E+00 0. -1.
         -5    1    5    5    0  502  0.44153040120E+02 -0.18911956810E+02 -0.48625287885E+02  0.68510303489E+02  0.47000000000E+01 0.  1.
         13    1    6    6    0    0  0.22869384311E+02  0.29608193162E+02  0.27667347419E+02  0.46531021419E+02  0.00000000000E+00 0. -1.
        -14    1    6    6    0    0 -0.56692726983E+02  0.11631228895E+02  0.26440574558E+02  0.63627468607E+02  0.00000000000E+00 0.  1.
</event>
<event>
12    1  0.8226261E-002  0.1865599E+03  0.7818608E-02  0.1161673E+00
         21   -1    0    0  503  502  0.00000000000E+00  0.00000000000E+00  0.53880913489E+03  0.53880913489E+03  0.00000000000E+00 0.  1.
         21   -1    0    0  501  503 -0.00000000000E+00 -0.00000000000E+00 -0.79434077502E+02  0.79434077502E+02  0.00000000000E+00 0.  1.
          6    2    1    2  501    0  0.68469734330E+02 -0.22950018795E+02  0.36392769151E+03  0.40895960216E+03  0.17201681219E+03 0.  0.
         24    2    3    3    0    0 -0.29251712624E+02 -0.28082439590E+02  0.16552278563E+03  0.18768506768E+03  0.78635907576E+02 0.  0.
         -6    2    1    2    0  502 -0.68469734330E+02  0.22950018795E+02  0.95447365882E+02  0.20928361023E+03  0.17168174619E+03 0.  0.
        -24    2    5    5    0    0 -0.41429784240E+02 -0.74282499608E+01  0.12816050676E+03  0.15687905222E+03  0.80089422601E+02 0.  0.
          5    1    3    3  501    0  0.97721446954E+02  0.51324207955E+01  0.19840490588E+03  0.22127453449E+03  0.47000000000E+01 0. -1.
        -11    1    4    4    0    0 -0.23607629589E+02  0.16572717177E+00  0.15535228743E+03  0.15713586748E+03  0.00000000000E+00 0.  1.
         12    1    4    4    0    0 -0.56440830344E+01 -0.28248166762E+02  0.10170498203E+02  0.30549200193E+02  0.00000000000E+00 0. -1.
         -5    1    5    5    0  502 -0.27039950090E+02  0.30378268755E+02 -0.32713140882E+02  0.52404558006E+02  0.47000000000E+01 0.  1.
         13    1    6    6    0    0 -0.59868715713E+02  0.11764197419E+02  0.69617942660E+02  0.92570607659E+02  0.00000000000E+00 0. -1.
        -14    1    6    6    0    0  0.18438931474E+02 -0.19192447380E+02  0.58542564104E+02  0.64308444563E+02  0.00000000000E+00 0.  1.
</event>
<event>
12    1  0.8226261E-002  0.1814412E+03  0.7818608E-02  0.1166954E+00
         21   -1    0    0  503  502  0.00000000000E+00  0.00000000000E+00  0.53755837551E+02  0.53755837551E+02  0.00000000000E+00 0. -1.
         21   -1    0    0  501  503 -0.00000000000E+00 -0.00000000000E+00 -0.60535243248E+03  0.60535243248E+03  0.00000000000E+00 0. -1.
          6    2    1    2  501    0 -0.17379585128E+02  0.55775055103E+02 -0.28652810755E+03  0.33914488081E+03  0.17177888989E+03 0.  0.
         24    2    3    3    0    0 -0.23338468524E+01  0.61008967374E+02 -0.30105932472E+03  0.31707647918E+03  0.78569941498E+02 0.  0.
         -6    2    1    2    0  502  0.17379585128E+02 -0.55775055103E+02 -0.26506848737E+03  0.31996338922E+03  0.16941771067E+03 0.  0.
        -24    2    5    5    0    0 -0.14819322484E+02 -0.81086980389E+02 -0.10750465016E+03  0.15709560232E+03  0.79542867395E+02 0.  0.
          5    1    3    3  501    0 -0.15045738276E+02 -0.52339122709E+01  0.14531217171E+02  0.22068401627E+02  0.47000000000E+01 0. -1.
        -11    1    4    4    0    0 -0.52247886819E+01  0.20053395867E+02 -0.97746763100E+01  0.22912472575E+02  0.00000000000E+00 0.  1.
         12    1    4    4    0    0  0.28909418296E+01  0.40955571507E+02 -0.29128464841E+03  0.29416400661E+03  0.00000000000E+00 0. -1.
         -5    1    5    5    0  502  0.32198907612E+02  0.25311925286E+02 -0.15756383721E+03  0.16286778690E+03  0.47000000000E+01 0.  1.
         13    1    6    6    0    0 -0.59804838509E+01  0.60272525142E+01  0.83268593764E+01  0.11892457569E+02  0.00000000000E+00 0. -1.
        -14    1    6    6    0    0 -0.88388386326E+01 -0.87114232903E+02 -0.11583150954E+03  0.14520314475E+03  0.00000000000E+00 0.  1.
</event>
<event>
12    1  0.8226261E-002  0.1779013E+03  0.7818608E-02  0.1170198E+00
         21   -1    0    0  501  502  0.00000000000E+00  0.00000000000E+00  0.35609177192E+03  0.35609177192E+03  0.00000000000E+00 0.  1.
         21   -1    0    0  502  503 -0.00000000000E+00 -0.00000000000E+00 -0.12830286815E+03  0.12830286815E+03  0.00000000000E+00 0.  1.
         -6    2    1    2    0  503 -0.17149938639E+02 -0.35331077980E+02 -0.21864615462E+02  0.17783999365E+03  0.17206567486E+03 0.  0.
        -24    2    3    3    0    0 -0.13991300876E+02 -0.96139445968E+02 -0.25141551436E+02  0.11668066959E+03  0.59529248916E+02 0.  0.
          6    2    1    2  501    0  0.17149938639E+02  0.35331077980E+02  0.24965351923E+03  0.30655464642E+03  0.17351214975E+03 0.  0.
         24    2    5    5    0    0 -0.18190188507E+02 -0.47838256811E+02  0.16467707405E+03  0.18242105278E+03  0.59493865273E+02 0.  0.
          5    1    5    5  501    0  0.35340127146E+02  0.83169334791E+02  0.84976445183E+02  0.12413359365E+03  0.47000000000E+01 0. -1.
        -13    1    6    6    0    0  0.66074688476E+01 -0.16363443614E+02  0.12426311702E+03  0.12550993260E+03  0.00000000000E+00 0.  1.
         14    1    6    6    0    0 -0.24797657355E+02 -0.31474813197E+02  0.40413957034E+02  0.56911120172E+02  0.00000000000E+00 0. -1.
         -5    1    3    3    0  503 -0.31586377638E+01  0.60808367988E+02  0.32769359739E+01  0.61159324058E+02  0.47000000000E+01 0.  1.
         13    1    4    4    0    0  0.23939875800E+01 -0.70834883632E+01  0.15666465227E+02  0.17359294819E+02  0.00000000000E+00 0. -1.
        -14    1    4    4    0    0 -0.16385288455E+02 -0.89055957605E+02 -0.40808016662E+02  0.99321374772E+02  0.00000000000E+00 0.  1.
</event>
<event>
12    1  0.8226261E-002  0.1771613E+03  0.7818608E-02  0.1170805E+00
         21   -1    0    0  501  502  0.00000000000E+00  0.00000000000E+00  0.81121633719E+03  0.81121633719E+03  0.00000000000E+00 0. -1.
         21   -1    0    0  502  503 -0.00000000000E+00 -0.00000000000E+00 -0.86355946061E+02  0.86355946061E+02  0.00000000000E+00 0. -1.
         -6    2    1    2    0  503  0.34942500444E+02 -0.18200508889E+02  0.28728258361E+02  0.17947546173E+03  0.17272490172E+03 0.  0.
        -24    2    3    3    0    0  0.41132501440E+02  0.38569849870E+02 -0.23530718761E+02  0.10192366978E+03  0.81579554679E+02 0.  0.
          6    2    1    2  501    0 -0.34942500444E+02  0.18200508889E+02  0.69613213277E+03  0.71809682152E+03  0.17178725780E+03 0.  0.
         24    2    5    5    0    0  0.17186322424E+01  0.77542051891E+02  0.42991921630E+03  0.44285717272E+03  0.72637589290E+02 0.  0.
          5    1    5    5  501    0 -0.36661132686E+02 -0.59341543002E+02  0.26621291647E+03  0.27523964880E+03  0.47000000000E+01 0. -1.
        -11    1    6    6    0    0  0.64486694065E+01  0.16478269146E+02  0.14304316247E+02  0.22753728364E+02  0.00000000000E+00 0.  1.
         12    1    6    6    0    0 -0.47300371641E+01  0.61063782745E+02  0.41561490005E+03  0.42010344435E+03  0.00000000000E+00 0. -1.
         -5    1    3    3    0  503 -0.61900009958E+01 -0.56770358759E+02  0.52258977122E+02  0.77551791957E+02  0.47000000000E+01 0.  1.
         13    1    4    4    0    0  0.44178124340E+02  0.16979871712E+02 -0.49183159085E+02  0.68256910647E+02  0.00000000000E+00 0. -1.
        -14    1    4    4    0    0 -0.30456229006E+01  0.21589978158E+02  0.25652440324E+02  0.33666759129E+02  0.00000000000E+00 0.  1.
</event>
<event>
12    1  0.8226261E-002  0.2737600E+03  0.7818608E-02  0.1099560E+00
         21   -1    0    0  503  502  0.00000000000E+00  0.00000000000E+00  0.38607530077E+03  0.38607530077E+03  0.00000000000E+00 0. -1.
         21   -1    0    0  501  503 -0.00000000000E+00 -0.00000000000E+00 -0.45771229377E+03  0.45771229377E+03  0.00000000000E+00 0.  1.
          6    2    1    2  501    0 -0.14342999145E+03 -0.15160102375E+03 -0.35715283496E+03  0.44823250360E+03  0.17262443894E+03 0.  0.
         24    2    3    3    0    0 -0.12574751938E+03 -0.11820276252E+03 -0.36297054314E+03  0.40970914186E+03  0.79558997235E+02 0.  0.
         -6    2    1    2    0  502  0.14342999145E+03  0.15160102375E+03  0.28551584196E+03  0.39555509094E+03  0.17717082465E+03 0.  0.
        -24    2    5    5    0    0  0.57129698071E+02  0.20857781984E+02  0.18236638905E+03  0.20792930502E+03  0.79235387051E+02 0.  0.
          5    1    3    3  501    0 -0.17682472072E+02 -0.33398261224E+02  0.58177081793E+01  0.38523361741E+02  0.47000000000E+01 0. -1.
        -13    1    4    4    0    0 -0.56069028536E+02 -0.29089052504E+02 -0.21104481542E+03  0.22029485481E+03  0.00000000000E+00 0.  1.
         14    1    4    4    0    0 -0.69678490843E+02 -0.89113710019E+02 -0.15192572771E+03  0.18941428706E+03  0.00000000000E+00 0. -1.
         -5    1    5    5    0  502  0.86300293380E+02  0.13074324176E+03  0.10314945291E+03  0.18762578592E+03  0.47000000000E+01 0.  1.
         11    1    6    6    0    0  0.65008612647E+02 -0.10092486925E+02  0.10118122763E+03  0.12068810560E+03  0.00000000000E+00 0. -1.
        -12    1    6    6    0    0 -0.78789145763E+01  0.30950268909E+02  0.81185161422E+02  0.87241199416E+02  0.00000000000E+00 0.  1.
</event>
<event>
12    1  0.8226261E-002  0.2941492E+03  0.7818608E-02  0.1088234E+00
         21   -1    0    0  503  502  0.00000000000E+00  0.00000000000E+00  0.89379812970E+02  0.89379812970E+02  0.00000000000E+00 0.  1.
         21   -1    0    0  501  503 -0.00000000000E+00 -0.00000000000E+00 -0.98411612604E+03  0.98411612604E+03  0.00000000000E+00 0. -1.
          6    2    1    2  501    0  0.18207803069E+03 -0.15553103967E+03 -0.51747926892E+03  0.59511679502E+03  0.17040214903E+03 0.  0.
         24    2    3    3    0    0  0.13484791132E+03 -0.16301070927E+03 -0.48970740967E+03  0.53961908517E+03  0.81356987830E+02 0.  0.
         -6    2    1    2    0  502 -0.18207803069E+03  0.15553103967E+03 -0.37725704415E+03  0.47837914399E+03  0.17082568450E+03 0.  0.
        -24    2    5    5    0    0 -0.20503587339E+03  0.13760054359E+03 -0.36135820050E+03  0.44486155964E+03  0.79677093372E+02 0.  0.
          5    1    3    3  501    0  0.47230119367E+02  0.74796696015E+01 -0.27771859253E+02  0.55497709854E+02  0.47000000000E+01 0. -1.
        -13    1    4    4    0    0  0.86950193458E+02 -0.11922076050E+03 -0.24102019211E+03  0.28260335964E+03  0.00000000000E+00 0.  1.
         14    1    4    4    0    0  0.47897717863E+02 -0.43789948768E+02 -0.24868721756E+03  0.25701572553E+03  0.00000000000E+00 0. -1.
         -5    1    5    5    0  502  0.22957842701E+02  0.17930496073E+02 -0.15898843655E+02  0.33517584347E+02  0.47000000000E+01 0.  1.
         13    1    6    6    0    0 -0.18522325963E+03  0.98180854529E+02 -0.25766026054E+03  0.33216855054E+03  0.00000000000E+00 0. -1.
        -14    1    6    6    0    0 -0.19812613756E+02  0.39419689065E+02 -0.10369793996E+03  0.11269300911E+03  0.00000000000E+00 0.  1.
</event>
<event>
12    1  0.8226261E-002  0.1776429E+03  0.7818608E-02  0.1170419E+00
         21   -1    0    0  503  502  0.00000000000E+00  0.00000000000E+00  0.58174519562E+02  0.58174519562E+02  0.00000000000E+00 0. -1.
         21   -1    0    0  501  503 -0.00000000000E+00 -0.00000000000E+00 -0.60108837351E+03  0.60108837351E+03  0.00000000000E+00 0. -1.
          6    2    1    2  501    0 -0.41745046331E+02 -0.75754533309E+01 -0.37863769887E+03  0.41823856893E+03  0.17250204968E+03 0.  0.
         24    2    3    3    0    0 -0.56915589303E+02  0.52136567505E+02 -0.28713230500E+03  0.30782571680E+03  0.79712642494E+02 0.  0.
         -6    2    1    2    0  502  0.41745046331E+02  0.75754533309E+01 -0.16427615507E+03  0.24102432414E+03  0.17119005029E+03 0.  0.
        -24    2    5    5    0    0  0.73152687379E+02  0.52941224834E+02 -0.12694401481E+03  0.17423905753E+03  0.78040869514E+02 0.  0.
          5    1    3    3  501    0  0.15170542971E+02 -0.59712020836E+02 -0.91505393872E+02  0.11041285212E+03  0.47000000000E+01 0. -1.
        -11    1    4    4    0    0  0.16543786969E+02 -0.49964208993E+01 -0.57877975321E+02  0.60402989466E+02  0.00000000000E+00 0.  1.
         12    1    4    4    0    0 -0.73459376272E+02  0.57132988404E+02 -0.22925432968E+03  0.24742272734E+03  0.00000000000E+00 0. -1.
         -5    1    5    5    0  502 -0.31407641048E+02 -0.45365771503E+02 -0.37332140263E+02  0.66785266615E+02  0.47000000000E+01 0.  1.
         11    1    6    6    0    0  0.22936887040E+02 -0.38686086105E+01  0.33384556788E+01  0.23499195858E+02  0.00000000000E+00 0. -1.
        -12    1    6    6    0    0  0.50215800339E+02  0.56809833444E+02 -0.13028247049E+03  0.15073986167E+03  0.00000000000E+00 0.  1.
</event>
<event>
12    1  0.8226261E-002  0.2786431E+03  0.7818608E-02  0.1096667E+00
         21   -1    0    0  501  502  0.00000000000E+00  0.00000000000E+00  0.84486713079E+02  0.84486713079E+02  0.00000000000E+00 0.  1.
         21   -1    0    0  502  503 -0.00000000000E+00 -0.00000000000E+00 -0.13540958172E+04  0.13540958172E+04  0.00000000000E+00 0.  1.
         -6    2    1    2    0  503  0.21515950128E+03  0.39920376082E+02 -0.10438477788E+04  0.10799599226E+04  0.16972920111E+03 0.  0.
        -24    2    3    3    0    0  0.20755392132E+03  0.36467911804E+02 -0.68806862296E+03  0.72405170117E+03  0.80024353900E+02 0.  0.
          6    2    1    2  501    0 -0.21515950128E+03 -0.39920376082E+02 -0.22576132536E+03  0.35862260771E+03  0.17249565594E+03 0.  0.
         24    2    5    5    0    0 -0.21582201192E+03  0.79432066737E+01 -0.19109445902E+03  0.29933312217E+03  0.80255781083E+02 0.  0.
          5    1    5    5  501    0  0.66251063735E+00 -0.47863582756E+02 -0.34666866335E+02  0.59289485544E+02  0.47000000000E+01 0. -1.
        -11    1    6    6    0    0  0.37803755766E+01  0.10075010669E+02 -0.80260113270E+01  0.13424378470E+02  0.00000000000E+00 0.  1.
         12    1    6    6    0    0 -0.21960238749E+03 -0.21318039951E+01 -0.18306844769E+03  0.28590874370E+03  0.00000000000E+00 0. -1.
         -5    1    3    3    0  503  0.76055799609E+01  0.34524642775E+01 -0.35577915581E+03  0.35590822141E+03  0.47000000000E+01 0.  1.
         11    1    4    4    0    0  0.44440078862E+02  0.69473363610E+01 -0.63212597781E+02  0.77582334394E+02  0.00000000000E+00 0. -1.
        -12    1    4    4    0    0  0.16311384246E+03  0.29520575443E+02 -0.62485602518E+03  0.64646936678E+03  0.00000000000E+00 0.  1.
</event>
<event>
12    1  0.8226261E-002  0.1975983E+03  0.7818608E-02  0.1152503E+00
         21   -1    0    0  501  502  0.00000000000E+00  0.00000000000E+00  0.84473391780E+02  0.84473391780E+02  0.00000000000E+00 0. -1.
         21   -1    0    0  502  503 -0.00000000000E+00 -0.00000000000E+00 -0.61545978784E+03  0.61545978784E+03  0.00000000000E+00 0.  1.
         -6    2    1    2    0  503  0.69852628342E+02 -0.65615018566E+02 -0.44282072568E+03  0.48355784102E+03  0.16897712913E+03 0.  0.
        -24    2    3    3    0    0 -0.60607431273E+01 -0.15837012233E+02 -0.11256472494E+03  0.14102053515E+03  0.83237194032E+02 0.  0.
          6    2    1    2  501    0 -0.69852628342E+02  0.65615018566E+02 -0.88165670382E+02  0.21637533861E+03  0.17280156647E+03 0.  0.
         24    2    5    5    0    0 -0.63192014308E+02  0.72532067821E+02 -0.12522133078E+03  0.17780823712E+03  0.81738950136E+02 0.  0.
          5    1    5    5  501    0 -0.66606140343E+01 -0.69170492549E+01  0.37055660399E+02  0.38567101490E+02  0.47000000000E+01 0. -1.
        -11    1    6    6    0    0 -0.48002727223E+02 -0.34794793711E+01 -0.56471226258E+02  0.74198167043E+02  0.00000000000E+00 0.  1.
         12    1    6    6    0    0 -0.15189287085E+02  0.76011547192E+02 -0.68750104523E+02  0.10361007007E+03  0.00000000000E+00 0. -1.
         -5    1    3    3    0  503  0.75913371470E+02 -0.49778006333E+02 -0.33025600074E+03  0.34253730587E+03  0.47000000000E+01 0.  1.
         11    1    4    4    0    0  0.28127549523E+02  0.20668711121E+02 -0.44528705021E+02  0.56578796668E+02  0.00000000000E+00 0. -1.
        -12    1    4    4    0    0 -0.34188292650E+02 -0.36505723354E+02 -0.68036019916E+02  0.84441738483E+02  0.00000000000E+00 0.  1.
</event>
<event>
12    1  0.8226261E-002  0.1755797E+03  0.7818608E-02  0.1172485E+00
         21   -1    0    0  501  502  0.00000000000E+00  0.00000000000E+00  0.34053146882E+03  0.34053146882E+03  0.00000000000E+00 0. -1.
         21   -1    0    0  502  503 -0.00000000000E+00 -0.00000000000E+00 -0.46776801965E+03  0.46776801965E+03  0.00000000000E+00 0. -1.
         -6    2    1    2    0  503  0.29100419767E+02  0.86630566080E+01 -0.42684046197E+03  0.46103773549E+03  0.17158417930E+03 0.  0.
        -24    2    3    3    0    0  0.84017457438E+01  0.26761095120E+02 -0.42483104700E+03  0.43307165151E+03  0.79264691416E+02 0.  0.
          6    2    1    2  501    0 -0.29100419767E+02 -0.86630566080E+01  0.29960391114E+03  0.34726175299E+03  0.17293449203E+03 0.  0.
         24    2    5    5    0    0 -0.52409558331E+02  0.37075797944E+02  0.11162807699E+03  0.15234545562E+03  0.81405980590E+02 0.  0.
          5    1    5    5  501    0  0.23309138563E+02 -0.45738854552E+02  0.18797583415E+03  0.19491629737E+03  0.47000000000E+01 0. -1.
        -13    1    6    6    0    0 -0.57134916997E+02  0.58010508038E+02  0.80191057845E+02  0.11428133505E+03  0.00000000000E+00 0.  1.
         14    1    6    6    0    0  0.47253586658E+01 -0.20934710095E+02  0.31437019149E+02  0.38064120563E+02  0.00000000000E+00 0. -1.
         -5    1    3    3    0  503  0.20698674023E+02 -0.18098038512E+02 -0.20094149723E+01  0.27966083974E+02  0.47000000000E+01 0.  1.
         13    1    4    4    0    0 -0.15102235767E+02  0.32376330304E+02 -0.38375584876E+03  0.38541517322E+03  0.00000000000E+00 0. -1.
        -14    1    4    4    0    0  0.23503981511E+02 -0.56152351843E+01 -0.41075198242E+02  0.47656478297E+02  0.00000000000E+00 0.  1.
</event>
<event>
12    1  0.8226261E-002  0.1829040E+03  0.7818608E-02  0.1165312E+00
         21   -1    0    0  503  502  0.00000000000E+00  0.00000000000E+00  0.46032268692E+03  0.46032268692E+03  0.00000000000E+00 0.  1.
         21   -1    0    0  501  503 -0.00000000000E+00 -0.00000000000E+00 -0.81470747935E+02  0.81470747935E+02  0.00000000000E+00 0. -1.
          6    2    1    2  501    0  0.14675808270E+02 -0.59776438840E+02  0.28028976537E+03  0.33402341061E+03  0.17094058696E+03 0.  0.
         24    2    3    3    0    0  0.50403099095E+02 -0.21403586809E+02  0.25975435212E+03  0.27751935517E+03  0.80907868121E+02 0.  0.
         -6    2    1    2    0  502 -0.14675808270E+02  0.59776438840E+02  0.98562173609E+02  0.20777002425E+03  0.17223611387E+03 0.  0.
        -24    2    5    5    0    0  0.51421425448E+01 -0.19538111625E+02  0.24584101019E+01  0.81510084242E+02  0.78928262474E+02 0.  0.
          5    1    3    3  501    0 -0.35727290825E+02 -0.38372852032E+02  0.20535413255E+02  0.56504055432E+02  0.47000000000E+01 0. -1.
        -11    1    4    4    0    0  0.13700210374E+02 -0.49063577449E+02  0.11877080788E+03  0.12923403267E+03  0.00000000000E+00 0.  1.
         12    1    4    4    0    0  0.36702888721E+02  0.27659990640E+02  0.14098354424E+03  0.14828532250E+03  0.00000000000E+00 0. -1.
         -5    1    5    5    0  502 -0.19817950815E+02  0.79314550465E+02  0.96103763507E+02  0.12625994001E+03  0.47000000000E+01 0.  1.
         11    1    6    6    0    0  0.32258989013E+02  0.14965068223E+02 -0.78825240372E+01  0.36424302660E+02  0.00000000000E+00 0. -1.
        -12    1    6    6    0    0 -0.27116846469E+02 -0.34503179848E+02  0.10340934139E+02  0.45085781582E+02  0.00000000000E+00 0.  1.
</event>
<event>
12    1  0.8226261E-002  0.2016360E+03  0.7818608E-02  0.1148478E+00
         21   -1    0    0  503  502  0.00000000000E+00  0.00000000000E+00  0.54348891447E+03  0.54348891447E+03  0.00000000000E+00 0.  1.
         21   -1    0    0  501  503 -0.00000000000E+00 -0.00000000000E+00 -0.10492634432E+03  0.10492634432E+03  0.00000000000E+00 0.  1.
          6    2    1    2  501    0 -0.49966376403E+01 -0.10518617508E+03  0.44802530134E+02  0.20603074674E+03  0.17132514141E+03 0.  0.
         24    2    3    3    0    0  0.43012014220E+02  0.45047398188E+01  0.32135089200E+02  0.85533935477E+02  0.66430897270E+02 0.  0.
         -6    2    1    2    0  502  0.49966376403E+01  0.10518617508E+03  0.39376004002E+03  0.44238451206E+03  0.17195345177E+03 0.  0.
        -24    2    5    5    0    0 -0.32668555204E+02 -0.40092692001E+01  0.18395870497E+03  0.20284119240E+03  0.78869737295E+02 0.  0.
          5    1    3    3  501    0 -0.48008651860E+02 -0.10969091490E+03  0.12667440934E+02  0.12049681126E+03  0.47000000000E+01 0. -1.
        -13    1    4    4    0    0  0.53349158376E+02 -0.71880598237E+01  0.40925446831E+02  0.67621691059E+02  0.00000000000E+00 0.  1.
         14    1    4    4    0    0 -0.10337144156E+02  0.11692799642E+02 -0.87903576304E+01  0.17912244417E+02  0.00000000000E+00 0. -1.
         -5    1    5    5    0  502  0.37665192844E+02  0.10919544428E+03  0.20980133505E+03  0.23954331966E+03  0.47000000000E+01 0.  1.
         13    1    6    6    0    0 -0.33236090744E+02 -0.11116450374E+02  0.19017791790E+03  0.19338007564E+03  0.00000000000E+00 0. -1.
        -14    1    6    6    0    0  0.56753554081E+00  0.71071811744E+01 -0.62192129321E+01  0.94611167591E+01  0.00000000000E+00 0.  1.
</event>
<event>
12    1  0.8226261E-002  0.2424314E+03  0.7818608E-02  0.1118723E+00
         21   -1    0    0  501  502  0.00000000000E+00  0.00000000000E+00  0.11260332425E+03  0.11260332425E+03  0.00000000000E+00 0. -1.
         21   -1    0    0  502  503 -0.00000000000E+00 -0.00000000000E+00 -0.65940726055E+03  0.65940726055E+03  0.00000000000E+00 0. -1.
         -6    2    1    2    0  503  0.63863994685E+02 -0.15990875819E+03 -0.45550875383E+03  0.51600506857E+03  0.17065633657E+03 0.  0.
        -24    2    3    3    0    0  0.36162740793E+02 -0.18380575592E+03 -0.40607006704E+03  0.45432282056E+03  0.80150023134E+02 0.  0.
          6    2    1    2  501    0 -0.63863994685E+02  0.15990875819E+03 -0.91295182475E+02  0.25600551623E+03  0.16599576270E+03 0.  0.
         24    2    5    5    0    0 -0.98295012760E+02  0.15156272435E+03 -0.96283147817E+02  0.21992060131E+03  0.80383190910E+02 0.  0.
          5    1    5    5  501    0  0.34431018075E+02  0.83460338432E+01  0.49879653421E+01  0.36084914920E+02  0.47000000000E+01 0. -1.
        -13    1    6    6    0    0 -0.17773518365E+02 -0.17433601992E+01  0.59554101522E+01  0.18825625353E+02  0.00000000000E+00 0.  1.
         14    1    6    6    0    0 -0.80521494394E+02  0.15330608454E+03 -0.10223855797E+03  0.20109497595E+03  0.00000000000E+00 0. -1.
         -5    1    3    3    0  503  0.27701253892E+02  0.23896997730E+02 -0.49438686791E+02  0.61682248008E+02  0.47000000000E+01 0.  1.
         11    1    4    4    0    0  0.94843309053E+01 -0.14765770125E+03 -0.36337617662E+03  0.39234550463E+03  0.00000000000E+00 0. -1.
        -12    1    4    4    0    0  0.26678409887E+02 -0.36148054673E+02 -0.42693890416E+02  0.61977315927E+02  0.00000000000E+00 0.  1.
</event>
<event>
12    1  0.8226261E-002  0.2159897E+03  0.7818608E-02  0.1137596E+00
         21   -1    0    0  503  502  0.00000000000E+00  0.00000000000E+00  0.50080163705E+02  0.50080163705E+02  0.00000000000E+00 0. -1.
         21   -1    0    0  501  503 -0.00000000000E+00 -0.00000000000E+00 -0.98457979393E+03  0.98457979393E+03  0.00000000000E+00 0. -1.
          6    2    1    2  501    0  0.63217084456E+02 -0.11214515940E+03 -0.60718062394E+03  0.64445316134E+03  0.17343191902E+03 0.  0.
         24    2    3    3    0    0  0.28584666987E+02 -0.12300669698E+03 -0.57972969661E+03  0.59870361764E+03  0.80073528402E+02 0.  0.
         -6    2    1    2    0  502 -0.63217084456E+02  0.11214515940E+03 -0.32731900628E+03  0.39020679629E+03  0.16896945123E+03 0.  0.
        -24    2    5    5    0    0 -0.93561498291E+02  0.12174818196E+03 -0.28416314488E+03  0.33637818060E+03  0.93942608557E+02 0.  0.
          5    1    3    3  501    0  0.34632417468E+02  0.10861537580E+02 -0.27450927331E+02  0.45749543709E+02  0.47000000000E+01 0. -1.
        -11    1    4    4    0    0  0.36898301174E+02 -0.20481024437E+02 -0.24216827606E+03  0.24581788161E+03  0.00000000000E+00 0.  1.
         12    1    4    4    0    0 -0.83136341869E+01 -0.10252567255E+03 -0.33756142055E+03  0.35288573602E+03  0.00000000000E+00 0. -1.
         -5    1    5    5    0  502  0.30344413836E+02 -0.96030225598E+01 -0.43155861404E+02  0.53828615687E+02  0.47000000000E+01 0.  1.
         11    1    6    6    0    0 -0.20616586080E+02  0.48761231608E+02 -0.18805446776E+03  0.19536423463E+03  0.00000000000E+00 0. -1.
        -12    1    6    6    0    0 -0.72944912211E+02  0.72986950355E+02 -0.96108677121E+02  0.14101394597E+03  0.00000000000E+00 0.  1.
</event>
<event>
12    1  0.8226261E-002  0.2361767E+03  0.7818608E-02  0.1122411E+00
         21   -1    0    0  503  502  0.00000000000E+00  0.00000000000E+00  0.83498300056E+02  0.83498300056E+02  0.00000000000E+00 0.  1.
         21   -1    0    0  501  503 -0.00000000000E+00 -0.00000000000E+00 -0.12245118752E+04  0.12245118752E+04  0.00000000000E+00 0. -1.
          6    2    1    2  501    0  0.16161498055E+03  0.88510955214E+01 -0.10118543634E+04  0.10390518107E+04  0.17199322305E+03 0.  0.
         24    2    3    3    0    0  0.11984257874E+03  0.93155243703E+01 -0.39734203351E+03  0.42310323912E+03  0.81771857575E+02 0.  0.
         -6    2    1    2    0  502 -0.16161498055E+03 -0.88510955214E+01 -0.12915921172E+03  0.26895836452E+03  0.17163553258E+03 0.  0.
        -24    2    5    5    0    0 -0.88690560161E+02 -0.16965028679E+02 -0.12071604887E+02  0.13069989399E+03  0.93717186173E+02 0.  0.
          5    1    3    3  501    0  0.41772401809E+02 -0.46442884896E+00 -0.61451232992E+03  0.61594857161E+03  0.47000000000E+01 0. -1.
        -11    1    4    4    0    0  0.25852775637E+02 -0.26398799714E+01 -0.16802806226E+02  0.30946231943E+02  0.00000000000E+00 0.  1.
         12    1    4    4    0    0  0.93989803106E+02  0.11955404342E+02 -0.38053922728E+03  0.39215700718E+03  0.00000000000E+00 0. -1.
         -5    1    5    5    0  502 -0.72924420391E+02  0.81139331578E+01 -0.11708760683E+03  0.13825847053E+03  0.47000000000E+01 0.  1.
         11    1    6    6    0    0 -0.33442426234E+02  0.23895738817E+02 -0.39222670567E+02  0.56813907562E+02  0.00000000000E+00 0. -1.
        -12    1    6    6    0    0 -0.55248133927E+02 -0.40860767496E+02  0.27151065679E+02  0.73885986427E+02  0.00000000000E+00 0.  1.
</event>
<event>
12    1  0.8226261E-002  0.2711216E+03  0.7818608E-02  0.1101276E+00
         21   -1    0    0  501  502  0.00000000000E+00  0.00000000000E+00  0.16037248944E+03  0.16037248944E+03  0.00000000000E+00 0. -1.
         21   -1    0    0  502  503 -0.00000000000E+00 -0.00000000000E+00 -0.76299058469E+03  0.76299058469E+03  0.00000000000E+00 0. -1.
         -6    2    1    2    0  503  0.12003379333E+02 -0.20574014025E+03 -0.59511281468E+03  0.65213757147E+03  0.16926625033E+03 0.  0.
        -24    2    3    3    0    0 -0.68111208664E+01 -0.22120793068E+03 -0.46281176044E+03  0.51753111950E+03  0.68296369515E+02 0.  0.
          6    2    1    2  501    0 -0.12003379333E+02  0.20574014025E+03 -0.75052805809E+01  0.27122550267E+03  0.17616429160E+03 0.  0.
         24    2    5    5    0    0  0.37063455064E+02  0.44499499643E+02  0.19033196533E+02  0.10054310994E+03  0.79954669754E+02 0.  0.
          5    1    5    5  501    0 -0.49066834396E+02  0.16124064061E+03 -0.26538477114E+02  0.17068239273E+03  0.47000000000E+01 0. -1.
        -13    1    6    6    0    0 -0.11242034658E+02 -0.10902851713E+01 -0.20385428383E+02  0.23305316032E+02  0.00000000000E+00 0.  1.
         14    1    6    6    0    0  0.48305489722E+02  0.45589784815E+02  0.39418624916E+02  0.77237793903E+02  0.00000000000E+00 0. -1.
         -5    1    3    3    0  503  0.18814500199E+02  0.15467790427E+02 -0.13230105423E+03  0.13460645196E+03  0.47000000000E+01 0.  1.
         11    1    4    4    0    0  0.64894466563E+01 -0.15666478456E+03 -0.25334122461E+03  0.29793916112E+03  0.00000000000E+00 0. -1.
        -12    1    4    4    0    0 -0.13300567523E+02 -0.64543146117E+02 -0.20947053583E+03  0.21959195839E+03  0.00000000000E+00 0.  1.
</event>
<event>
12    1  0.8226261E-002  0.1762105E+03  0.7818608E-02  0.1171537E+00
         21   -1    0    0  503  502  0.00000000000E+00  0.00000000000E+00  0.22238537058E+03  0.22238537058E+03  0.00000000000E+00 0. -1.
         21   -1    0    0  501  503 -0.00000000000E+00 -0.00000000000E+00 -0.23442208564E+03  0.23442208564E+03  0.00000000000E+00 0. -1.
          6    2    1    2  501    0 -0.12313488596E+02 -0.38041692637E+02 -0.15130278627E+03  0.23225560991E+03  0.17161393539E+03 0.  0.
         24    2    3    3    0    0  0.33131871584E+02  0.29547003492E+02 -0.55695645335E+02  0.10657216627E+03  0.79277205958E+02 0.  0.
         -6    2    1    2    0  502  0.12313488596E+02  0.38041692637E+02  0.13926607121E+03  0.22455184632E+03  0.17155086918E+03 0.  0.
        -24    2    5    5    0    0 -0.39000604867E+02 -0.25969794519E+02  0.67549113773E+02  0.11548297514E+03  0.81104607572E+02 0.  0.
          5    1    3    3  501    0 -0.45445360179E+02 -0.67588696129E+02 -0.95607140934E+02  0.12568344363E+03  0.47000000000E+01 0. -1.
        -13    1    4    4    0    0  0.32760767832E+02  0.51245982820E+02 -0.58860713824E+02  0.84640429441E+02  0.00000000000E+00 0.  1.
         14    1    4    4    0    0  0.37110375168E+00 -0.21698979328E+02  0.31650684890E+01  0.21931736830E+02  0.00000000000E+00 0. -1.
         -5    1    5    5    0  502  0.51314093463E+02  0.64011487155E+02  0.71716957436E+02  0.10906887118E+03  0.47000000000E+01 0.  1.
         11    1    6    6    0    0 -0.17461227325E+02 -0.10475729594E+02  0.82535318564E+02  0.85010082817E+02  0.00000000000E+00 0. -1.
        -12    1    6    6    0    0 -0.21539377542E+02 -0.15494064925E+02 -0.14986204791E+02  0.30472892328E+02  0.00000000000E+00 0.  1.
</event>
<event>
12    1  0.8226261E-002  0.2062714E+03  0.7818608E-02  0.1144637E+00
         21   -1    0    0  501  502  0.00000000000E+00  0.00000000000E+00  0.21014095437E+04  0.21014095437E+04  0.00000000000E+00 0. -1.
         21   -1    0    0  502  503 -0.00000000000E+00 -0.00000000000E+00 -0.21487581328E+02  0.21487581328E+02  0.00000000000E+00 0. -1.
         -6    2    1    2    0  503 -0.10522532431E+03 -0.48159127347E+02  0.78178064641E+03  0.80853502698E+03  0.17075198484E+03 0.  0.
        -24    2    3    3    0    0 -0.44272961705E+02  0.38457115021E+02  0.42139973016E+03  0.43288351460E+03  0.79820798082E+02 0.  0.
          6    2    1    2  501    0  0.10522532431E+03  0.48159127347E+02  0.12981413159E+04  0.13143620980E+04  0.17025033967E+03 0.  0.
         24    2    5    5    0    0  0.17428755415E+02 -0.31897188286E+02  0.65267696773E+03  0.65803629022E+03  0.75520480047E+02 0.  0.
          5    1    5    5  501    0  0.87796568898E+02  0.80056315633E+02  0.64546434820E+03  0.65632580780E+03  0.47000000000E+01 0. -1.
        -11    1    6    6    0    0 -0.19106349281E+02 -0.12697632044E+02  0.65326749113E+02  0.69237754094E+02  0.00000000000E+00 0.  1.
         12    1    6    6    0    0  0.36535104696E+02 -0.19199556242E+02  0.58735021862E+03  0.58879853613E+03  0.00000000000E+00 0. -1.
         -5    1    3    3    0  503 -0.60952362608E+02 -0.86616242368E+02  0.36038091625E+03  0.37565151237E+03  0.47000000000E+01 0.  1.
         13    1    4    4    0    0 -0.27732274848E+02  0.11139449914E+02  0.37704897350E+03  0.37823153601E+03  0.00000000000E+00 0. -1.
        -14    1    4    4    0    0 -0.16540686857E+02  0.27317665107E+02  0.44350756655E+02  0.54651978596E+02  0.00000000000E+00 0.  1.
</event>
<event>
12    1  0.8226261E-002  0.1846496E+03  0.7818608E-02  0.1163492E+00
         21   -1    0    0  501  502  0.00000000000E+00  0.00000000000E+00  0.25043511156E+03  0.25043511156E+03  0.00000000000E+00 0. -1.
         21   -1    0    0  502  503 -0.00000000000E+00 -0.00000000000E+00 -0.14513881327E+03  0.14513881327E+03  0.00000000000E+00 0. -1.
         -6    2    1    2    0  503 -0.36373120760E+02  0.53481684964E+02  0.23723356076E+01  0.18417665075E+03  0.17243003266E+03 0.  0.
        -24    2    3    3    0    0 -0.66495581454E+02  0.18523635717E+02 -0.46802471195E+02  0.11657724639E+03  0.81455482521E+02 0.  0.
          6    2    1    2  501    0  0.36373120760E+02 -0.53481684964E+02  0.10292396268E+03  0.21139727408E+03  0.17295135402E+03 0.  0.
         24    2    5    5    0    0  0.48876774344E+02 -0.51045503469E+02  0.13795038010E+03  0.17383111576E+03  0.78691593844E+02 0.  0.
          5    1    5    5  501    0 -0.12503653583E+02 -0.24361814952E+01 -0.35026417427E+02  0.37566158320E+02  0.47000000000E+01 0. -1.
        -11    1    6    6    0    0 -0.19625077969E+02 -0.14031032147E+01  0.15739629979E+02  0.25196196852E+02  0.00000000000E+00 0.  1.
         12    1    6    6    0    0  0.68501852313E+02 -0.49642400254E+02  0.12221075012E+03  0.14863491891E+03  0.00000000000E+00 0. -1.
         -5    1    3    3    0  503  0.30122460694E+02  0.34958049248E+02  0.49174806803E+02  0.67599404358E+02  0.47000000000E+01 0.  1.
         11    1    4    4    0    0 -0.25767639816E+02  0.49361596558E+02 -0.24729879311E+02  0.60927049881E+02  0.00000000000E+00 0. -1.
        -12    1    4    4    0    0 -0.40727941639E+02 -0.30837960842E+02 -0.22072591884E+02  0.55650196509E+02  0.00000000000E+00 0.  1.
</event>
<event>
12    1  0.8226261E-002  0.2408085E+03  0.7818608E-02  0.1119924E+00
         21   -1    0    0  501  502  0.00000000000E+00  0.00000000000E+00  0.37421832926E+03  0.37421832926E+03  0.00000000000E+00 0. -1.
         21   -1    0    0  502  503 -0.00000000000E+00 -0.00000000000E+00 -0.16589706074E+03  0.16589706074E+03  0.00000000000E+00 0. -1.
         -6    2    1    2    0  503  0.63793728608E+02  0.14993841027E+03  0.18038643814E+03  0.29769204866E+03  0.17184330679E+03 0.  0.
        -24    2    3    3    0    0  0.45147725557E+01  0.14623367533E+03  0.90214166445E+02  0.18961407554E+03  0.80063917238E+02 0.  0.
          6    2    1    2  501    0 -0.63793728608E+02 -0.14993841027E+03  0.27934830383E+02  0.24242334133E+03  0.17730638734E+03 0.  0.
         24    2    5    5    0    0 -0.10258992333E+03 -0.13111819032E+03 -0.90640023467E+01  0.18541150899E+03  0.81108565058E+02 0.  0.
          5    1    5    5  501    0  0.38796194721E+02 -0.18820219951E+02  0.36998832730E+02  0.57011832344E+02  0.47000000000E+01 0. -1.
        -13    1    6    6    0    0 -0.59660609800E+02 -0.27487859143E+02 -0.28438761374E+02  0.71580262017E+02  0.00000000000E+00 0.  1.
         14    1    6    6    0    0 -0.42929313529E+02 -0.10363033118E+03  0.19374759027E+02  0.11383124697E+03  0.00000000000E+00 0. -1.
         -5    1    3    3    0  503  0.59278956052E+02  0.37047349387E+01  0.90172271696E+02  0.10807797312E+03  0.47000000000E+01 0.  1.
         11    1    4    4    0    0  0.38220778665E+02  0.50920522503E+02  0.49412573420E+02  0.80593609832E+02  0.00000000000E+00 0. -1.
        -12    1    4    4    0    0 -0.33706006109E+02  0.95313152829E+02  0.40801593025E+02  0.10902046571E+03  0.00000000000E+00 0.  1.
</event>
<event>
12    1  0.8226261E-002  0.3358727E+03  0.7818608E-02  0.1068589E+00
         21   -1    0    0  503  502  0.00000000000E+00  0.00000000000E+00  0.25463323089E+04  0.25463323089E+04  0.00000000000E+00 0.  1.
         21   -1    0    0  501  503 -0.00000000000E+00 -0.00000000000E+00 -0.81057808742E+02  0.81057808742E+02  0.00000000000E+00 0.  1.
          6    2    1    2  501    0 -0.27017765203E+03 -0.99700817597E+02  0.34790805024E+03  0.48358086298E+03  0.17284161226E+03 0.  0.
         24    2    3    3    0    0 -0.15828106564E+03 -0.33181530144E+02  0.10791493593E+03  0.21051595025E+03  0.80730553249E+02 0.  0.
         -6    2    1    2    0  502  0.27017765203E+03  0.99700817597E+02  0.21173664500E+04  0.21438092547E+04  0.17245643059E+03 0.  0.
        -24    2    5    5    0    0  0.17996778054E+03  0.12736438906E+03  0.17076884995E+04  0.17233794660E+04  0.72295802247E+02 0.  0.
          5    1    3    3  501    0 -0.11189658639E+03 -0.66519287453E+02  0.23999311431E+03  0.27306491273E+03  0.47000000000E+01 0. -1.
        -11    1    4    4    0    0 -0.13975967117E+03 -0.55412030824E+02  0.99840415311E+02  0.18047539271E+03  0.00000000000E+00 0.  1.
         12    1    4    4    0    0 -0.18521394478E+02  0.22230500680E+02  0.80745206174E+01  0.30040557536E+02  0.00000000000E+00 0. -1.
         -5    1    5    5    0  502  0.90209871490E+02 -0.27663571464E+02  0.40967795049E+03  0.42042978869E+03  0.47000000000E+01 0.  1.
         11    1    6    6    0    0  0.85744121495E+02  0.47176261388E+02  0.50903541806E+03  0.51835770550E+03  0.00000000000E+00 0. -1.
        -12    1    6    6    0    0  0.94223659050E+02  0.80188127672E+02  0.11986530814E+04  0.12050217605E+04  0.00000000000E+00 0.  1.
</event>
<event>
12    1  0.8226261E-002  0.3057950E+03  0.7818608E-02  0.1082466E+00
         21   -1    0    0  501  502  0.00000000000E+00  0.00000000000E+00  0.57687279808E+03  0.57687279808E+03  0.00000000000E+00 0. -1.
         21   -1    0    0  502  503 -0.00000000000E+00 -0.00000000000E+00 -0.18913729157E+03  0.18913729157E+03  0.00000000000E+00 0.  1.
         -6    2    1    2    0  503 -0.21645568744E+03 -0.12975189820E+03  0.48245201164E+02  0.30957744847E+03  0.17269040928E+03 0.  0.
        -24    2    3    3    0    0 -0.20647736965E+03 -0.14340603889E+03  0.59456274172E+01  0.26378065467E+03  0.79666097701E+02 0.  0.
          6    2    1    2  501    0  0.21645568744E+03  0.12975189820E+03  0.33949030534E+03  0.45643264117E+03  0.17143065304E+03 0.  0.
         24    2    5    5    0    0  0.19635836446E+03  0.58503481124E+02  0.18150349968E+03  0.28189851819E+03  0.67409120742E+02 0.  0.
          5    1    5    5  501    0  0.20097322973E+02  0.71248417074E+02  0.15798680565E+03  0.17453412299E+03  0.47000000000E+01 0. -1.
        -13    1    6    6    0    0  0.39110356759E+02  0.33697635798E+02  0.20688856673E+02  0.55616359596E+02  0.00000000000E+00 0.  1.
         14    1    6    6    0    0  0.15724800771E+03  0.24805845326E+02  0.16081464301E+03  0.22628215859E+03  0.00000000000E+00 0. -1.
         -5    1    3    3    0  503 -0.99783177862E+01  0.13654140690E+02  0.42299573747E+02  0.45796793807E+02  0.47000000000E+01 0.  1.
         13    1    4    4    0    0 -0.83004418438E+02 -0.85328546111E+02  0.35390187009E+02  0.12419001408E+03  0.00000000000E+00 0. -1.
        -14    1    4    4    0    0 -0.12347295121E+03 -0.58077492777E+02 -0.29444559592E+02  0.13959064058E+03  0.00000000000E+00 0.  1.
</event>
<event>
12    1  0.8226261E-002  0.2492970E+03  0.7818608E-02  0.1113826E+00
         21   -1    0    0  503  502  0.00000000000E+00  0.00000000000E+00  0.71556447191E+03  0.71556447191E+03  0.00000000000E+00 0.  1.
         21   -1    0    0  501  503 -0.00000000000E+00 -0.00000000000E+00 -0.15946983670E+03  0.15946983670E+03  0.00000000000E+00 0.  1.
          6    2    1    2  501    0  0.17870126197E+03  0.24349297327E+02 -0.17676432325E+02  0.24944479262E+03  0.17141534061E+03 0.  0.
         24    2    3    3    0    0  0.48553357375E+02 -0.37734890609E+02  0.12975321672E+02  0.10195057753E+03  0.80275841973E+02 0.  0.
         -6    2    1    2    0  502 -0.17870126197E+03 -0.24349297327E+02  0.57377106754E+03  0.62558951599E+03  0.17211035780E+03 0.  0.
        -24    2    5    5    0    0 -0.13215375405E+03 -0.60703403211E+02  0.28395256742E+03  0.32977683114E+03  0.83511555731E+02 0.  0.
          5    1    3    3  501    0  0.13014790459E+03  0.62084187936E+02 -0.30651753997E+02  0.14749421509E+03  0.47000000000E+01 0. -1.
        -13    1    4    4    0    0  0.17363275873E+02 -0.37929923411E+01 -0.32598709525E+02  0.37128775938E+02  0.00000000000E+00 0.  1.
         14    1    4    4    0    0  0.31190081501E+02 -0.33941898268E+02  0.45574031197E+02  0.64821801592E+02  0.00000000000E+00 0. -1.
         -5    1    5    5    0  502 -0.46547507919E+02  0.36354105884E+02  0.28981850011E+03  0.29581268485E+03  0.47000000000E+01 0.  1.
         13    1    6    6    0    0  0.97277251671E+01  0.50791639289E+01  0.24324889141E+02  0.26685703567E+02  0.00000000000E+00 0. -1.
        -14    1    6    6    0    0 -0.14188147921E+03 -0.65782567140E+02  0.25962767828E+03  0.30309112757E+03  0.00000000000E+00 0.  1.
</event>
<event>
12    1  0.8226261E-002  0.1967225E+03  0.7818608E-02  0.1152609E+00
         21   -1    0    0  501  502  0.00000000000E+00  0.00000000000E+00  0.76217050190E+02  0.76217050190E+02  0.00000000000E+00 0.  1.
         21   -1    0    0  502  503 -0.00000000000E+00 -0.00000000000E+00 -0.12136821529E+04  0.12136821529E+04  0.00000000000E+00 0.  1.
         -6    2    1    2    0  503 -0.34848987811E+02 -0.86743989093E+02 -0.10611242018E+04  0.10792054082E+04  0.17309179636E+03 0.  0.
        -24    2    3    3    0    0 -0.54669597235E+02  0.10657861665E+02 -0.47558898986E+03  0.48527481339E+03  0.78768028816E+02 0.  0.
          6    2    1    2  501    0  0.34848987811E+02  0.86743989093E+02 -0.76340900912E+02  0.21069379484E+03  0.17269907479E+03 0.  0.
         24    2    5    5    0    0  0.39377544162E+02 -0.75764820998E+01 -0.75002505082E+02  0.11613830630E+03  0.79086891181E+02 0.  0.
          5    1    5    5  501    0 -0.45285563510E+01  0.94320471193E+02 -0.13383958296E+01  0.94555488535E+02  0.47000000000E+01 0. -1.
        -11    1    6    6    0    0  0.38657602495E+02  0.44257633668E+01  0.12631785235E+01  0.38930620750E+02  0.00000000000E+00 0.  1.
         12    1    6    6    0    0  0.71994166704E+00 -0.12002245467E+02 -0.76265683606E+02  0.77207685551E+02  0.00000000000E+00 0. -1.
         -5    1    3    3    0  503  0.19820609424E+02 -0.97401850758E+02 -0.58553521190E+03  0.59393059482E+03  0.47000000000E+01 0.  1.
         11    1    4    4    0    0  0.18495985743E+02  0.10879587676E+02 -0.15267275695E+03  0.15417340118E+03  0.00000000000E+00 0. -1.
        -12    1    4    4    0    0 -0.73165582978E+02 -0.22172601085E+00 -0.32291623291E+03  0.33110141221E+03  0.00000000000E+00 0.  1.
</event>
<event>
12    1  0.8226261E-002  0.1747754E+03  0.7818608E-02  0.1173373E+00
         21   -1    0    0  501  502  0.00000000000E+00  0.00000000000E+00  0.17585539430E+03  0.17585539430E+03  0.00000000000E+00 0.  1.
         21   -1    0    0  502  503 -0.00000000000E+00 -0.00000000000E+00 -0.20435507640E+03  0.20435507640E+03  0.00000000000E+00 0.  1.
         -6    2    1    2    0  503  0.21016898925E+02  0.28897379627E+01 -0.89865534297E+02  0.19652543396E+03  0.17348305771E+03 0.  0.
        -24    2    3    3    0    0 -0.18669625392E+02 -0.58680684686E+02 -0.53360190217E+02  0.11454575780E+03  0.80507409980E+02 0.  0.
          6    2    1    2  501    0 -0.21016898925E+02 -0.28897379627E+01  0.61365852196E+02  0.18368503673E+03  0.17182655289E+03 0.  0.
         24    2    5    5    0    0 -0.72324451390E+02 -0.24332290948E+02  0.21443779840E+02  0.11506936884E+03  0.83416049420E+02 0.  0.
          5    1    5    5  501    0  0.51307552465E+02  0.21442552985E+02  0.39922072356E+02  0.68615667888E+02  0.47000000000E+01 0. -1.
        -13    1    6    6    0    0 -0.48946579140E+02 -0.29337749131E+02  0.51359448837E+02  0.76774110991E+02  0.00000000000E+00 0.  1.
         14    1    6    6    0    0 -0.23377872249E+02  0.50054581832E+01 -0.29915668997E+02  0.38295257853E+02  0.00000000000E+00 0. -1.
         -5    1    3    3    0  503  0.39686524317E+02  0.61570422649E+02 -0.36505344080E+02  0.81979676164E+02  0.47000000000E+01 0.  1.
         11    1    4    4    0    0  0.10102249002E+02 -0.50329462409E+02 -0.64630955593E+02  0.82536480674E+02  0.00000000000E+00 0. -1.
        -12    1    4    4    0    0 -0.28771874394E+02 -0.83512222774E+01  0.11270765377E+02  0.32009277122E+02  0.00000000000E+00 0.  1.
</event>
<event>
12    1  0.8226261E-002  0.1951278E+03  0.7818608E-02  0.1155224E+00
         21   -1    0    0  503  502  0.00000000000E+00  0.00000000000E+00  0.22245535037E+03  0.22245535037E+03  0.00000000000E+00 0.  1.
         21   -1    0    0  501  503 -0.00000000000E+00 -0.00000000000E+00 -0.32232104449E+03  0.32232104449E+03  0.00000000000E+00 0.  1.
          6    2    1    2  501    0 -0.61627624312E+02  0.49289452360E+02 -0.23920960310E+03  0.30500236313E+03  0.17198195577E+03 0.  0.
         24    2    3    3    0    0 -0.40203330708E+02 -0.26387970002E+01 -0.23025608533E+03  0.24792523183E+03  0.82618307254E+02 0.  0.
         -6    2    1    2    0  502  0.61627624312E+02 -0.49289452360E+02  0.13934390899E+03  0.23977403173E+03  0.17845853055E+03 0.  0.
        -24    2    5    5    0    0  0.31363730009E+02  0.31183250151E+01  0.15490738312E+03  0.17710992593E+03  0.79863765299E+02 0.  0.
          5    1    3    3  501    0 -0.21424293604E+02  0.51928249360E+02 -0.89535177693E+01  0.57077131309E+02  0.47000000000E+01 0. -1.
        -13    1    4    4    0    0 -0.31120394787E+02  0.38553109278E+02 -0.11636820233E+03  0.12647679518E+03  0.00000000000E+00 0.  1.
         14    1    4    4    0    0 -0.90829359205E+01 -0.41191906278E+02 -0.11388788300E+03  0.12144843664E+03  0.00000000000E+00 0. -1.
         -5    1    5    5    0  502  0.30263894303E+02 -0.52407777375E+02 -0.15563474134E+02  0.62664105793E+02  0.47000000000E+01 0.  1.
         13    1    6    6    0    0 -0.22869352599E+02 -0.11537692230E+02  0.76348198720E+02  0.80530572320E+02  0.00000000000E+00 0. -1.
        -14    1    6    6    0    0  0.54233082608E+02  0.14656017245E+02  0.78559184401E+02  0.96579353613E+02  0.00000000000E+00 0.  1.
</event>
<event>
12    1  0.8226261E-002  0.2791127E+03  0.7818608E-02  0.1097816E+00
         21   -1    0    0  503  502  0.00000000000E+00  0.00000000000E+00  0.18937426720E+03  0.18937426720E+03  0.00000000000E+00 0. -1.
         21   -1    0    0  501  503 -0.00000000000E+00 -0.00000000000E+00 -0.43980460080E+03  0.43980460080E+03  0.00000000000E+00 0.  1.
          6    2    1    2  501    0 -0.19504434008E+03  0.67368317077E+02 -0.21647286156E+02  0.26828330395E+03  0.17007804513E+03 0.  0.
         24    2    3    3    0    0 -0.87179205188E+02  0.69510348342E+02  0.41980896373E+02  0.14294332136E+03  0.78984144722E+02 0.  0.
         -6    2    1    2    0  502  0.19504434008E+03 -0.67368317077E+02 -0.22878304744E+03  0.36089556405E+03  0.18794451471E+03 0.  0.
        -24    2    5    5    0    0  0.22420964940E+03 -0.46315648584E+02 -0.20573858945E+03  0.31791920819E+03  0.79555952384E+02 0.  0.
          5    1    3    3  501    0 -0.10786513489E+03 -0.21420312651E+01 -0.63628182530E+02  0.12533998259E+03  0.47000000000E+01 0. -1.
        -11    1    4    4    0    0  0.97767122109E+01  0.28501375336E+02  0.17563244430E+02  0.34876640501E+02  0.00000000000E+00 0.  1.
         12    1    4    4    0    0 -0.96955917399E+02  0.41008973005E+02  0.24417651944E+02  0.10806668086E+03  0.00000000000E+00 0. -1.
         -5    1    5    5    0  502 -0.29165309321E+02 -0.21052668493E+02 -0.23044457992E+02  0.42976355856E+02  0.47000000000E+01 0.  1.
         13    1    6    6    0    0  0.33551185328E+02  0.31653446173E+01 -0.86007515089E+00  0.33711143154E+02  0.00000000000E+00 0. -1.
        -14    1    6    6    0    0  0.19065846407E+03 -0.49480993201E+02 -0.20487851430E+03  0.28420806504E+03  0.00000000000E+00 0.  1.
</event>
<event>
12    1  0.8226261E-002  0.2428478E+03  0.7818608E-02  0.1118010E+00
         21   -1    0    0  503  502  0.00000000000E+00  0.00000000000E+00  0.25485648596E+03  0.25485648596E+03  0.00000000000E+00 0. -1.
         21   -1    0    0  501  503 -0.00000000000E+00 -0.00000000000E+00 -0.23605718161E+03  0.23605718161E+03  0.00000000000E+00 0.  1.
          6    2    1    2  501    0  0.15551744645E+03 -0.71486013186E+02 -0.27138808702E+02  0.24435947802E+03  0.17227627037E+03 0.  0.
         24    2    3    3    0    0  0.57569372531E+02 -0.67580345848E+02  0.41379270610E+02  0.12466864039E+03  0.77127751567E+02 0.  0.
         -6    2    1    2    0  502 -0.15551744645E+03  0.71486013186E+02  0.45938113043E+02  0.24655418955E+03  0.17141391986E+03 0.  0.
        -24    2    5    5    0    0 -0.14221546482E+03  0.69727780817E+02  0.91224296173E+02  0.19908880765E+03  0.78913112126E+02 0.  0.
          5    1    3    3  501    0  0.97948073917E+02 -0.39056673383E+01 -0.68518079312E+02  0.11969083764E+03  0.47000000000E+01 0. -1.
        -11    1    4    4    0    0 -0.16802069446E+02 -0.33679338159E+01 -0.20187613021E+01  0.17254793915E+02  0.00000000000E+00 0.  1.
         12    1    4    4    0    0  0.74371441976E+02 -0.64212412032E+02  0.43398031912E+02  0.10741384647E+03  0.00000000000E+00 0. -1.
         -5    1    5    5    0  502 -0.13301981624E+02  0.17582323697E+01 -0.45286183131E+02  0.47465381898E+02  0.47000000000E+01 0.  1.
         11    1    6    6    0    0 -0.40504942449E+02 -0.66111660659E+01  0.51508648349E+02  0.65859689753E+02  0.00000000000E+00 0. -1.
        -12    1    6    6    0    0 -0.10171052237E+03  0.76338946882E+02  0.39715647824E+02  0.13322911789E+03  0.00000000000E+00 0.  1.
</event>
<event>
12    1  0.8226261E-002  0.2340714E+03  0.7818608E-02  0.1123861E+00
         21   -1    0    0  503  502  0.00000000000E+00  0.00000000000E+00  0.10125181915E+03  0.10125181915E+03  0.00000000000E+00 0. -1.
         21   -1    0    0  501  503 -0.00000000000E+00 -0.00000000000E+00 -0.54048119751E+03  0.54048119751E+03  0.00000000000E+00 0.  1.
          6    2    1    2  501    0  0.66788389356E+02  0.14406086022E+03 -0.22373346131E+03  0.32356971369E+03  0.17154147459E+03 0.  0.
         24    2    3    3    0    0  0.92558214764E+02  0.10762215049E+03 -0.22567976987E+03  0.27865043513E+03  0.81025650727E+02 0.  0.
         -6    2    1    2    0  502 -0.66788389356E+02 -0.14406086022E+03 -0.21549591705E+03  0.31816330297E+03  0.17197434893E+03 0.  0.
        -24    2    5    5    0    0 -0.11187011281E+03 -0.98474030668E+02 -0.14893732446E+03  0.22562867665E+03  0.80708836297E+02 0.  0.
          5    1    3    3  501    0 -0.25769825408E+02  0.36438709738E+02  0.19463085604E+01  0.44919278556E+02  0.47000000000E+01 0. -1.
        -13    1    4    4    0    0  0.67813876278E+02  0.20648288415E+02 -0.77251742724E+02  0.10484705711E+03  0.00000000000E+00 0.  1.
         14    1    4    4    0    0  0.24744338486E+02  0.86973862070E+02 -0.14842802714E+03  0.17380337802E+03  0.00000000000E+00 0. -1.
         -5    1    5    5    0  502  0.45081723456E+02 -0.45586829556E+02 -0.66558592593E+02  0.92534626312E+02  0.47000000000E+01 0.  1.
         13    1    6    6    0    0 -0.46264150003E+02 -0.57756339224E+02 -0.22265245233E+02  0.77278117481E+02  0.00000000000E+00 0. -1.
        -14    1    6    6    0    0 -0.65605962809E+02 -0.40717691444E+02 -0.12667207922E+03  0.14835055917E+03  0.00000000000E+00 0.  1.
</event>
<event>
12    1  0.8226261E-002  0.1779653E+03  0.7818608E-02  0.1169930E+00
         21   -1    0    0  501  502  0.00000000000E+00  0.00000000000E+00  0.18053309860E+03  0.18053309860E+03  0.00000000000E+00 0.  1.
         21   -1    0    0  502  503 -0.00000000000E+00 -0.00000000000E+00 -0.91942238564E+03  0.91942238564E+03  0.00000000000E+00 0.  1.
         -6    2    1    2    0  503 -0.36505935893E+02 -0.20960096658E+02 -0.86425258567E+03  0.88226853418E+03  0.17231722365E+03 0.  0.
        -24    2    3    3    0    0 -0.51724634260E+02 -0.92617531170E+00 -0.84465988182E+03  0.85003608425E+03  0.80216787418E+02 0.  0.
          6    2    1    2  501    0  0.36505935893E+02  0.20960096658E+02  0.12536329863E+03  0.21768695005E+03  0.17291513113E+03 0.  0.
         24    2    5    5    0    0 -0.42713578114E+02 -0.12000949710E+02  0.78786784923E+02  0.11994431040E+03  0.78808676995E+02 0.  0.
          5    1    5    5  501    0  0.79219514006E+02  0.32961046368E+02  0.46576513710E+02  0.97742639653E+02  0.47000000000E+01 0. -1.
        -11    1    6    6    0    0 -0.23235616511E+02  0.31768624750E+02  0.51474581723E+02  0.64797931732E+02  0.00000000000E+00 0.  1.
         12    1    6    6    0    0 -0.19477961603E+02 -0.43769574460E+02  0.27312203200E+02  0.55146378668E+02  0.00000000000E+00 0. -1.
         -5    1    3    3    0  503  0.15218698367E+02 -0.20033921347E+02 -0.19592703851E+02  0.32232449934E+02  0.47000000000E+01 0.  1.
         11    1    4    4    0    0 -0.36190459517E+02  0.14699353540E+02 -0.14924156963E+03  0.15426881234E+03  0.00000000000E+00 0. -1.
        -12    1    4    4    0    0 -0.15534174742E+02 -0.15625528852E+02 -0.69541831219E+03  0.69576727191E+03  0.00000000000E+00 0.  1.
</event>
<event>
12    1  0.8226261E-002  0.1809316E+03  0.7818608E-02  0.1168587E+00
         21   -1    0    0  501  502  0.00000000000E+00  0.00000000000E+00  0.48929389874E+03  0.48929389874E+03  0.00000000000E+00 0.  1.
         21   -1    0    0  502  503 -0.00000000000E+00 -0.00000000000E+00 -0.13965031953E+03  0.13965031953E+03  0.00000000000E+00 0.  1.
         -6    2    1    2    0  503  0.19821847331E+02  0.19887115258E+02 -0.54454019731E+02  0.18894836126E+03  0.17873958703E+03 0.  0.
        -24    2    3    3    0    0  0.60244341916E+02 -0.13997578898E+02  0.15890513398E+02  0.10089954577E+03  0.78121040530E+02 0.  0.
          6    2    1    2  501    0 -0.19821847331E+02 -0.19887115258E+02  0.40409759894E+03  0.43999585701E+03  0.17179371855E+03 0.  0.
         24    2    5    5    0    0  0.40275734071E+01 -0.49406945497E+02  0.11644695233E+03  0.14981453483E+03  0.80170035110E+02 0.  0.
          5    1    5    5  501    0 -0.23849420738E+02  0.29519830239E+02  0.28765064661E+03  0.29018132218E+03  0.47000000000E+01 0. -1.
        -11    1    6    6    0    0 -0.11505478236E+02 -0.47062863691E+02  0.12344895930E+03  0.13261574085E+03  0.00000000000E+00 0.  1.
         12    1    6    6    0    0  0.15533051643E+02 -0.23440818062E+01 -0.70020069725E+01  0.17198793984E+02  0.00000000000E+00 0. -1.
         -5    1    3    3    0  503 -0.40422494585E+02  0.33884694156E+02 -0.70344533130E+02  0.88048815481E+02  0.47000000000E+01 0.  1.
         11    1    4    4    0    0 -0.31083251967E+01 -0.25418706618E+02  0.25114708506E+02  0.35868104424E+02  0.00000000000E+00 0. -1.
        -12    1    4    4    0    0  0.63352667112E+02  0.11421127720E+02 -0.92241951076E+01  0.65031441350E+02  0.00000000000E+00 0.  1.
</event>
<event>
12    1  0.8226261E-002  0.1745454E+03  0.7818608E-02  0.1173230E+00
         21   -1    0    0  501  502  0.00000000000E+00  0.00000000000E+00  0.42235799486E+02  0.42235799486E+02  0.00000000000E+00 0.  1.
         21   -1    0    0  502  503 -0.00000000000E+00 -0.00000000000E+00 -0.14982053097E+04  0.14982053097E+04  0.00000000000E+00 0.  1.
         -6    2    1    2    0  503  0.27359129684E+02 -0.41616795091E+01 -0.12830171281E+04  0.12948355234E+04  0.17233757587E+03 0.  0.
        -24    2    3    3    0    0  0.65487950612E+02 -0.40289752091E+02 -0.67441495309E+03  0.68395276700E+03  0.83928080753E+02 0.  0.
          6    2    1    2  501    0 -0.27359129684E+02  0.41616795091E+01 -0.17295238215E+03  0.24560558584E+03  0.17217356287E+03 0.  0.
         24    2    5    5    0    0 -0.74778031936E+02 -0.55821466713E+01 -0.82563970756E+02  0.14296227455E+03  0.89434267787E+02 0.  0.
          5    1    5    5  501    0  0.47418902253E+02  0.97438261804E+01 -0.90388411393E+02  0.10264331129E+03  0.47000000000E+01 0. -1.
        -13    1    6    6    0    0 -0.32615803024E+02 -0.30315277286E+02 -0.82874830391E+02  0.94079988075E+02  0.00000000000E+00 0.  1.
         14    1    6    6    0    0 -0.42162228913E+02  0.24733130615E+02  0.31085963590E+00  0.48882286471E+02  0.00000000000E+00 0. -1.
         -5    1    3    3    0  503 -0.38128820929E+02  0.36128072582E+02 -0.60860217502E+03  0.61088275639E+03  0.47000000000E+01 0.  1.
         13    1    4    4    0    0 -0.15314118805E+02  0.55314058672E+01 -0.47963517355E+02  0.50651926742E+02  0.00000000000E+00 0. -1.
        -14    1    4    4    0    0  0.80802069417E+02 -0.45821157959E+02 -0.62645143574E+03  0.63330084026E+03  0.00000000000E+00 0.  1.
</event>
<event>
12    1  0.8226261E-002  0.2542637E+03  0.7818608E-02  0.1110856E+00
         21   -1    0    0  503  502  0.00000000000E+00  0.00000000000E+00  0.14637776777E+03  0.14637776777E+03  0.00000000000E+00 0. -1.
         21   -1    0    0  501  503 -0.00000000000E+00 -0.00000000000E+00 -0.66460730445E+03  0.66460730445E+03  0.00000000000E+00 0. -1.
          6    2    1    2  501    0  0.14640183100E+03  0.11576448152E+03 -0.49476964230E+03  0.55564140537E+03  0.17060322716E+03 0.  0.
         24    2    3    3    0    0  0.11468034622E+03  0.14984114698E+03 -0.41851200124E+03  0.46617191590E+03  0.80993881601E+02 0.  0.
         -6    2    1    2    0  502 -0.14640183100E+03 -0.11576448152E+03 -0.23459894387E+02  0.25534366685E+03  0.17267052515E+03 0.  0.
        -24    2    5    5    0    0 -0.12809090636E+03 -0.14279026938E+03 -0.48936174554E+02  0.21366856611E+03  0.80393815931E+02 0.  0.
          5    1    3    3  501    0  0.31721484777E+02 -0.34076665461E+02 -0.76257641060E+02  0.89469489467E+02  0.47000000000E+01 0. -1.
        -11    1    4    4    0    0 -0.40558244317E+01 -0.60955528007E+01 -0.60016484270E+01  0.94670618255E+01  0.00000000000E+00 0.  1.
         12    1    4    4    0    0  0.11873617065E+03  0.15593669978E+03 -0.41251035281E+03  0.45670485408E+03  0.00000000000E+00 0. -1.
         -5    1    5    5    0  502 -0.18310924637E+02  0.27025787866E+02  0.25476280167E+02  0.41675100744E+02  0.47000000000E+01 0.  1.
         13    1    6    6    0    0 -0.27931972409E+02 -0.29117192494E+02  0.22466916140E+02  0.46181904489E+02  0.00000000000E+00 0. -1.
        -14    1    6    6    0    0 -0.10015893395E+03 -0.11367307689E+03 -0.71403090694E+02  0.16748666162E+03  0.00000000000E+00 0.  1.
</event>
<event>
12    1  0.8226261E-002  0.1853380E+03  0.7818608E-02  0.1162859E+00
         21   -1    0    0  501  502  0.00000000000E+00  0.00000000000E+00  0.38825299419E+03  0.38825299419E+03  0.00000000000E+00 0.  1.
         21   -1    0    0  502  503 -0.00000000000E+00 -0.00000000000E+00 -0.14162903678E+03  0.14162903678E+03  0.00000000000E+00 0.  1.
         -6    2    1    2    0  503  0.51620093605E+02  0.44125013069E+02 -0.39274812202E+02  0.18945367009E+03  0.17244863407E+03 0.  0.
        -24    2    3    3    0    0  0.28688535224E+02  0.92613600317E+02 -0.48188568204E+01  0.12552947808E+03  0.79587168990E+02 0.  0.
          6    2    1    2  501    0 -0.51620093605E+02 -0.44125013069E+02  0.28589876961E+03  0.34042836088E+03  0.17187702459E+03 0.  0.
         24    2    5    5    0    0  0.23223451982E+02 -0.65183385952E+02  0.15657443547E+03  0.18945854673E+03  0.81183647111E+02 0.  0.
          5    1    5    5  501    0 -0.74843545587E+02  0.21058372883E+02  0.12932433414E+03  0.15096981415E+03  0.47000000000E+01 0. -1.
        -11    1    6    6    0    0  0.32534705637E+02 -0.32877840676E+02  0.14757548215E+03  0.15465439667E+03  0.00000000000E+00 0.  1.
         12    1    6    6    0    0 -0.93112536553E+01 -0.32305545276E+02  0.89989533252E+01  0.34804150057E+02  0.00000000000E+00 0. -1.
         -5    1    3    3    0  503  0.22931558381E+02 -0.48488587248E+02 -0.34455955382E+02  0.63924192012E+02  0.47000000000E+01 0.  1.
         11    1    4    4    0    0 -0.22863081412E+02  0.19236336922E+02  0.15382479216E+02  0.33606216935E+02  0.00000000000E+00 0. -1.
        -12    1    4    4    0    0  0.51551616635E+02  0.73377263396E+02 -0.20201336037E+02  0.91923261141E+02  0.00000000000E+00 0.  1.
</event>
<event>
12    1  0.8226261E-002  0.1793685E+03  0.7818608E-02  0.1168555E+00
         21   -1    0    0  501  502  0.00000000000E+00  0.00000000000E+00  0.39597347947E+03  0.39597347947E+03  0.00000000000E+00 0. -1.
         21   -1    0    0  502  503 -0.00000000000E+00 -0.00000000000E+00 -0.81588776262E+02  0.81588776262E+02  0.00000000000E+00 0. -1.
         -6    2    1    2    0  503 -0.49860769219E+02  0.29564575235E+01  0.17737973090E+03  0.25185574864E+03  0.17167676675E+03 0.  0.
        -24    2    3    3    0    0  0.37403223765E+02  0.13758859669E+02  0.10588124426E+03  0.13842815079E+03  0.79769716541E+02 0.  0.
          6    2    1    2  501    0  0.49860769219E+02 -0.29564575235E+01  0.13700497231E+03  0.22570650709E+03  0.17227370071E+03 0.  0.
         24    2    5    5    0    0  0.32784903178E+02 -0.59930534817E+02  0.41076439547E+02  0.11273746672E+03  0.79724172219E+02 0.  0.
          5    1    5    5  501    0  0.17075866041E+02  0.56974077294E+02  0.95928532765E+02  0.11296904037E+03  0.47000000000E+01 0. -1.
        -11    1    6    6    0    0  0.29822121111E+02 -0.42887006955E+02  0.64890540526E+02  0.83303280385E+02  0.00000000000E+00 0.  1.
         12    1    6    6    0    0  0.29627820668E+01 -0.17043527863E+02 -0.23814100979E+02  0.29434186332E+02  0.00000000000E+00 0. -1.
         -5    1    3    3    0  503 -0.87263992984E+02 -0.10802402146E+02  0.71498486635E+02  0.11342759785E+03  0.47000000000E+01 0.  1.
         11    1    4    4    0    0  0.17855818858E+02  0.41807511396E+00  0.11245628821E+03  0.11386580615E+03  0.00000000000E+00 0. -1.
        -12    1    4    4    0    0  0.19547404907E+02  0.13340784555E+02 -0.65750439439E+01  0.24562344636E+02  0.00000000000E+00 0.  1.
</event>
<event>
12    1  0.8226261E-002  0.2996520E+03  0.7818608E-02  0.1085442E+00
         21   -1    0    0  501  502  0.00000000000E+00  0.00000000000E+00  0.14264751028E+04  0.14264751028E+04  0.00000000000E+00 0.  1.
         21   -1    0    0  502  503 -0.00000000000E+00 -0.00000000000E+00 -0.76686322394E+02  0.76686322394E+02  0.00000000000E+00 0. -1.
         -6    2    1    2    0  503 -0.16701852850E+03  0.17872359578E+03  0.35603256888E+03  0.46521020168E+03  0.17269634939E+03 0.  0.
        -24    2    3    3    0    0 -0.17218551924E+02  0.10472575147E+03  0.14387501764E+03  0.19512016023E+03  0.78153020892E+02 0.  0.
          6    2    1    2  501    0  0.16701852850E+03 -0.17872359578E+03  0.99375621151E+03  0.10379512235E+04  0.17307230253E+03 0.  0.
         24    2    5    5    0    0  0.17462828744E+03 -0.12351199000E+03  0.90276500469E+03  0.93114429693E+03  0.79339760367E+02 0.  0.
          5    1    5    5  501    0 -0.76097589407E+01 -0.55211605781E+02  0.90991206828E+02  0.10680692657E+03  0.47000000000E+01 0. -1.
        -13    1    6    6    0    0  0.61250466753E+02 -0.17813215638E+02  0.15743574434E+03  0.16986743044E+03  0.00000000000E+00 0.  1.
         14    1    6    6    0    0  0.11337782068E+03 -0.10569877436E+03  0.74532926035E+03  0.76127686649E+03  0.00000000000E+00 0. -1.
         -5    1    3    3    0  503 -0.14979997657E+03  0.73997844316E+02  0.21215755124E+03  0.27009004145E+03  0.47000000000E+01 0.  1.
         11    1    4    4    0    0 -0.40526124082E+02  0.98298827440E+02  0.12701961798E+03  0.16564724435E+03  0.00000000000E+00 0. -1.
        -12    1    4    4    0    0  0.23307572158E+02  0.64269240259E+01  0.16855399658E+02  0.29472915871E+02  0.00000000000E+00 0.  1.
</event>
<event>
12    1  0.8226261E-002  0.2477834E+03  0.7818608E-02  0.1115563E+00
         21   -1    0    0  501  502  0.00000000000E+00  0.00000000000E+00  0.23116089013E+04  0.23116089013E+04  0.00000000000E+00 0.  1.
         21   -1    0    0  502  503 -0.00000000000E+00 -0.00000000000E+00 -0.26252362041E+02  0.26252362041E+02  0.00000000000E+00 0. -1.
         -6    2    1    2    0  503 -0.15260361158E+03 -0.78818252656E+02  0.10159925620E+04  0.10445393747E+04  0.17123504313E+03 0.  0.
        -24    2    3    3    0    0 -0.11062362735E+03  0.15499203468E+02  0.65609959025E+03  0.67010227352E+03  0.78054932068E+02 0.  0.
          6    2    1    2  501    0  0.15260361158E+03  0.78818252656E+02  0.12693639772E+04  0.12933218886E+04  0.17859569342E+03 0.  0.
         24    2    5    5    0    0  0.98229768664E+02  0.21319389845E+02  0.39580907455E+03  0.41617715028E+03  0.80218408653E+02 0.  0.
          5    1    5    5  501    0  0.54373842917E+02  0.57498862811E+02  0.87355490267E+03  0.87714473834E+03  0.47000000000E+01 0. -1.
        -13    1    6    6    0    0  0.53020289208E+02  0.17118392172E+02  0.33853489100E+03  0.34308900135E+03  0.00000000000E+00 0.  1.
         14    1    6    6    0    0  0.45209479455E+02  0.42009976732E+01  0.57274183547E+02  0.73088148937E+02  0.00000000000E+00 0. -1.
         -5    1    3    3    0  503 -0.41979984232E+02 -0.94317456124E+02  0.35989297175E+03  0.37443710115E+03  0.47000000000E+01 0.  1.
         13    1    4    4    0    0 -0.33071676901E+02 -0.31197606472E+02  0.24016620687E+03  0.24443165381E+03  0.00000000000E+00 0. -1.
        -14    1    4    4    0    0 -0.77551950447E+02  0.46696809940E+02  0.41593338337E+03  0.42567061971E+03  0.00000000000E+00 0.  1.
</event>
<event>
12    1  0.8226261E-002  0.1980569E+03  0.7818608E-02  0.1152574E+00
         21   -1    0    0  503  502  0.00000000000E+00  0.00000000000E+00  0.14440857976E+03  0.14440857976E+03  0.00000000000E+00 0.  1.
         21   -1    0    0  501  503 -0.00000000000E+00 -0.00000000000E+00 -0.97374192108E+03  0.97374192108E+03  0.00000000000E+00 0.  1.
          6    2    1    2  501    0 -0.43164168260E+01 -0.87250328462E+02 -0.89347237292E+03  0.91516086158E+03  0.17775058403E+03 0.  0.
         24    2    3    3    0    0  0.53366799893E+02 -0.98483335789E+02 -0.51921395244E+03  0.53628754601E+03  0.73987977710E+02 0.  0.
         -6    2    1    2    0  502  0.43164168260E+01  0.87250328462E+02  0.64139031598E+02  0.20298963926E+03  0.17163836110E+03 0.  0.
        -24    2    5    5    0    0  0.21914857352E+02 -0.15054026468E+02  0.74076389241E+01  0.84598646947E+02  0.79969827217E+02 0.  0.
          5    1    3    3  501    0 -0.57683216719E+02  0.11233007328E+02 -0.37425842048E+03  0.37887331556E+03  0.47000000000E+01 0. -1.
        -13    1    4    4    0    0  0.14626661250E+02 -0.90738051792E+02 -0.40920786889E+03  0.41940244780E+03  0.00000000000E+00 0.  1.
         14    1    4    4    0    0  0.38740138643E+02 -0.77452839971E+01 -0.11000608355E+03  0.11688509821E+03  0.00000000000E+00 0. -1.
         -5    1    5    5    0  502 -0.17598440526E+02  0.10230435493E+03  0.56731392674E+02  0.11839099231E+03  0.47000000000E+01 0.  1.
         13    1    6    6    0    0  0.85482176952E+01 -0.45861216932E+02  0.17034822522E+02  0.49663954963E+02  0.00000000000E+00 0. -1.
        -14    1    6    6    0    0  0.13366639657E+02  0.30807190464E+02 -0.96271835975E+01  0.34934691984E+02  0.00000000000E+00 0.  1.
</event>
<event>
12    1  0.8226261E-002  0.1885655E+03  0.7818608E-02  0.1160229E+00
         21   -1    0    0  501  502  0.00000000000E+00  0.00000000000E+00  0.33693113468E+03  0.33693113468E+03  0.00000000000E+00 0. -1.
         21   -1    0    0  502  503 -0.00000000000E+00 -0.00000000000E+00 -0.25173634814E+03  0.25173634814E+03  0.00000000000E+00 0.  1.
         -6    2    1    2    0  503  0.44882337923E+02  0.60071363597E+02 -0.18248588053E+03  0.26240817519E+03  0.17301433707E+03 0.  0.
        -24    2    3    3    0    0 -0.21675794564E+02  0.46486923969E+02 -0.38165039713E+02  0.10283024095E+03  0.80539518427E+02 0.  0.
          6    2    1    2  501    0 -0.44882337923E+02 -0.60071363597E+02  0.26768066707E+03  0.32625930762E+03  0.17078993912E+03 0.  0.
         24    2    5    5    0    0 -0.56704059020E+01  0.19181162908E+02  0.71243067355E+02  0.11078689836E+03  0.82450540863E+02 0.  0.
          5    1    5    5  501    0 -0.39211932021E+02 -0.79252526505E+02  0.19643759972E+03  0.21547240926E+03  0.47000000000E+01 0. -1.
        -13    1    6    6    0    0 -0.17685127879E+01 -0.30671290523E+02  0.44513942803E+02  0.54086475239E+02  0.00000000000E+00 0.  1.
         14    1    6    6    0    0 -0.39018931141E+01  0.49852453431E+02  0.26729124552E+02  0.56700423122E+02  0.00000000000E+00 0. -1.
         -5    1    3    3    0  503  0.66558132487E+02  0.13584439629E+02 -0.14432084082E+03  0.15957793424E+03  0.47000000000E+01 0.  1.
         11    1    4    4    0    0  0.11015843679E+02 -0.16581963952E+02  0.38798068218E+01  0.20282091644E+02  0.00000000000E+00 0. -1.
        -12    1    4    4    0    0 -0.32691638243E+02  0.63068887921E+02 -0.42044846535E+02  0.82548149311E+02  0.00000000000E+00 0.  1.
</event>
<event>
12    1  0.8226261E-002  0.2008370E+03  0.7818608E-02  0.1149254E+00
         21   -1    0    0  501  502  0.00000000000E+00  0.00000000000E+00  0.33231065414E+03  0.33231065414E+03  0.00000000000E+00 0.  1.
         21   -1    0    0  502  503 -0.00000000000E+00 -0.00000000000E+00 -0.16535698332E+03  0.16535698332E+03  0.00000000000E+00 0.  1.
         -6    2    1    2    0  503 -0.10120017983E+03  0.14287844922E+02 -0.45921859650E+02  0.20500489022E+03  0.17167576681E+03 0.  0.
        -24    2    3    3    0    0 -0.65430818814E+02  0.31673663379E+02  0.36442642449E+02  0.11342042059E+03  0.79067772298E+02 0.  0.
          6    2    1    2  501    0  0.10120017983E+03 -0.14287844922E+02  0.21287553047E+03  0.29266274724E+03  0.17288687988E+03 0.  0.
         24    2    5    5    0    0  0.39861710179E+02 -0.56024973266E+02  0.53059746477E+02  0.11640279558E+03  0.77501745503E+02 0.  0.
          5    1    5    5  501    0  0.61338469653E+02  0.41737128344E+02  0.15981578400E+03  0.17625995165E+03  0.47000000000E+01 0. -1.
        -13    1    6    6    0    0  0.54291130000E+02 -0.18089211166E+02  0.49492885134E+02  0.75659051251E+02  0.00000000000E+00 0.  1.
         14    1    6    6    0    0 -0.14429419822E+02 -0.37935762100E+02  0.35668613426E+01  0.40743744334E+02  0.00000000000E+00 0. -1.
         -5    1    3    3    0  503 -0.35769361018E+02 -0.17385818456E+02 -0.82364502099E+02  0.91584469628E+02  0.47000000000E+01 0.  1.
         13    1    4    4    0    0 -0.67601798903E+02 -0.21061620215E+01  0.41265137625E+02  0.79229102712E+02  0.00000000000E+00 0. -1.
        -14    1    4    4    0    0  0.21709800892E+01  0.33779825400E+02 -0.48224951757E+01  0.34191317880E+02  0.00000000000E+00 0.  1.
</event>
<event>
12    1  0.8226261E-002  0.1906242E+03  0.7818608E-02  0.1158559E+00
         21   -1    0    0  503  502  0.00000000000E+00  0.00000000000E+00  0.70371363361E+03  0.70371363361E+03  0.00000000000E+00 0. -1.
         21   -1    0    0  501  503 -0.00000000000E+00 -0.00000000000E+00 -0.67992851420E+02  0.67992851420E+02  0.00000000000E+00 0.  1.
          6    2    1    2  501    0  0.78737157943E+02 -0.27609184946E+02  0.12595416125E+03  0.22847762527E+03  0.17139360366E+03 0.  0.
         24    2    3    3    0    0  0.11654963195E+03 -0.13688432719E+02  0.12339285127E+03  0.18783010576E+03  0.79266405157E+02 0.  0.
         -6    2    1    2    0  502 -0.78737157943E+02  0.27609184946E+02  0.50976662094E+03  0.54322885977E+03  0.16814808689E+03 0.  0.
        -24    2    5    5    0    0 -0.11412122560E+03  0.14907224671E+02  0.45856097395E+03  0.47953050561E+03  0.80158963938E+02 0.  0.
          5    1    3    3  501    0 -0.37812474009E+02 -0.13920752227E+02  0.25613099825E+01  0.40647519507E+02  0.47000000000E+01 0. -1.
        -11    1    4    4    0    0  0.39092533888E+02 -0.39926449237E+02  0.29058213715E+02  0.62981960423E+02  0.00000000000E+00 0.  1.
         12    1    4    4    0    0  0.77457098064E+02  0.26238016518E+02  0.94334637554E+02  0.12484814534E+03  0.00000000000E+00 0. -1.
         -5    1    5    5    0  502  0.35384067655E+02  0.12701960275E+02  0.51205646987E+02  0.63698354155E+02  0.47000000000E+01 0.  1.
         13    1    6    6    0    0 -0.16620745005E+01 -0.20361201757E+02  0.43463092275E+02  0.48024800038E+02  0.00000000000E+00 0. -1.
        -14    1    6    6    0    0 -0.11245915110E+03  0.35268426427E+02  0.41509788168E+03  0.43150570557E+03  0.00000000000E+00 0.  1.
</event>
<event>
12    1  0.8226261E-002  0.1921429E+03  0.7818608E-02  0.1157837E+00
         21   -1    0    0  501  502  0.00000000000E+00  0.00000000000E+00  0.28691859050E+03  0.28691859050E+03  0.00000000000E+00 0. -1.
         21   -1    0    0  502  503 -0.00000000000E+00 -0.00000000000E+00 -0.13101493563E+03  0.13101493563E+03  0.00000000000E+00 0.  1.
         -6    2    1    2    0  503  0.66895701976E+02  0.25065189571E+02  0.31559688751E+02  0.18906605783E+03  0.17218205945E+03 0.  0.
        -24    2    3    3    0    0  0.11054736891E+03  0.16879921210E+02  0.39926979294E+02  0.14362853814E+03  0.80804336388E+02 0.  0.
          6    2    1    2  501    0 -0.66895701976E+02 -0.25065189571E+02  0.12434396612E+03  0.22886746831E+03  0.17836927277E+03 0.  0.
         24    2    5    5    0    0  0.24775930143E+02  0.25883513684E+02  0.55704772297E+02  0.10343666098E+03  0.79450098694E+02 0.  0.
          5    1    5    5  501    0 -0.91671632119E+02 -0.50948703255E+02  0.68639193823E+02  0.12543080733E+03  0.47000000000E+01 0. -1.
        -13    1    6    6    0    0 -0.57893535280E+01  0.12897455585E+02 -0.17827677783E+02  0.22752737637E+02  0.00000000000E+00 0.  1.
         14    1    6    6    0    0  0.30565283671E+02  0.12986058098E+02  0.73532450080E+02  0.80683923340E+02  0.00000000000E+00 0. -1.
         -5    1    3    3    0  503 -0.43651666937E+02  0.81852683610E+01 -0.83672905439E+01  0.45437519690E+02  0.47000000000E+01 0.  1.
         11    1    4    4    0    0  0.71934113936E+02 -0.26768329825E+02  0.79724680463E+01  0.77166187389E+02  0.00000000000E+00 0. -1.
        -12    1    4    4    0    0  0.38613254977E+02  0.43648251034E+02  0.31954511248E+02  0.66462350751E+02  0.00000000000E+00 0.  1.
</event>
<event>
12    1  0.8226261E-002  0.2034385E+03  0.7818608E-02  0.1148502E+00
         21   -1    0    0  501  502  0.00000000000E+00  0.00000000000E+00  0.57778609487E+02  0.57778609487E+02  0.00000000000E+00 0. -1.
         21   -1    0    0  502  503 -0.00000000000E+00 -0.00000000000E+00 -0.15657177788E+04  0.15657177788E+04  0.00000000000E+00 0. -1.
         -6    2    1    2    0  503 -0.10921014228E+03  0.26756008240E+01 -0.13548034332E+04  0.13688637462E+04  0.16236255477E+03 0.  0.
        -24    2    3    3    0    0 -0.13704785468E+03 -0.18735815484E+02 -0.10662048500E+04  0.10780981720E+04  0.79810656776E+02 0.  0.
          6    2    1    2  501    0  0.10921014228E+03 -0.26756008240E+01 -0.15313573611E+03  0.25463264202E+03  0.17161938904E+03 0.  0.
         24    2    5    5    0    0  0.12144287064E+03 -0.96119884325E+00 -0.17599523339E+03  0.22822761536E+03  0.79776108611E+02 0.  0.
          5    1    5    5  501    0 -0.12232728362E+02 -0.17144019807E+01  0.22859497278E+02  0.26405026664E+02  0.47000000000E+01 0. -1.
        -13    1    6    6    0    0  0.14650639673E+02  0.30597073444E+02 -0.42851202264E+02  0.54653889904E+02  0.00000000000E+00 0.  1.
         14    1    6    6    0    0  0.10679223097E+03 -0.31558272287E+02 -0.13314403112E+03  0.17357372545E+03  0.00000000000E+00 0. -1.
         -5    1    3    3    0  503  0.27837712402E+02  0.21411416308E+02 -0.28859858313E+03  0.29076557425E+03  0.47000000000E+01 0.  1.
         13    1    4    4    0    0 -0.12307259963E+03 -0.18323740221E+02 -0.65845302102E+03  0.67010671175E+03  0.00000000000E+00 0. -1.
        -14    1    4    4    0    0 -0.13975255050E+02 -0.41207526270E+00 -0.40775182903E+03  0.40799146025E+03  0.00000000000E+00 0.  1.
</event>
<event>
12    1  0.8226261E-002  0.2508262E+03  0.7818608E-02  0.1112962E+00
         21   -1    0    0  501  502  0.00000000000E+00  0.00000000000E+00  0.11487049892E+04  0.11487049892E+04  0.00000000000E+00 0.  1.
         21   -1    0    0  502  503 -0.00000000000E+00 -0.00000000000E+00 -0.60433292739E+02  0.60433292739E+02  0.00000000000E+00 0.  1.
         -6    2    1    2    0  503  0.17329805437E+03  0.55846439852E+02  0.73432347974E+03  0.77597987388E+03  0.17251884322E+03 0.  0.
        -24    2    3    3    0    0  0.51771054952E+02  0.80766553701E+02  0.39083006543E+03  0.41074072025E+03  0.82196842418E+02 0.  0.
          6    2    1    2  501    0 -0.17329805437E+03 -0.55846439852E+02  0.35394821673E+03  0.43315840807E+03  0.17086786083E+03 0.  0.
         24    2    5    5    0    0 -0.93728295230E+02  0.28072156025E+02  0.23730290414E+03  0.26883587081E+03  0.79918820369E+02 0.  0.
          5    1    5    5  501    0 -0.79569759145E+02 -0.83918595877E+02  0.11664531259E+03  0.16432253727E+03  0.47000000000E+01 0. -1.
        -13    1    6    6    0    0 -0.39248862174E+02 -0.23251350946E+02  0.53086971612E+02  0.69995178818E+02  0.00000000000E+00 0.  1.
         14    1    6    6    0    0 -0.54479433055E+02  0.51323506971E+02  0.18421593253E+03  0.19884069199E+03  0.00000000000E+00 0. -1.
         -5    1    3    3    0  503  0.12152699942E+03 -0.24920113849E+02  0.34349341431E+03  0.36523915362E+03  0.47000000000E+01 0.  1.
         11    1    4    4    0    0 -0.10681335353E+02  0.29105363553E+02  0.39667506618E+02  0.50346044471E+02  0.00000000000E+00 0. -1.
        -12    1    4    4    0    0  0.62452390305E+02  0.51661190148E+02  0.35116255881E+03  0.36039467578E+03  0.00000000000E+00 0.  1.
</event>
<event>
12    1  0.8226261E-002  0.1793711E+03  0.7818608E-02  0.1168648E+00
         21   -1    0    0  503  502  0.00000000000E+00  0.00000000000E+00  0.47448639787E+03  0.47448639787E+03  0.00000000000E+00 0. -1.
         21   -1    0    0  501  503 -0.00000000000E+00 -0.00000000000E+00 -0.11262090377E+03  0.11262090377E+03  0.00000000000E+00 0. -1.
          6    2    1    2  501    0  0.13306923621E+02  0.44386412461E+02 -0.52820705981E+01  0.17848605791E+03  0.17228506834E+03 0.  0.
         24    2    3    3    0    0  0.18416637650E+02  0.28108506522E+01  0.59610666329E+02  0.10110522164E+03  0.79509501810E+02 0.  0.
         -6    2    1    2    0  502 -0.13306923621E+02 -0.44386412461E+02  0.36714756470E+03  0.40862124373E+03  0.17328230935E+03 0.  0.
        -24    2    5    5    0    0 -0.31242655159E+02 -0.77452216634E+02  0.15033952199E+03  0.18852386698E+03  0.77229056602E+02 0.  0.
          5    1    3    3  501    0 -0.51097140288E+01  0.41575561809E+02 -0.64892736927E+02  0.77380836278E+02  0.47000000000E+01 0. -1.
        -13    1    4    4    0    0 -0.19316704035E+02 -0.22297635864E+01 -0.99245641091E+01  0.21831259084E+02  0.00000000000E+00 0.  1.
         14    1    4    4    0    0  0.37733341685E+02  0.50406142386E+01  0.69535230438E+02  0.79273962552E+02  0.00000000000E+00 0. -1.
         -5    1    5    5    0  502  0.17935731538E+02  0.33065804173E+02  0.21680804271E+03  0.22009737675E+03  0.47000000000E+01 0.  1.
         11    1    6    6    0    0 -0.25582393427E+02 -0.65415359540E+02  0.15818698852E+03  0.17308018793E+03  0.00000000000E+00 0. -1.
        -12    1    6    6    0    0 -0.56602617325E+01 -0.12036857095E+02 -0.78474665262E+01  0.15443679046E+02  0.00000000000E+00 0.  1.
</event>
<event>
12    1  0.8226261E-002  0.1867006E+03  0.7818608E-02  0.1167055E+00
         21   -1    0    0  501  502  0.00000000000E+00  0.00000000000E+00  0.28120461764E+03  0.28120461764E+03  0.00000000000E+00 0. -1.
         21   -1    0    0  502  503 -0.00000000000E+00 -0.00000000000E+00 -0.11023376190E+03  0.11023376190E+03  0.00000000000E+00 0. -1.
         -6    2    1    2    0  503 -0.18633980481E+02 -0.54543678742E+02  0.63096459964E+02  0.17581368746E+03  0.15364586333E+03 0.  0.
        -24    2    3    3    0    0  0.43985338234E+02 -0.11353931586E+02  0.22872754716E+02  0.89636139337E+02  0.73809571364E+02 0.  0.
          6    2    1    2  501    0  0.18633980481E+02  0.54543678742E+02  0.10787439578E+03  0.21562469208E+03  0.17758064211E+03 0.  0.
         24    2    5    5    0    0  0.71674986711E+02  0.70502704872E+02  0.56632713086E+02  0.14002152481E+03  0.79314740769E+02 0.  0.
          5    1    5    5  501    0 -0.53041006230E+02 -0.15959026130E+02  0.51241682696E+02  0.75603167278E+02  0.47000000000E+01 0. -1.
        -13    1    6    6    0    0  0.13548577574E+02  0.62108635653E+02  0.85938958577E+01  0.64147498962E+02  0.00000000000E+00 0.  1.
         14    1    6    6    0    0  0.58126409136E+02  0.83940692190E+01  0.48038817228E+02  0.75874025845E+02  0.00000000000E+00 0. -1.
         -5    1    3    3    0  503 -0.62619318715E+02 -0.43189747156E+02  0.40223705248E+02  0.86177548118E+02  0.47000000000E+01 0.  1.
         13    1    4    4    0    0 -0.32916944603E+01 -0.11508736830E+02 -0.21621599353E+02  0.24713960314E+02  0.00000000000E+00 0. -1.
        -14    1    4    4    0    0  0.47277032695E+02  0.15480524365E+00  0.44494354069E+02  0.64922179023E+02  0.00000000000E+00 0.  1.
</event>
<event>
12    1  0.8226261E-002  0.3182312E+03  0.7818608E-02  0.1076586E+00
         21   -1    0    0  501  502  0.00000000000E+00  0.00000000000E+00  0.12650677089E+04  0.12650677089E+04  0.00000000000E+00 0.  1.
         21   -1    0    0  502  503 -0.00000000000E+00 -0.00000000000E+00 -0.14147507464E+03  0.14147507464E+03  0.00000000000E+00 0.  1.
         -6    2    1    2    0  503  0.23947402418E+03  0.11828976272E+03  0.97942906425E+02  0.33296232730E+03  0.17300526657E+03 0.  0.
        -24    2    3    3    0    0  0.21636220298E+03  0.84151027440E+02  0.13154859886E+03  0.27956717687E+03  0.83419267672E+02 0.  0.
          6    2    1    2  501    0 -0.23947402418E+03 -0.11828976272E+03  0.10256497278E+04  0.10735804563E+04  0.17110626991E+03 0.  0.
         24    2    5    5    0    0 -0.11877307937E+03 -0.10699789844E+03  0.43549628549E+03  0.47108614109E+03  0.81911800146E+02 0.  0.
          5    1    5    5  501    0 -0.12070094482E+03 -0.11291864281E+02  0.59015344235E+03  0.60249431516E+03  0.47000000000E+01 0. -1.
        -13    1    6    6    0    0 -0.81749833042E+02 -0.19377465341E+02  0.22165099385E+03  0.23703941537E+03  0.00000000000E+00 0.  1.
         14    1    6    6    0    0 -0.37023246326E+02 -0.87620433098E+02  0.21384529164E+03  0.23404672572E+03  0.00000000000E+00 0. -1.
         -5    1    3    3    0  503  0.23111821199E+02  0.34138735279E+02 -0.33605692438E+02  0.53395150434E+02  0.47000000000E+01 0.  1.
         11    1    4    4    0    0  0.45716298314E+02 -0.16417040530E+02  0.24092712485E+02  0.54221379050E+02  0.00000000000E+00 0. -1.
        -12    1    4    4    0    0  0.17064590467E+03  0.10056806797E+03  0.10745588638E+03  0.22534579782E+03  0.00000000000E+00 0.  1.
</event>
<event>
12    1  0.8226261E-002  0.2131564E+03  0.7818608E-02  0.1139099E+00
         21   -1    0    0  501  502  0.00000000000E+00  0.00000000000E+00  0.11233649751E+04  0.11233649751E+04  0.00000000000E+00 0.  1.
         21   -1    0    0  502  503 -0.00000000000E+00 -0.00000000000E+00 -0.15718663504E+03  0.15718663504E+03  0.00000000000E+00 0.  1.
         -6    2    1    2    0  503 -0.55429653338E+02  0.11110208995E+03 -0.68730172367E+02  0.22391957382E+03  0.17320513296E+03 0.  0.
        -24    2    3    3    0    0 -0.37031620346E+02  0.14630617579E+03 -0.69356496871E+02  0.18391585449E+03  0.78980250019E+02 0.  0.
          6    2    1    2  501    0  0.55429653338E+02 -0.11110208995E+03  0.10349085124E+04  0.10566320363E+04  0.17326139275E+03 0.  0.
         24    2    5    5    0    0  0.42932800883E+02 -0.12646079971E+03  0.10166596207E+04  0.10292975647E+04  0.89560779295E+02 0.  0.
          5    1    5    5  501    0  0.12496852455E+02  0.15358709763E+02  0.18248891747E+02  0.27334471585E+02  0.47000000000E+01 0. -1.
        -13    1    6    6    0    0 -0.20392950875E+02 -0.47350671446E+02  0.51031304784E+03  0.51291067968E+03  0.00000000000E+00 0.  1.
         14    1    6    6    0    0  0.63325751758E+02 -0.79110128266E+02  0.50634657285E+03  0.51638688506E+03  0.00000000000E+00 0. -1.
         -5    1    3    3    0  503 -0.18398032993E+02 -0.35204085843E+02  0.62632450387E+00  0.40003719332E+02  0.47000000000E+01 0.  1.
         11    1    4    4    0    0 -0.77362843615E+01  0.12276277130E+03 -0.24546993096E+02  0.12543166659E+03  0.00000000000E+00 0. -1.
        -12    1    4    4    0    0 -0.29295335984E+02  0.23543404491E+02 -0.44809503775E+02  0.58484187897E+02  0.00000000000E+00 0.  1.
</event>
<event>
12    1  0.8226261E-002  0.2037504E+03  0.7818608E-02  0.1147438E+00
         21   -1    0    0  503  502  0.00000000000E+00  0.00000000000E+00  0.15538618588E+03  0.15538618588E+03  0.00000000000E+00 0.  1.
         21   -1    0    0  501  503 -0.00000000000E+00 -0.00000000000E+00 -0.26699220157E+03  0.26699220157E+03  0.00000000000E+00 0.  1.
          6    2    1    2  501    0 -0.10076183576E+03  0.19141433925E+02 -0.85244620278E+02  0.22086389621E+03  0.17605360924E+03 0.  0.
         24    2    3    3    0    0 -0.99203318189E+02  0.35888774559E+02  0.17738274475E+01  0.13211028986E+03  0.79502702749E+02 0.  0.
         -6    2    1    2    0  502  0.10076183576E+03 -0.19141433925E+02 -0.26361395418E+02  0.20151449124E+03  0.17144627431E+03 0.  0.
        -24    2    5    5    0    0  0.95846897108E+02 -0.48260585493E+02 -0.66438146918E+02  0.15151131513E+03  0.83820877171E+02 0.  0.
          5    1    3    3  501    0 -0.15585175680E+01 -0.16747340634E+02 -0.87018447726E+02  0.88753606349E+02  0.47000000000E+01 0. -1.
        -11    1    4    4    0    0 -0.35947199552E+02 -0.62523454681E+01 -0.32378788669E+02  0.48781952966E+02  0.00000000000E+00 0.  1.
         12    1    4    4    0    0 -0.63256118637E+02  0.42141120027E+02  0.34152616117E+02  0.83328336895E+02  0.00000000000E+00 0. -1.
         -5    1    5    5    0  502  0.49149386491E+01  0.29119151568E+02  0.40076751501E+02  0.50003176107E+02  0.47000000000E+01 0.  1.
         13    1    6    6    0    0  0.25254987116E+02 -0.50675144142E+02 -0.32071059434E+01  0.56710405893E+02  0.00000000000E+00 0. -1.
        -14    1    6    6    0    0  0.70591909992E+02  0.24145586488E+01 -0.63231040975E+02  0.94800909239E+02  0.00000000000E+00 0.  1.
</event>
<event>
12    1  0.8226261E-002  0.1849604E+03  0.7818608E-02  0.1163479E+00
         21   -1    0    0  501  502  0.00000000000E+00  0.00000000000E+00  0.23985359819E+03  0.23985359819E+03  0.00000000000E+00 0. -1.
         21   -1    0    0  502  503 -0.00000000000E+00 -0.00000000000E+00 -0.16009285699E+03  0.16009285699E+03  0.00000000000E+00 0. -1.
         -6    2    1    2    0  503  0.57538008982E+02 -0.35827906739E+02 -0.28711815777E+02  0.18552478985E+03  0.17029626510E+03 0.  0.
        -24    2    3    3    0    0  0.53107469777E+02 -0.66790251621E+02 -0.65788514482E+02  0.13679011980E+03  0.84273763294E+02 0.  0.
          6    2    1    2  501    0 -0.57538008982E+02  0.35827906739E+02  0.10847255698E+03  0.21442166532E+03  0.17209326995E+03 0.  0.
         24    2    5    5    0    0 -0.65297776209E+02  0.86910209773E+02  0.86482209301E+02  0.15807203301E+03  0.75434812609E+02 0.  0.
          5    1    5    5  501    0  0.77597672267E+01 -0.51082303034E+02  0.21990347674E+02  0.56349632310E+02  0.47000000000E+01 0. -1.
        -13    1    6    6    0    0 -0.60895419980E+01  0.30679745272E+02 -0.88927150465E+01  0.32517836222E+02  0.00000000000E+00 0.  1.
         14    1    6    6    0    0 -0.59208234211E+02  0.56230464502E+02  0.95374924348E+02  0.12555419679E+03  0.00000000000E+00 0. -1.
         -5    1    3    3    0  503  0.44305392057E+01  0.30962344882E+02  0.37076698705E+02  0.48734670052E+02  0.47000000000E+01 0.  1.
         11    1    4    4    0    0  0.31289812257E+02 -0.69761310483E+02 -0.10369589076E+02  0.77157120015E+02  0.00000000000E+00 0. -1.
        -12    1    4    4    0    0  0.21817657520E+02  0.29710588615E+01 -0.55418925405E+02  0.59632999786E+02  0.00000000000E+00 0.  1.
</event>
<event>
12    1  0.8226261E-002  0.1841949E+03  0.7818608E-02  0.1167340E+00
         21   -1    0    0  503  502  0.00000000000E+00  0.00000000000E+00  0.14316604503E+04  0.14316604503E+04  0.00000000000E+00 0. -1.
         21   -1    0    0  501  503 -0.00000000000E+00 -0.00000000000E+00 -0.27161065319E+02  0.27161065319E+02  0.00000000000E+00 0. -1.
          6    2    1    2  501    0  0.30996882863E+02  0.49547106893E+02  0.40385872644E+03  0.44388018069E+03  0.17467690556E+03 0.  0.
         24    2    3    3    0    0 -0.45275951341E+02  0.15245417971E+00  0.22880516016E+03  0.24659050022E+03  0.80032108976E+02 0.  0.
         -6    2    1    2    0  502 -0.30996882863E+02 -0.49547106893E+02  0.10006406585E+04  0.10149413349E+04  0.15940032397E+03 0.  0.
        -24    2    5    5    0    0 -0.10443109087E+02 -0.62469496673E+02  0.97555573781E+03  0.97971649963E+03  0.64217797681E+02 0.  0.
          5    1    3    3  501    0  0.76272834203E+02  0.49394652713E+02  0.17505356628E+03  0.19728968047E+03  0.47000000000E+01 0. -1.
        -13    1    4    4    0    0 -0.53809923714E+02 -0.20615564636E+01  0.23125348272E+03  0.23744037394E+03  0.00000000000E+00 0.  1.
         14    1    4    4    0    0  0.85339723735E+01  0.22140106434E+01 -0.24483225555E+01  0.91501262798E+01  0.00000000000E+00 0. -1.
         -5    1    5    5    0  502 -0.20553773776E+02  0.12922389781E+02  0.25084920744E+02  0.35224835312E+02  0.47000000000E+01 0.  1.
         11    1    6    6    0    0  0.26450567265E+02 -0.17126862061E+02  0.30911786262E+03  0.31071983345E+03  0.00000000000E+00 0. -1.
        -12    1    6    6    0    0 -0.36893676352E+02 -0.45342634613E+02  0.66643787519E+03  0.66899666617E+03  0.00000000000E+00 0.  1.
</event>
<event>
12    1  0.8226261E-002  0.1914961E+03  0.7818608E-02  0.1157236E+00
         21   -1    0    0  501  502  0.00000000000E+00  0.00000000000E+00  0.62002503812E+02  0.62002503812E+02  0.00000000000E+00 0. -1.
         21   -1    0    0  502  503 -0.00000000000E+00 -0.00000000000E+00 -0.59223236200E+03  0.59223236200E+03  0.00000000000E+00 0.  1.
         -6    2    1    2    0  503 -0.67733204869E+02  0.38976004834E+02 -0.24386929095E+03  0.30974518588E+03  0.17424962874E+03 0.  0.
        -24    2    3    3    0    0  0.10360490635E+01  0.52044744944E+02 -0.21253090440E+03  0.23290647997E+03  0.79789186065E+02 0.  0.
          6    2    1    2  501    0  0.67733204869E+02 -0.38976004834E+02 -0.28636056724E+03  0.34448967993E+03  0.17482519588E+03 0.  0.
         24    2    5    5    0    0 -0.24374498324E+02 -0.27387862689E+02 -0.82170288187E+02  0.12013755918E+03  0.79604432499E+02 0.  0.
          5    1    5    5  501    0  0.92107703193E+02 -0.11588142145E+02 -0.20419027905E+03  0.22435212075E+03  0.47000000000E+01 0. -1.
        -11    1    6    6    0    0  0.11094829066E+02 -0.44026381856E+02 -0.59598192081E+02  0.74922373365E+02  0.00000000000E+00 0.  1.
         12    1    6    6    0    0 -0.35469327390E+02  0.16638519167E+02 -0.22572096106E+02  0.45215185814E+02  0.00000000000E+00 0. -1.
         -5    1    3    3    0  503 -0.68769253932E+02 -0.13068740110E+02 -0.31338386545E+02  0.76838705909E+02  0.47000000000E+01 0.  1.
         11    1    4    4    0    0  0.14060687006E+02  0.48104074825E+02 -0.53548082630E+02  0.73342362160E+02  0.00000000000E+00 0. -1.
        -12    1    4    4    0    0 -0.13024637942E+02  0.39406701190E+01 -0.15898282177E+03  0.15956411781E+03  0.00000000000E+00 0.  1.
</event>
<event>
12    1  0.8226261E-002  0.1759695E+03  0.7818608E-02  0.1172010E+00
         21   -1    0    0  501  502  0.00000000000E+00  0.00000000000E+00  0.96507538814E+02  0.96507538814E+02  0.00000000000E+00 0. -1.
         21   -1    0    0  502  503 -0.00000000000E+00 -0.00000000000E+00 -0.39700658147E+03  0.39700658147E+03  0.00000000000E+00 0. -1.
         -6    2    1    2    0  503 -0.34467915754E+02  0.12641258449E+02 -0.25993730546E+03  0.31389913552E+03  0.17209714083E+03 0.  0.
        -24    2    3    3    0    0 -0.61782488663E+02  0.55916486372E+02 -0.12697202811E+03  0.17134849111E+03  0.79339020209E+02 0.  0.
          6    2    1    2  501    0  0.34467915754E+02 -0.12641258449E+02 -0.40561737202E+02  0.17961498476E+03  0.17108024315E+03 0.  0.
         24    2    5    5    0    0 -0.13315109386E+02 -0.12070388223E+02  0.39769169247E+02  0.86027122753E+02  0.74135636618E+02 0.  0.
          5    1    5    5  501    0  0.47783025141E+02 -0.57087022601E+00 -0.80330906450E+02  0.93587862009E+02  0.47000000000E+01 0. -1.
        -13    1    6    6    0    0 -0.43798232998E+02 -0.46301493857E+01  0.29509279051E+02  0.53014347560E+02  0.00000000000E+00 0.  1.
         14    1    6    6    0    0  0.30483123612E+02 -0.74402388376E+01  0.10259890197E+02  0.33012775193E+02  0.00000000000E+00 0. -1.
         -5    1    3    3    0  503  0.27314572909E+02 -0.43275227922E+02 -0.13296527734E+03  0.14255064442E+03  0.47000000000E+01 0.  1.
         11    1    4    4    0    0 -0.43129125553E+01  0.34779382891E+02 -0.57167500235E+01  0.35508983650E+02  0.00000000000E+00 0. -1.
        -12    1    4    4    0    0 -0.57469576108E+02  0.21137103480E+02 -0.12125527809E+03  0.13583950746E+03  0.00000000000E+00 0.  1.
</event>
<event>
12    1  0.8226261E-002  0.2587036E+03  0.7818608E-02  0.1107981E+00
         21   -1    0    0  503  502  0.00000000000E+00  0.00000000000E+00  0.15531577293E+03  0.15531577293E+03  0.00000000000E+00 0.  1.
         21   -1    0    0  501  503 -0.00000000000E+00 -0.00000000000E+00 -0.53476573879E+03  0.53476573879E+03  0.00000000000E+00 0.  1.
          6    2    1    2  501    0 -0.17499063090E+03 -0.80237445587E+02 -0.34212106168E+03  0.42869865698E+03  0.17226708645E+03 0.  0.
         24    2    3    3    0    0 -0.67887370908E+02 -0.67136984972E+02 -0.88005208005E+02  0.15258330525E+03  0.80129136564E+02 0.  0.
         -6    2    1    2    0  502  0.17499063090E+03  0.80237445587E+02 -0.37328904185E+02  0.26138285474E+03  0.17282297615E+03 0.  0.
        -24    2    5    5    0    0  0.35530653789E+02  0.36783687993E+02 -0.59772532419E+02  0.11352102493E+03  0.81846199721E+02 0.  0.
          5    1    3    3  501    0 -0.10710325999E+03 -0.13100460615E+02 -0.25411585368E+03  0.27611535173E+03  0.47000000000E+01 0. -1.
        -13    1    4    4    0    0 -0.64700416209E+02 -0.84400245163E+01 -0.38717718040E+02  0.75871203771E+02  0.00000000000E+00 0.  1.
         14    1    4    4    0    0 -0.31869546988E+01 -0.58696960456E+02 -0.49287489965E+02  0.76712101484E+02  0.00000000000E+00 0. -1.
         -5    1    5    5    0  502  0.13945997711E+03  0.43453757595E+02  0.22443628234E+02  0.14786182981E+03  0.47000000000E+01 0.  1.
         13    1    6    6    0    0 -0.14762994133E+02 -0.17121594637E+02 -0.17017569241E+02  0.28296513240E+02  0.00000000000E+00 0. -1.
        -14    1    6    6    0    0  0.50293647922E+02  0.53905282629E+02 -0.42754963178E+02  0.85224511691E+02  0.00000000000E+00 0.  1.
</event>
<event>
12    1  0.8226261E-002  0.2403715E+03  0.7818608E-02  0.1119645E+00
         21   -1    0    0  501  502  0.00000000000E+00  0.00000000000E+00  0.16384657723E+03  0.16384657723E+03  0.00000000000E+00 0. -1.
         21   -1    0    0  502  503 -0.00000000000E+00 -0.00000000000E+00 -0.36627422566E+03  0.36627422566E+03  0.00000000000E+00 0.  1.
         -6    2    1    2    0  503 -0.14868308125E+03  0.81242766392E+02 -0.15410006258E+03  0.28552631084E+03  0.17050336991E+03 0.  0.
        -24    2    3    3    0    0 -0.17170971185E+03  0.81785442633E+02 -0.15907127131E+03  0.26149876143E+03  0.83095421679E+02 0.  0.
          6    2    1    2  501    0  0.14868308125E+03 -0.81242766392E+02 -0.48327585854E+02  0.24459449206E+03  0.16965808041E+03 0.  0.
         24    2    5    5    0    0  0.82086962176E+02 -0.66947292608E+01 -0.78279139376E+02  0.14013570366E+03  0.82020137886E+02 0.  0.
          5    1    5    5  501    0  0.66596119073E+02 -0.74548037131E+02  0.29951553522E+02  0.10445878840E+03  0.47000000000E+01 0. -1.
        -13    1    6    6    0    0  0.30019339498E+02 -0.11960892729E+02 -0.81531158835E+02  0.87701502608E+02  0.00000000000E+00 0.  1.
         14    1    6    6    0    0  0.52067622678E+02  0.52661634681E+01  0.32520194591E+01  0.52434201049E+02  0.00000000000E+00 0. -1.
         -5    1    3    3    0  503  0.23026630598E+02 -0.54267624136E+00  0.49712087294E+01  0.24027549406E+02  0.47000000000E+01 0.  1.
         11    1    4    4    0    0 -0.10509133242E+03  0.51192906748E+02 -0.43680744656E+02  0.12479146327E+03  0.00000000000E+00 0. -1.
        -12    1    4    4    0    0 -0.66618379430E+02  0.30592535885E+02 -0.11539052665E+03  0.13670729816E+03  0.00000000000E+00 0.  1.
</event>
<event>
12    1  0.8226261E-002  0.1998829E+03  0.7818608E-02  0.1150978E+00
         21   -1    0    0  503  502  0.00000000000E+00  0.00000000000E+00  0.12427760491E+04  0.12427760491E+04  0.00000000000E+00 0. -1.
         21   -1    0    0  501  503 -0.00000000000E+00 -0.00000000000E+00 -0.26720379411E+03  0.26720379411E+03  0.00000000000E+00 0. -1.
          6    2    1    2  501    0 -0.69606114073E+02  0.57134882197E+02 -0.22083208761E+03  0.29785900169E+03  0.17844822243E+03 0.  0.
         24    2    3    3    0    0 -0.10027655123E+03  0.88790195760E+02 -0.17072373941E+03  0.23095854466E+03  0.79095945301E+02 0.  0.
         -6    2    1    2    0  502  0.69606114073E+02 -0.57134882197E+02  0.11964043426E+04  0.12121208415E+04  0.17246500392E+03 0.  0.
        -24    2    5    5    0    0  0.86567595261E+02 -0.57394516077E+02  0.11822620072E+04  0.11895408746E+04  0.80473347911E+02 0.  0.
          5    1    3    3  501    0  0.30670437153E+02 -0.31655313563E+02 -0.50108348204E+02  0.66900457036E+02  0.47000000000E+01 0. -1.
        -11    1    4    4    0    0 -0.97078523690E+02  0.37879450363E+02 -0.12155953322E+03  0.16011187538E+03  0.00000000000E+00 0.  1.
         12    1    4    4    0    0 -0.31980275353E+01  0.50910745397E+02 -0.49164206185E+02  0.70846669271E+02  0.00000000000E+00 0. -1.
         -5    1    5    5    0  502 -0.16961481189E+02  0.25963388049E+00  0.14142335383E+02  0.22579966872E+02  0.47000000000E+01 0.  1.
         13    1    6    6    0    0  0.11502576761E+02 -0.46754663323E+02  0.66643071522E+03  0.66816779779E+03  0.00000000000E+00 0. -1.
        -14    1    6    6    0    0  0.75065018501E+02 -0.10639852755E+02  0.51583129199E+03  0.52137307686E+03  0.00000000000E+00 0.  1.
</event>
<event>
12    1  0.8226261E-002  0.2470523E+03  0.7818608E-02  0.1115338E+00
         21   -1    0    0  501  502  0.00000000000E+00  0.00000000000E+00  0.88888238919E+02  0.88888238919E+02  0.00000000000E+00 0.  1.
         21   -1    0    0  502  503 -0.00000000000E+00 -0.00000000000E+00 -0.76892244468E+03  0.76892244468E+03  0.00000000000E+00 0. -1.
         -6    2    1    2    0  503 -0.68039826977E+02 -0.16520828484E+03 -0.48319205069E+03  0.54268719367E+03  0.17062132601E+03 0.  0.
        -24    2    3    3    0    0  0.25415887922E+02 -0.47934478034E+02 -0.21516670232E+03  0.23552796171E+03  0.78949537152E+02 0.  0.
          6    2    1    2  501    0  0.68039826977E+02  0.16520828484E+03 -0.19684215507E+03  0.31512348993E+03  0.16921224677E+03 0.  0.
         24    2    5    5    0    0  0.69449491320E+02  0.18822268091E+03 -0.20293031646E+03  0.29081700337E+03  0.56060740752E+02 0.  0.
          5    1    5    5  501    0 -0.14096643434E+01 -0.23014396067E+02  0.60881613940E+01  0.24306486564E+02  0.47000000000E+01 0. -1.
        -11    1    6    6    0    0  0.61623872205E+02  0.89767730434E+02 -0.11794995489E+03  0.16052395121E+03  0.00000000000E+00 0.  1.
         12    1    6    6    0    0  0.78256191154E+01  0.98454950472E+02 -0.84980361570E+02  0.13029305215E+03  0.00000000000E+00 0. -1.
         -5    1    3    3    0  503 -0.93455714899E+02 -0.11727380680E+03 -0.26802534837E+03  0.30715923196E+03  0.47000000000E+01 0.  1.
         13    1    4    4    0    0 -0.12291649909E+02 -0.26960796911E+02 -0.17185823568E+03  0.17439387145E+03  0.00000000000E+00 0. -1.
        -14    1    4    4    0    0  0.37707537832E+02 -0.20973681123E+02 -0.43308466633E+02  0.61134090255E+02  0.00000000000E+00 0.  1.
</event>
<event>
12    1  0.8226261E-002  0.2085284E+03  0.7818608E-02  0.1143150E+00
         21   -1    0    0  501  502  0.00000000000E+00  0.00000000000E+00  0.81968787220E+02  0.81968787220E+02  0.00000000000E+00 0.  1.
         21   -1    0    0  502  503 -0.00000000000E+00 -0.00000000000E+00 -0.13947968462E+04  0.13947968462E+04  0.00000000000E+00 0. -1.
         -6    2    1    2    0  503 -0.64380439591E+02  0.94234876345E+02 -0.12406335070E+04  0.12580364077E+04  0.17452521714E+03 0.  0.
        -24    2    3    3    0    0 -0.42832642937E+02  0.13393050727E+03 -0.10164811298E+04  0.10293304199E+04  0.80716850405E+02 0.  0.
          6    2    1    2  501    0  0.64380439591E+02 -0.94234876345E+02 -0.72194552006E+02  0.21872922577E+03  0.17206210491E+03 0.  0.
         24    2    5    5    0    0  0.48573756642E+02 -0.35823715372E+02  0.30408855092E+02  0.99518219149E+02  0.73050866232E+02 0.  0.
          5    1    5    5  501    0  0.15806682949E+02 -0.58411160973E+02 -0.10260340710E+03  0.11921100662E+03  0.47000000000E+01 0. -1.
        -13    1    6    6    0    0  0.17500797722E+01 -0.42498966807E+02 -0.13352138929E+01  0.42555936777E+02  0.00000000000E+00 0.  1.
         14    1    6    6    0    0  0.46823676869E+02  0.66752514349E+01  0.31744068985E+02  0.56962282372E+02  0.00000000000E+00 0. -1.
         -5    1    3    3    0  503 -0.21547796654E+02 -0.39695630924E+02 -0.22415237717E+03  0.22870598778E+03  0.47000000000E+01 0.  1.
         11    1    4    4    0    0 -0.40105067839E+01  0.63196070503E+02 -0.69497308472E+03  0.69785200149E+03  0.00000000000E+00 0. -1.
        -12    1    4    4    0    0 -0.38822136153E+02  0.70734436766E+02 -0.32150804512E+03  0.33147841842E+03  0.00000000000E+00 0.  1.
</event>
<event>
12    1  0.8226261E-002  0.2056762E+03  0.7818608E-02  0.1147195E+00
         21   -1    0    0  503  502  0.00000000000E+00  0.00000000000E+00  0.20638077521E+03  0.20638077521E+03  0.00000000000E+00 0.  1.
         21   -1    0    0  501  503 -0.00000000000E+00 -0.00000000000E+00 -0.12702116537E+04  0.12702116537E+04  0.00000000000E+00 0. -1.
          6    2    1    2  501    0  0.14088564530E+02 -0.92252978847E+02 -0.12091048202E+04  0.12247845700E+04  0.17162073574E+03 0.  0.
         24    2    3    3    0    0  0.53014179136E+02 -0.10818541885E+03 -0.77315676574E+03  0.78678703313E+03  0.82145377595E+02 0.  0.
         -6    2    1    2    0  502 -0.14088564530E+02  0.92252978847E+02  0.14527394170E+03  0.25180785892E+03  0.18328551476E+03 0.  0.
        -24    2    5    5    0    0 -0.81804605702E+02  0.44963266455E+02  0.87154429898E+02  0.15070520425E+03  0.80015467833E+02 0.  0.
          5    1    3    3  501    0 -0.38925614606E+02  0.15932440001E+02 -0.43594805445E+03  0.43799753686E+03  0.47000000000E+01 0. -1.
        -13    1    4    4    0    0 -0.15383853443E+02 -0.58589608937E+02 -0.28410123186E+03  0.29048737523E+03  0.00000000000E+00 0.  1.
         14    1    4    4    0    0  0.68398032579E+02 -0.49595809912E+02 -0.48905553387E+03  0.49629965790E+03  0.00000000000E+00 0. -1.
         -5    1    5    5    0  502  0.67716041172E+02  0.47289712392E+02  0.58119511797E+02  0.10110265467E+03  0.47000000000E+01 0.  1.
         11    1    6    6    0    0 -0.48334421120E+02  0.43503577534E+02  0.89693608521E+01  0.65644702432E+02  0.00000000000E+00 0. -1.
        -12    1    6    6    0    0 -0.33470184583E+02  0.14596889210E+01  0.78185069046E+02  0.85060501818E+02  0.00000000000E+00 0.  1.
</event>
<event>
12    1  0.8226261E-002  0.2088607E+03  0.7818608E-02  0.1143436E+00
         21   -1    0    0  503  502  0.00000000000E+00  0.00000000000E+00  0.53818112060E+02  0.53818112060E+02  0.00000000000E+00 0.  1.
         21   -1    0    0  501  503 -0.00000000000E+00 -0.00000000000E+00 -0.21040074966E+04  0.21040074966E+04  0.00000000000E+00 0.  1.
          6    2    1    2  501    0  0.30724796183E+02  0.10854888720E+03 -0.18814805589E+04  0.18930377454E+04  0.17577240343E+03 0.  0.
         24    2    3    3    0    0  0.81627014335E+02  0.84391810890E+02 -0.15709239309E+04  0.15773763614E+04  0.80803722086E+02 0.  0.
         -6    2    1    2    0  502 -0.30724796183E+02 -0.10854888720E+03 -0.16870882561E+03  0.26478786327E+03  0.17006784142E+03 0.  0.
        -24    2    5    5    0    0 -0.42105684323E+01 -0.98444060828E+01 -0.16653402764E+02  0.81516151099E+02  0.79075317570E+02 0.  0.
          5    1    3    3  501    0 -0.50902218152E+02  0.24157076313E+02 -0.31055662806E+03  0.31566138405E+03  0.47000000000E+01 0. -1.
        -11    1    4    4    0    0  0.84243259121E+01  0.66674739168E+02 -0.73305604658E+03  0.73613019062E+03  0.00000000000E+00 0.  1.
         12    1    4    4    0    0  0.73202688423E+02  0.17717071722E+02 -0.83786788431E+03  0.84124617073E+03  0.00000000000E+00 0. -1.
         -5    1    5    5    0  502 -0.26514227751E+02 -0.98704481120E+02 -0.15205542284E+03  0.18327171217E+03  0.47000000000E+01 0.  1.
         11    1    6    6    0    0  0.23632697614E+02 -0.32758729316E+02 -0.20417251081E+02  0.45260389798E+02  0.00000000000E+00 0. -1.
        -12    1    6    6    0    0 -0.27843266047E+02  0.22914323233E+02  0.37638483175E+01  0.36255761301E+02  0.00000000000E+00 0.  1.
</event>
<event>
12    1  0.8226261E-002  0.2276596E+03  0.7818608E-02  0.1128367E+00
         21   -1    0    0  501  502  0.00000000000E+00  0.00000000000E+00  0.39390750390E+03  0.39390750390E+03  0.00000000000E+00 0. -1.
         21   -1    0    0  502  503 -0.00000000000E+00 -0.00000000000E+00 -0.13233837201E+03  0.13233837201E+03  0.00000000000E+00 0.  1.
         -6    2    1    2    0  503  0.19016428160E+02  0.14883336335E+03  0.10818965753E+03  0.25205931031E+03  0.17121886383E+03 0.  0.
        -24    2    3    3    0    0 -0.31066419690E+01  0.14642334957E+03  0.13653954379E+03  0.21571313514E+03  0.80247499209E+02 0.  0.
          6    2    1    2  501    0 -0.19016428160E+02 -0.14883336335E+03  0.15337947436E+03  0.27418656561E+03  0.17070446690E+03 0.  0.
         24    2    5    5    0    0  0.86259504101E+01 -0.17255474484E+03  0.13180021499E+03  0.23158891934E+03  0.80078610759E+02 0.  0.
          5    1    5    5  501    0 -0.27642378570E+02  0.23721381492E+02  0.21579259366E+02  0.42597646269E+02  0.47000000000E+01 0. -1.
        -11    1    6    6    0    0  0.54703019694E+01 -0.25007474008E+02 -0.94673184117E+01  0.27293370584E+02  0.00000000000E+00 0.  1.
         12    1    6    6    0    0  0.31556484407E+01 -0.14754727083E+03  0.14126753341E+03  0.20429554875E+03  0.00000000000E+00 0. -1.
         -5    1    3    3    0  503  0.22123070129E+02  0.24100137751E+01 -0.28349886260E+02  0.36346175167E+02  0.47000000000E+01 0.  1.
         11    1    4    4    0    0  0.25296796204E+02  0.88151717505E+02  0.11566189499E+03  0.14760869605E+03  0.00000000000E+00 0. -1.
        -12    1    4    4    0    0 -0.28403438173E+02  0.58271632067E+02  0.20877648794E+02  0.68104439085E+02  0.00000000000E+00 0.  1.
</event>
<event>
12    1  0.8226261E-002  0.1977716E+03  0.7818608E-02  0.1151764E+00
         21   -1    0    0  501  502  0.00000000000E+00  0.00000000000E+00  0.74076890663E+03  0.74076890663E+03  0.00000000000E+00 0.  1.
         21   -1    0    0  502  503 -0.00000000000E+00 -0.00000000000E+00 -0.20339699738E+03  0.20339699738E+03  0.00000000000E+00 0.  1.
         -6    2    1    2    0  503  0.81342037944E+02 -0.53513715412E+02  0.67522565477E+03  0.70359312601E+03  0.17214342055E+03 0.  0.
        -24    2    3    3    0    0  0.18584171191E+02 -0.74574566206E+02  0.24704421351E+03  0.27029929278E+03  0.78256801027E+02 0.  0.
          6    2    1    2  501    0 -0.81342037944E+02  0.53513715412E+02 -0.13785374552E+03  0.24057277800E+03  0.17143908973E+03 0.  0.
         24    2    5    5    0    0 -0.80227563038E+02 -0.34301113113E+02 -0.45949950991E+02  0.11336788968E+03  0.55927204318E+02 0.  0.
          5    1    5    5  501    0 -0.11144749061E+01  0.87814828525E+02 -0.91903794530E+02  0.12720488832E+03  0.47000000000E+01 0. -1.
        -11    1    6    6    0    0 -0.36128341325E+02  0.13529266512E+02 -0.16748944228E+02  0.42057404009E+02  0.00000000000E+00 0.  1.
         12    1    6    6    0    0 -0.44099221713E+02 -0.47830379625E+02 -0.29201006764E+02  0.71310485672E+02  0.00000000000E+00 0. -1.
         -5    1    3    3    0  503  0.62757866753E+02  0.21060850794E+02  0.42818144126E+03  0.43329383323E+03  0.47000000000E+01 0.  1.
         11    1    4    4    0    0  0.49038128133E+01 -0.46113801812E+02  0.22957387461E+03  0.23421078968E+03  0.00000000000E+00 0. -1.
        -12    1    4    4    0    0  0.13680358378E+02 -0.28460764394E+02  0.17470338901E+02  0.36088503107E+02  0.00000000000E+00 0.  1.
</event>
<event>
12    1  0.8226261E-002  0.1844469E+03  0.7818608E-02  0.1164234E+00
         21   -1    0    0  501  502  0.00000000000E+00  0.00000000000E+00  0.66476533423E+03  0.66476533423E+03  0.00000000000E+00 0. -1.
         21   -1    0    0  502  503 -0.00000000000E+00 -0.00000000000E+00 -0.58002649246E+02  0.58002649246E+02  0.00000000000E+00 0. -1.
         -6    2    1    2    0  503  0.32646080933E+02  0.60132323740E+02  0.17455447262E+03  0.25394869656E+03  0.17128634975E+03 0.  0.
        -24    2    3    3    0    0  0.74728228720E+02  0.21587339612E+02  0.87226175421E+02  0.14952195450E+03  0.93263539503E+02 0.  0.
          6    2    1    2  501    0 -0.32646080933E+02 -0.60132323740E+02  0.43220821236E+03  0.46881928691E+03  0.16824363880E+03 0.  0.
         24    2    5    5    0    0 -0.76887571960E+01 -0.56472773936E+02  0.43233759786E+03  0.44316062262E+03  0.78912912330E+02 0.  0.
          5    1    5    5  501    0 -0.24957323737E+02 -0.36595498034E+01 -0.12938550425E+00  0.25658664297E+02  0.47000000000E+01 0. -1.
        -13    1    6    6    0    0 -0.15724719772E+02  0.54343809421E+01  0.19513748632E+02  0.25643433737E+02  0.00000000000E+00 0.  1.
         14    1    6    6    0    0  0.80359625764E+01 -0.61907154878E+02  0.41282384923E+03  0.41751718888E+03  0.00000000000E+00 0. -1.
         -5    1    3    3    0  503 -0.42082147786E+02  0.38544984128E+02  0.87328297202E+02  0.10442674205E+03  0.47000000000E+01 0.  1.
         13    1    4    4    0    0  0.54713626794E+01  0.45591212335E+02  0.20078862197E+02  0.50116416062E+02  0.00000000000E+00 0. -1.
        -14    1    4    4    0    0  0.69256866040E+02 -0.24003872724E+02  0.67147313224E+02  0.99405538441E+02  0.00000000000E+00 0.  1.
</event>
<event>
12    1  0.8226261E-002  0.2293906E+03  0.7818608E-02  0.1127608E+00
         21   -1    0    0  503  502  0.00000000000E+00  0.00000000000E+00  0.10156541564E+03  0.10156541564E+03  0.00000000000E+00 0.  1.
         21   -1    0    0  501  503 -0.00000000000E+00 -0.00000000000E+00 -0.59829760318E+03  0.59829760318E+03  0.00000000000E+00 0.  1.
          6    2    1    2  501    0  0.11208250089E+03  0.10172228055E+03 -0.11349372690E+03  0.25321802515E+03  0.16831111920E+03 0.  0.
         24    2    3    3    0    0  0.16244971881E+01  0.38532054115E+02 -0.36957532859E+01  0.85076238820E+02  0.75742653993E+02 0.  0.
         -6    2    1    2    0  502 -0.11208250089E+03 -0.10172228055E+03 -0.38323846064E+03  0.44664499367E+03  0.17236624754E+03 0.  0.
        -24    2    5    5    0    0 -0.44320996474E+02 -0.76669371783E+02 -0.34500187063E+03  0.36477072095E+03  0.78669211400E+02 0.  0.
          5    1    3    3  501    0  0.11045800371E+03  0.63190226435E+02 -0.10979797361E+03  0.16814178633E+03  0.47000000000E+01 0. -1.
        -13    1    4    4    0    0  0.13164773471E+02  0.38319204447E+02 -0.33844734366E+02  0.52793358808E+02  0.00000000000E+00 0.  1.
         14    1    4    4    0    0 -0.11540276283E+02  0.21284966839E+00  0.30148981080E+02  0.32282880011E+02  0.00000000000E+00 0. -1.
         -5    1    5    5    0  502 -0.67761504420E+02 -0.25052908766E+02 -0.38236590008E+02  0.81874272726E+02  0.47000000000E+01 0.  1.
         11    1    6    6    0    0 -0.63443334293E+02 -0.67689643802E+02 -0.23293941410E+03  0.25073435183E+03  0.00000000000E+00 0. -1.
        -12    1    6    6    0    0  0.19122337819E+02 -0.89797279814E+01 -0.11206245653E+03  0.11403636912E+03  0.00000000000E+00 0.  1.
</event>
<event>
12    1  0.8226261E-002  0.1997455E+03  0.7818608E-02  0.1149961E+00
         21   -1    0    0  503  502  0.00000000000E+00  0.00000000000E+00  0.70819595940E+02  0.70819595940E+02  0.00000000000E+00 0. -1.
         21   -1    0    0  501  503 -0.00000000000E+00 -0.00000000000E+00 -0.11666401809E+04  0.11666401809E+04  0.00000000000E+00 0. -1.
          6    2    1    2  501    0  0.10054674851E+03 -0.11391510331E+02 -0.99284655885E+03  0.10127335018E+04  0.17217851542E+03 0.  0.
         24    2    3    3    0    0  0.68734390717E+02  0.55336876157E+02 -0.48777558621E+03  0.50225972084E+03  0.80951950883E+02 0.  0.
         -6    2    1    2    0  502 -0.10054674851E+03  0.11391510331E+02 -0.10297402608E+03  0.22472627497E+03  0.17221740177E+03 0.  0.
        -24    2    5    5    0    0 -0.58868299587E+02  0.67005078179E+02 -0.97245976870E+02  0.15483448303E+03  0.81004814167E+02 0.  0.
          5    1    3    3  501    0  0.31812357796E+02 -0.66728386489E+02 -0.50507097265E+03  0.51047378100E+03  0.47000000000E+01 0. -1.
        -13    1    4    4    0    0 -0.13249645922E+02 -0.69942830865E+01 -0.96553368517E+02  0.97708884371E+02  0.00000000000E+00 0.  1.
         14    1    4    4    0    0  0.81984036639E+02  0.62331159244E+02 -0.39122221769E+03  0.40455083647E+03  0.00000000000E+00 0. -1.
         -5    1    5    5    0  502 -0.41678448926E+02 -0.55613567848E+02 -0.57280492054E+01  0.69891791946E+02  0.47000000000E+01 0.  1.
         13    1    6    6    0    0 -0.13497412516E+02 -0.14215127238E+02  0.87260139321E+00  0.19621707882E+02  0.00000000000E+00 0. -1.
        -14    1    6    6    0    0 -0.45370887071E+02  0.81220205417E+02 -0.98118578264E+02  0.13521277514E+03  0.00000000000E+00 0.  1.
</event>
<event>
12    1  0.8226261E-002  0.2246871E+03  0.7818608E-02  0.1130764E+00
         21   -1    0    0  503  502  0.00000000000E+00  0.00000000000E+00  0.19157600704E+03  0.19157600704E+03  0.00000000000E+00 0.  1.
         21   -1    0    0  501  503 -0.00000000000E+00 -0.00000000000E+00 -0.35968072659E+03  0.35968072659E+03  0.00000000000E+00 0. -1.
          6    2    1    2  501    0 -0.94577761949E+02  0.10355179291E+03 -0.22787374463E+03  0.31875592768E+03  0.17323674861E+03 0.  0.
         24    2    3    3    0    0 -0.10486252941E+03  0.17783674050E+02 -0.16590152266E+03  0.21233885691E+03  0.79070005678E+02 0.  0.
         -6    2    1    2    0  502  0.94577761949E+02 -0.10355179291E+03  0.59769025082E+02  0.23250080595E+03  0.17554589582E+03 0.  0.
        -24    2    5    5    0    0  0.89514983508E+02 -0.96434803132E+02 -0.16896472232E+02  0.15519639633E+03  0.80547049177E+02 0.  0.
          5    1    3    3  501    0  0.10284767465E+02  0.85768118858E+02 -0.61972221974E+02  0.10641707077E+03  0.47000000000E+01 0. -1.
        -11    1    4    4    0    0 -0.79480800758E+02  0.42013160735E+02 -0.83167040707E+02  0.12247064964E+03  0.00000000000E+00 0.  1.
         12    1    4    4    0    0 -0.25381728656E+02 -0.24229486685E+02 -0.82734481949E+02  0.89868207271E+02  0.00000000000E+00 0. -1.
         -5    1    5    5    0  502  0.50627784413E+01 -0.71169897761E+01  0.76665497315E+02  0.77304409625E+02  0.47000000000E+01 0.  1.
         13    1    6    6    0    0 -0.40372558058E+01 -0.48991312458E+02 -0.15221313695E+01  0.49180941580E+02  0.00000000000E+00 0. -1.
        -14    1    6    6    0    0  0.93552239314E+02 -0.47443490674E+02 -0.15374340863E+02  0.10601545475E+03  0.00000000000E+00 0.  1.
</event>
<event>
12    1  0.8226261E-002  0.1837457E+03  0.7818608E-02  0.1164875E+00
         21   -1    0    0  503  502  0.00000000000E+00  0.00000000000E+00  0.46477693311E+03  0.46477693311E+03  0.00000000000E+00 0.  1.
         21   -1    0    0  501  503 -0.00000000000E+00 -0.00000000000E+00 -0.28882208065E+03  0.28882208065E+03  0.00000000000E+00 0.  1.
          6    2    1    2  501    0 -0.55206313306E+02  0.24290806982E+02 -0.23898200032E+03  0.29979832682E+03  0.17067179015E+03 0.  0.
         24    2    3    3    0    0  0.34911737897E+02  0.11243238740E+02 -0.96455150214E+02  0.13060170986E+03  0.80049801712E+02 0.  0.
         -6    2    1    2    0  502  0.55206313306E+02 -0.24290806982E+02  0.41493685278E+03  0.45380068694E+03  0.17356466040E+03 0.  0.
        -24    2    5    5    0    0  0.23242655745E+02 -0.82171216994E+02  0.18011215535E+03  0.20979956852E+03  0.65445706493E+02 0.  0.
          5    1    3    3  501    0 -0.90118051204E+02  0.13047568242E+02 -0.14252685011E+03  0.16919661696E+03  0.47000000000E+01 0. -1.
        -11    1    4    4    0    0 -0.23450519260E+02 -0.21354321183E+01 -0.48408176868E+02  0.53831575414E+02  0.00000000000E+00 0.  1.
         12    1    4    4    0    0  0.58362257158E+02  0.13378670858E+02 -0.48046973347E+02  0.76770134442E+02  0.00000000000E+00 0. -1.
         -5    1    5    5    0  502  0.31963657562E+02  0.57880410012E+02  0.23482469743E+03  0.24400111842E+03  0.47000000000E+01 0.  1.
         13    1    6    6    0    0 -0.21251486192E+02 -0.35227430216E+02  0.52194343509E+02  0.66459363519E+02  0.00000000000E+00 0. -1.
        -14    1    6    6    0    0  0.44494141937E+02 -0.46943786778E+02  0.12791781184E+03  0.14334020500E+03  0.00000000000E+00 0.  1.
</event>
<event>
12    1  0.8226261E-002  0.3128062E+03  0.7818608E-02  0.1079240E+00
         21   -1    0    0  501  502  0.00000000000E+00  0.00000000000E+00  0.41548558453E+03  0.41548558453E+03  0.00000000000E+00 0.  1.
         21   -1    0    0  502  503 -0.00000000000E+00 -0.00000000000E+00 -0.36948856112E+03  0.36948856112E+03  0.00000000000E+00 0.  1.
         -6    2    1    2    0  503  0.40041036575E+01 -0.25893047437E+03 -0.21459393650E+03  0.37933928778E+03  0.17546143243E+03 0.  0.
        -24    2    3    3    0    0  0.18122829298E+02 -0.21140198265E+03 -0.23414602667E+03  0.32583536112E+03  0.79530406387E+02 0.  0.
          6    2    1    2  501    0 -0.40041036575E+01  0.25893047437E+03  0.26059095991E+03  0.40563485786E+03  0.17196210664E+03 0.  0.
         24    2    5    5    0    0 -0.34825062884E+02  0.22295373294E+03  0.26039961371E+03  0.35802830301E+03  0.97237620799E+02 0.  0.
          5    1    5    5  501    0  0.30820959226E+02  0.35976741426E+02  0.19134620456E+00  0.47606554849E+02  0.47000000000E+01 0. -1.
        -13    1    6    6    0    0 -0.24666492270E+02  0.71907187545E+02  0.15777614419E+03  0.17513535091E+03  0.00000000000E+00 0.  1.
         14    1    6    6    0    0 -0.10158570614E+02  0.15104654540E+03  0.10262346952E+03  0.18289295210E+03  0.00000000000E+00 0. -1.
         -5    1    3    3    0  503 -0.14118725641E+02 -0.47528491719E+02  0.19552090166E+02  0.53503926666E+02  0.47000000000E+01 0.  1.
         11    1    4    4    0    0  0.80761524153E+01 -0.37219761477E+02 -0.96048474609E+02  0.10332397765E+03  0.00000000000E+00 0. -1.
        -12    1    4    4    0    0  0.10046676883E+02 -0.17418222117E+03 -0.13809755206E+03  0.22251138347E+03  0.00000000000E+00 0.  1.
</event>
<event>
12    1  0.8226261E-002  0.1858789E+03  0.7818608E-02  0.1167017E+00
         21   -1    0    0  503  502  0.00000000000E+00  0.00000000000E+00  0.30443893635E+03  0.30443893635E+03  0.00000000000E+00 0. -1.
         21   -1    0    0  501  503 -0.00000000000E+00 -0.00000000000E+00 -0.30969680613E+03  0.30969680613E+03  0.00000000000E+00 0. -1.
          6    2    1    2  501    0 -0.70949958578E+02  0.31149730049E+01 -0.25396530920E+03  0.30364200926E+03  0.15052073556E+03 0.  0.
         24    2    3    3    0    0 -0.11541456278E+02 -0.39232252749E+02 -0.10989443924E+03  0.14208346493E+03  0.80240565568E+02 0.  0.
         -6    2    1    2    0  502  0.70949958578E+02 -0.31149730049E+01  0.24870743942E+03  0.31049373322E+03  0.17177708888E+03 0.  0.
        -24    2    5    5    0    0  0.58275051315E+02 -0.62322312761E+02  0.20351936959E+03  0.23479555616E+03  0.80179592911E+02 0.  0.
          5    1    3    3  501    0 -0.59408502300E+02  0.42347225754E+02 -0.14407086996E+03  0.16155854433E+03  0.47000000000E+01 0. -1.
        -11    1    4    4    0    0  0.95439746307E+01  0.14133986800E+02  0.11463702798E+01  0.17093016101E+02  0.00000000000E+00 0.  1.
         12    1    4    4    0    0 -0.21085430909E+02 -0.53366239549E+02 -0.11104080952E+03  0.12499044883E+03  0.00000000000E+00 0. -1.
         -5    1    5    5    0  502  0.12674907263E+02  0.59207339756E+02  0.45188069834E+02  0.75698177061E+02  0.47000000000E+01 0.  1.
         11    1    6    6    0    0  0.47212755896E+02 -0.22538656188E+02  0.39216633652E+02  0.65383328892E+02  0.00000000000E+00 0. -1.
        -12    1    6    6    0    0  0.11062295419E+02 -0.39783656573E+02  0.16430273594E+03  0.16941222727E+03  0.00000000000E+00 0.  1.
</event>
<event>
12    1  0.8226261E-002  0.1889834E+03  0.7818608E-02  0.1159571E+00
         21   -1    0    0  501  502  0.00000000000E+00  0.00000000000E+00  0.77599794574E+03  0.77599794574E+03  0.00000000000E+00 0. -1.
         21   -1    0    0  502  503 -0.00000000000E+00 -0.00000000000E+00 -0.90792828465E+02  0.90792828465E+02  0.00000000000E+00 0. -1.
         -6    2    1    2    0  503  0.11726423471E+02  0.74482406081E+02  0.64800330491E+03  0.67499852056E+03  0.17329045491E+03 0.  0.
        -24    2    3    3    0    0 -0.38260416426E+02  0.85965030268E+02  0.31600698592E+03  0.33903099141E+03  0.78916107940E+02 0.  0.
          6    2    1    2  501    0 -0.11726423471E+02 -0.74482406081E+02  0.37201812366E+02  0.19179225364E+03  0.17238084549E+03 0.  0.
         24    2    5    5    0    0 -0.24055708124E+01  0.25963799298E+02  0.36040163794E+00  0.84294821053E+02  0.80159723815E+02 0.  0.
          5    1    5    5  501    0 -0.93208526586E+01 -0.10044620538E+03  0.36841410728E+02  0.10749743259E+03  0.47000000000E+01 0. -1.
        -11    1    6    6    0    0 -0.35744882987E+02 -0.31473255100E+01  0.13161195951E+02  0.38220667138E+02  0.00000000000E+00 0.  1.
         12    1    6    6    0    0  0.33339312175E+02  0.29111124808E+02 -0.12800794313E+02  0.46074153914E+02  0.00000000000E+00 0. -1.
         -5    1    3    3    0  503  0.49986839897E+02 -0.11482624187E+02  0.33199631899E+03  0.33596752915E+03  0.47000000000E+01 0.  1.
         13    1    4    4    0    0 -0.43253431173E+02  0.54372064259E+02  0.28879990823E+03  0.29703967357E+03  0.00000000000E+00 0. -1.
        -14    1    4    4    0    0  0.49930147468E+01  0.31592966009E+02  0.27207077683E+02  0.41991317835E+02  0.00000000000E+00 0.  1.
</event>
<event>
12    1  0.8226261E-002  0.2622049E+03  0.7818608E-02  0.1105890E+00
         21   -1    0    0  503  502  0.00000000000E+00  0.00000000000E+00  0.11300383472E+04  0.11300383472E+04  0.00000000000E+00 0. -1.
         21   -1    0    0  501  503 -0.00000000000E+00 -0.00000000000E+00 -0.64034978449E+02  0.64034978449E+02  0.00000000000E+00 0. -1.
          6    2    1    2  501    0  0.16837544683E+02  0.19695553364E+03  0.39716130857E+03  0.47567156587E+03  0.17161395166E+03 0.  0.
         24    2    3    3    0    0  0.68039626626E+02  0.92217195614E+02  0.17026668569E+03  0.22053428412E+03  0.80692157331E+02 0.  0.
         -6    2    1    2    0  502 -0.16837544683E+02 -0.19695553364E+03  0.66884206017E+03  0.71840175978E+03  0.17226840061E+03 0.  0.
        -24    2    5    5    0    0 -0.52437795024E+01 -0.11237652215E+03  0.57620623234E+03  0.59234022253E+03  0.78723167368E+02 0.  0.
          5    1    3    3  501    0 -0.51202081943E+02  0.10473833803E+03  0.22689462288E+03  0.25513728175E+03  0.47000000000E+01 0. -1.
        -11    1    4    4    0    0  0.20632665613E+02  0.81022146975E+01 -0.28128989498E+01  0.22344242520E+02  0.00000000000E+00 0.  1.
         12    1    4    4    0    0  0.47406961014E+02  0.84114980917E+02  0.17307958464E+03  0.19819004160E+03  0.00000000000E+00 0. -1.
         -5    1    5    5    0  502 -0.11593765181E+02 -0.84579011491E+02  0.92635827835E+02  0.12606153725E+03  0.47000000000E+01 0.  1.
         13    1    6    6    0    0 -0.28257969182E+02 -0.60156839425E+02  0.43484644612E+03  0.43989633990E+03  0.00000000000E+00 0. -1.
        -14    1    6    6    0    0  0.23014189679E+02 -0.52219682727E+02  0.14135978622E+03  0.15244388262E+03  0.00000000000E+00 0.  1.
</event>
<event>
12    1  0.8226261E-002  0.1956928E+03  0.7818608E-02  0.1157458E+00
         21   -1    0    0  503  502  0.00000000000E+00  0.00000000000E+00  0.13450454574E+04  0.13450454574E+04  0.00000000000E+00 0. -1.
         21   -1    0    0  501  503 -0.00000000000E+00 -0.00000000000E+00 -0.27410145603E+02  0.27410145603E+02  0.00000000000E+00 0. -1.
          6    2    1    2  501    0 -0.46800098260E+02 -0.91406958707E+01  0.53057321125E+03  0.56551180789E+03  0.18979428561E+03 0.  0.
         24    2    3    3    0    0 -0.97675037925E+01  0.22997686313E+02  0.50090020935E+03  0.50800645419E+03  0.80902657974E+02 0.  0.
         -6    2    1    2    0  502  0.46800098260E+02  0.91406958707E+01  0.78706210051E+03  0.80694379507E+03  0.17151599584E+03 0.  0.
        -24    2    5    5    0    0  0.13848983710E+01  0.11669476353E+02  0.72706526206E+03  0.73150742629E+03  0.79631179786E+02 0.  0.
          5    1    3    3  501    0 -0.37032594467E+02 -0.32138382184E+02  0.29673001897E+02  0.57505353698E+02  0.47000000000E+01 0. -1.
        -11    1    4    4    0    0  0.16614295743E+02  0.44247721933E+02  0.21670229139E+03  0.22179670605E+03  0.00000000000E+00 0.  1.
         12    1    4    4    0    0 -0.26381799536E+02 -0.21250035620E+02  0.28419791796E+03  0.28620974815E+03  0.00000000000E+00 0. -1.
         -5    1    5    5    0  502  0.45415199889E+02 -0.25287804824E+01  0.59996838446E+02  0.75436368783E+02  0.47000000000E+01 0.  1.
         13    1    6    6    0    0  0.25502065870E+02  0.10395279035E+02  0.65348612765E+03  0.65406615584E+03  0.00000000000E+00 0. -1.
        -14    1    6    6    0    0 -0.24117167499E+02  0.12741973182E+01  0.73579134414E+02  0.77441270445E+02  0.00000000000E+00 0.  1.
</event>
<event>
12    1  0.8226261E-002  0.1755731E+03  0.7818608E-02  0.1172573E+00
         21   -1    0    0  501  502  0.00000000000E+00  0.00000000000E+00  0.54906703065E+03  0.54906703065E+03  0.00000000000E+00 0. -1.
         21   -1    0    0  502  503 -0.00000000000E+00 -0.00000000000E+00 -0.98379760956E+02  0.98379760956E+02  0.00000000000E+00 0. -1.
         -6    2    1    2    0  503 -0.29342460917E+02 -0.13316264745E+02  0.12512875912E+02  0.17601845387E+03  0.17259090683E+03 0.  0.
        -24    2    3    3    0    0 -0.29547520084E+02  0.47945780807E+02 -0.27608426158E+02  0.10263664989E+03  0.81241632593E+02 0.  0.
          6    2    1    2  501    0  0.29342460917E+02  0.13316264745E+02  0.43817439378E+03  0.47142833774E+03  0.17090809032E+03 0.  0.
         24    2    5    5    0    0  0.61363699628E+02  0.46817958117E+02  0.19405231223E+03  0.22290187257E+03  0.77919959443E+02 0.  0.
          5    1    5    5  501    0 -0.32021238711E+02 -0.33501693371E+02  0.24412208156E+03  0.24852646517E+03  0.47000000000E+01 0. -1.
        -11    1    6    6    0    0  0.13180909654E+02  0.56410350438E+02  0.80497125672E+02  0.99174851940E+02  0.00000000000E+00 0.  1.
         12    1    6    6    0    0  0.48182789974E+02 -0.95923923214E+01  0.11355518655E+03  0.12372702063E+03  0.00000000000E+00 0. -1.
         -5    1    3    3    0  503  0.20505916690E+00 -0.61262045552E+02  0.40121302070E+02  0.73381803973E+02  0.47000000000E+01 0.  1.
         13    1    4    4    0    0  0.26654752745E+02  0.19157035114E+02 -0.21402441199E+02  0.39185868978E+02  0.00000000000E+00 0. -1.
        -14    1    4    4    0    0 -0.56202272829E+02  0.28788745693E+02 -0.62059849593E+01  0.63450780917E+02  0.00000000000E+00 0.  1.
</event>
<event>
12    1  0.8226261E-002  0.1818644E+03  0.7818608E-02  0.1166073E+00
         21   -1    0    0  503  502  0.00000000000E+00  0.00000000000E+00  0.13589603032E+04  0.13589603032E+04  0.00000000000E+00 0.  1.
         21   -1    0    0  501  503 -0.00000000000E+00 -0.00000000000E+00 -0.24398718213E+02  0.24398718213E+02  0.00000000000E+00 0.  1.
          6    2    1    2  501    0 -0.14345236099E+02  0.57037411409E+02  0.71104606414E+03  0.73393539624E+03  0.17209186045E+03 0.  0.
         24    2    3    3    0    0  0.43489390752E+02  0.20156850895E+02  0.23644950461E+03  0.25438456044E+03  0.80656745610E+02 0.  0.
         -6    2    1    2    0  502  0.14345236099E+02 -0.57037411409E+02  0.62351552082E+03  0.64942362514E+03  0.17181498214E+03 0.  0.
        -24    2    5    5    0    0 -0.22197624441E+02  0.28306401173E+02  0.24592366068E+03  0.26055777443E+03  0.78217134037E+02 0.  0.
          5    1    3    3  501    0 -0.57834626851E+02  0.36880560514E+02  0.47459655953E+03  0.47955083581E+03  0.47000000000E+01 0. -1.
        -11    1    4    4    0    0  0.11068289005E+02  0.48630903447E+02  0.14316527925E+03  0.15160398733E+03  0.00000000000E+00 0.  1.
         12    1    4    4    0    0  0.32421101747E+02 -0.28474052552E+02  0.93284225364E+02  0.10278057311E+03  0.00000000000E+00 0. -1.
         -5    1    5    5    0  502  0.36542860540E+02 -0.85343812582E+02  0.37759186013E+03  0.38886585070E+03  0.47000000000E+01 0.  1.
         13    1    6    6    0    0 -0.43287386312E+02 -0.69426033560E+01  0.14829941270E+03  0.15464382743E+03  0.00000000000E+00 0. -1.
        -14    1    6    6    0    0  0.21089761871E+02  0.35249004529E+02  0.97624247983E+02  0.10591394701E+03  0.00000000000E+00 0.  1.
</event>
<event>
12    1  0.8226261E-002  0.2460690E+03  0.7818608E-02  0.1115908E+00
         21   -1    0    0  503  502  0.00000000000E+00  0.00000000000E+00  0.48420383530E+03  0.48420383530E+03  0.00000000000E+00 0. -1.
         21   -1    0    0  501  503 -0.00000000000E+00 -0.00000000000E+00 -0.12574146080E+03  0.12574146080E+03  0.00000000000E+00 0.  1.
          6    2    1    2  501    0 -0.17671028738E+03 -0.55598859800E+01  0.15244347374E+03  0.28946319594E+03  0.17115049260E+03 0.  0.
         24    2    3    3    0    0 -0.43222568171E+02 -0.25225634594E+01  0.43745368974E+01  0.90027249916E+02  0.78811264605E+02 0.  0.
         -6    2    1    2    0  502  0.17671028738E+03  0.55598859800E+01  0.20601890077E+03  0.32048210016E+03  0.17031603286E+03 0.  0.
        -24    2    5    5    0    0  0.53789770456E+02  0.56805401018E+02  0.93179647625E+02  0.14586725731E+03  0.80465005020E+02 0.  0.
          5    1    3    3  501    0 -0.13348771921E+03 -0.30373225206E+01  0.14806893684E+03  0.19943594602E+03  0.47000000000E+01 0. -1.
        -11    1    4    4    0    0 -0.64304227173E+02 -0.14109344190E+02  0.21566483129E+01  0.65869251991E+02  0.00000000000E+00 0.  1.
         12    1    4    4    0    0  0.21081659002E+02  0.11586780731E+02  0.22178885845E+01  0.24157997925E+02  0.00000000000E+00 0. -1.
         -5    1    5    5    0  502  0.12292051693E+03 -0.51245515038E+02  0.11283925314E+03  0.17461484285E+03  0.47000000000E+01 0.  1.
         11    1    6    6    0    0  0.14192103121E+02  0.18345027515E+02  0.87329319459E+02  0.90356880549E+02  0.00000000000E+00 0. -1.
        -12    1    6    6    0    0  0.39597667335E+02  0.38460373503E+02  0.58503281666E+01  0.55510376760E+02  0.00000000000E+00 0.  1.
</event>
<event>
12    1  0.8226261E-002  0.2127291E+03  0.7818608E-02  0.1139484E+00
         21   -1    0    0  501  502  0.00000000000E+00  0.00000000000E+00  0.76713918114E+03  0.76713918114E+03  0.00000000000E+00 0.  1.
         21   -1    0    0  502  503 -0.00000000000E+00 -0.00000000000E+00 -0.86566129353E+02  0.86566129353E+02  0.00000000000E+00 0.  1.
         -6    2    1    2    0  503 -0.10221324793E+03 -0.71145943798E+02  0.98822120671E+02  0.23427990978E+03  0.17208129248E+03 0.  0.
        -24    2    3    3    0    0  0.94237171772E+01 -0.27557758007E+01  0.19738711142E+02  0.81256046547E+02  0.78208232541E+02 0.  0.
          6    2    1    2  501    0  0.10221324793E+03  0.71145943798E+02  0.58175093111E+03  0.61942540071E+03  0.17246561346E+03 0.  0.
         24    2    5    5    0    0  0.80646251946E+02  0.10615559127E+03  0.53393394831E+03  0.55618487117E+03  0.80519080075E+02 0.  0.
          5    1    5    5  501    0  0.21566995980E+02 -0.35009647470E+02  0.47816982806E+02  0.63240529538E+02  0.47000000000E+01 0. -1.
        -13    1    6    6    0    0  0.16970846056E+02  0.87271572285E+02  0.28519555033E+03  0.29873205196E+03  0.00000000000E+00 0.  1.
         14    1    6    6    0    0  0.63675405890E+02  0.18884018983E+02  0.24873839798E+03  0.25745281921E+03  0.00000000000E+00 0. -1.
         -5    1    3    3    0  503 -0.11163696510E+03 -0.68390167997E+02  0.79083409530E+02  0.15302386323E+03  0.47000000000E+01 0.  1.
         11    1    4    4    0    0 -0.32626642467E+02  0.56586873453E+01 -0.20054682331E+01  0.33174394402E+02  0.00000000000E+00 0. -1.
        -12    1    4    4    0    0  0.42050359644E+02 -0.84144631460E+01  0.21744179375E+02  0.48081652144E+02  0.00000000000E+00 0.  1.
</event>
<event>
12    1  0.8226261E-002  0.1967955E+03  0.7818608E-02  0.1153150E+00
         21   -1    0    0  501  502  0.00000000000E+00  0.00000000000E+00  0.66974346847E+02  0.66974346847E+02  0.00000000000E+00 0. -1.
         21   -1    0    0  502  503 -0.00000000000E+00 -0.00000000000E+00 -0.58878770233E+03  0.58878770233E+03  0.00000000000E+00 0. -1.
         -6    2    1    2    0  503 -0.92760745722E+02 -0.26030229609E+02 -0.32285367128E+03  0.37810444052E+03  0.17159937669E+03 0.  0.
        -24    2    3    3    0    0 -0.23598791022E+02  0.29957054991E+02 -0.80795133497E+02  0.12016573127E+03  0.80359326115E+02 0.  0.
          6    2    1    2  501    0  0.92760745722E+02  0.26030229609E+02 -0.19895968421E+03  0.27765760866E+03  0.16800792513E+03 0.  0.
         24    2    5    5    0    0  0.15449399190E+02 -0.41420518567E+02 -0.86788301617E+02  0.12556830330E+03  0.79251789907E+02 0.  0.
          5    1    5    5  501    0  0.77311346532E+02  0.67450748176E+02 -0.11217138259E+03  0.15208930536E+03  0.47000000000E+01 0. -1.
        -11    1    6    6    0    0  0.16377129755E+02  0.17060585809E+02 -0.36672141743E+01  0.23931619815E+02  0.00000000000E+00 0.  1.
         12    1    6    6    0    0 -0.92773056526E+00 -0.58481104376E+02 -0.83121087443E+02  0.10163668349E+03  0.00000000000E+00 0. -1.
         -5    1    3    3    0  503 -0.69161954700E+02 -0.55987284600E+02 -0.24205853778E+03  0.25793870925E+03  0.47000000000E+01 0.  1.
         13    1    4    4    0    0 -0.51511528247E+02  0.29562597755E+02 -0.65176270063E+02  0.88177836828E+02  0.00000000000E+00 0. -1.
        -14    1    4    4    0    0  0.27912737225E+02  0.39445723576E+00 -0.15618863434E+02  0.31987894443E+02  0.00000000000E+00 0.  1.
</event>
<event>
12    1  0.8226261E-002  0.2090352E+03  0.7818608E-02  0.1142442E+00
         21   -1    0    0  501  502  0.00000000000E+00  0.00000000000E+00  0.55913634449E+03  0.55913634449E+03  0.00000000000E+00 0.  1.
         21   -1    0    0  502  503 -0.00000000000E+00 -0.00000000000E+00 -0.85163474962E+02  0.85163474962E+02  0.00000000000E+00 0. -1.
         -6    2    1    2    0  503 -0.18357840828E+02  0.11840639680E+03  0.14289968221E+03  0.25275776377E+03  0.17061384131E+03 0.  0.
        -24    2    3    3    0    0 -0.40400295678E+02  0.37596252127E+02  0.11552269817E+02  0.96904043763E+02  0.78811653293E+02 0.  0.
          6    2    1    2  501    0  0.18357840828E+02 -0.11840639680E+03  0.33107318732E+03  0.39154205569E+03  0.17128526172E+03 0.  0.
         24    2    5    5    0    0 -0.80694867623E+01 -0.55791961186E+02  0.67399142807E+02  0.11920942279E+03  0.80562910079E+02 0.  0.
          5    1    5    5  501    0  0.26427327590E+02 -0.62614435615E+02  0.26367404452E+03  0.27233263290E+03  0.47000000000E+01 0. -1.
        -11    1    6    6    0    0 -0.21935807319E+01  0.31601352447E+01  0.59287856704E+02  0.59412525647E+02  0.00000000000E+00 0.  1.
         12    1    6    6    0    0 -0.58759060304E+01 -0.58952096431E+02  0.81112861028E+01  0.59796897139E+02  0.00000000000E+00 0. -1.
         -5    1    3    3    0  503  0.22042454850E+02  0.80810144674E+02  0.13134741239E+03  0.15585372001E+03  0.47000000000E+01 0.  1.
         11    1    4    4    0    0 -0.11089418910E+02  0.58879372480E+02  0.90575183372E+01  0.60595332772E+02  0.00000000000E+00 0. -1.
        -12    1    4    4    0    0 -0.29310876768E+02 -0.21283120352E+02  0.24947514799E+01  0.36308710991E+02  0.00000000000E+00 0.  1.
</event>
<event>
12    1  0.8226261E-002  0.1842648E+03  0.7818608E-02  0.1164116E+00
         21   -1    0    0  501  502  0.00000000000E+00  0.00000000000E+00  0.36814351036E+03  0.36814351036E+03  0.00000000000E+00 0.  1.
         21   -1    0    0  502  503 -0.00000000000E+00 -0.00000000000E+00 -0.92628975096E+02  0.92628975096E+02  0.00000000000E+00 0.  1.
         -6    2    1    2    0  503  0.13744523591E+02 -0.63945231876E+02  0.11212247081E+03  0.21569646257E+03  0.17226610489E+03 0.  0.
        -24    2    3    3    0    0  0.14949747929E+02  0.29809970073E+02  0.37892612808E+02  0.96015000856E+02  0.81675583898E+02 0.  0.
          6    2    1    2  501    0 -0.13744523591E+02  0.63945231876E+02  0.16339206445E+03  0.24507602288E+03  0.17055024380E+03 0.  0.
         24    2    5    5    0    0  0.18739795152E+02  0.54813668917E+02  0.25434465343E+02  0.10297392734E+03  0.81246535082E+02 0.  0.
          5    1    5    5  501    0 -0.32484318742E+02  0.91315629591E+01  0.13795759910E+03  0.14210209554E+03  0.47000000000E+01 0. -1.
        -11    1    6    6    0    0  0.29261621365E+02 -0.14616744401E+01  0.34224931581E+02  0.45052468509E+02  0.00000000000E+00 0.  1.
         12    1    6    6    0    0 -0.10521826214E+02  0.56275343357E+02 -0.87904662372E+01  0.57921458834E+02  0.00000000000E+00 0. -1.
         -5    1    3    3    0  503 -0.12052243385E+01 -0.93755201949E+02  0.74229858003E+02  0.11968146171E+03  0.47000000000E+01 0.  1.
         11    1    4    4    0    0 -0.19226910970E+02  0.37428150023E+02 -0.29935762264E+01  0.42184144156E+02  0.00000000000E+00 0. -1.
        -12    1    4    4    0    0  0.34176658899E+02 -0.76181799502E+01  0.40886189035E+02  0.53830856700E+02  0.00000000000E+00 0.  1.
</event>
<event>
12    1  0.8226261E-002  0.2419043E+03  0.7818608E-02  0.1118573E+00
         21   -1    0    0  501  502  0.00000000000E+00  0.00000000000E+00  0.97590585960E+03  0.97590585960E+03  0.00000000000E+00 0. -1.
         21   -1    0    0  502  503 -0.00000000000E+00 -0.00000000000E+00 -0.71045794384E+02  0.71045794384E+02  0.00000000000E+00 0.  1.
         -6    2    1    2    0  503  0.12617894071E+03  0.11377950786E+03  0.24528080319E+03  0.34450014658E+03  0.17219401004E+03 0.  0.
        -24    2    3    3    0    0  0.48538623040E+02  0.31050817048E+02  0.32204054505E+02  0.10305481935E+03  0.79139392838E+02 0.  0.
          6    2    1    2  501    0 -0.12617894071E+03 -0.11377950786E+03  0.65957926202E+03  0.70245150740E+03  0.17183252274E+03 0.  0.
         24    2    5    5    0    0 -0.63605117861E+02  0.46845295412E+01  0.33344793502E+03  0.34984273848E+03  0.84468103248E+02 0.  0.
          5    1    5    5  501    0 -0.62573822844E+02 -0.11846403741E+03  0.32613132700E+03  0.35260876892E+03  0.47000000000E+01 0. -1.
        -11    1    6    6    0    0 -0.57775267664E+02  0.36653388494E+01  0.94507869496E+02  0.11082938987E+03  0.00000000000E+00 0.  1.
         12    1    6    6    0    0 -0.58298501972E+01  0.10191906919E+01  0.23894006552E+03  0.23901334861E+03  0.00000000000E+00 0. -1.
         -5    1    3    3    0  503  0.77640317666E+02  0.82728690816E+02  0.21307674869E+03  0.24144532723E+03  0.47000000000E+01 0.  1.
         11    1    4    4    0    0 -0.10401297829E+02 -0.13954043022E+02  0.22225330137E+02  0.28228843634E+02  0.00000000000E+00 0. -1.
        -12    1    4    4    0    0  0.58939920868E+02  0.45004860070E+02  0.99787243675E+01  0.74825975716E+02  0.00000000000E+00 0.  1.
</event>
<event>
12    1  0.8226261E-002  0.3013904E+03  0.7818608E-02  0.1084619E+00
         21   -1    0    0  503  502  0.00000000000E+00  0.00000000000E+00  0.67242002952E+03  0.67242002952E+03  0.00000000000E+00 0. -1.
         21   -1    0    0  501  503 -0.00000000000E+00 -0.00000000000E+00 -0.91427183510E+03  0.91427183510E+03  0.00000000000E+00 0.  1.
          6    2    1    2  501    0 -0.31334430420E+02 -0.24396547301E+03 -0.85345829512E+03  0.90511172175E+03  0.17416994228E+03 0.  0.
         24    2    3    3    0    0 -0.69838569929E+02 -0.16868415279E+03 -0.72015896776E+03  0.74718564218E+03  0.79534117116E+02 0.  0.
         -6    2    1    2    0  502  0.31334430420E+02  0.24396547301E+03  0.61160648954E+03  0.68158014286E+03  0.17317042054E+03 0.  0.
        -24    2    5    5    0    0 -0.21418428090E+02  0.47705636798E+02  0.20683330570E+03  0.22862958514E+03  0.82200328517E+02 0.  0.
          5    1    3    3  501    0  0.38504139508E+02 -0.75281320227E+02 -0.13329932736E+03  0.15792607957E+03  0.47000000000E+01 0. -1.
        -11    1    4    4    0    0 -0.46452025307E+02 -0.16560301106E+03 -0.67050915603E+03  0.69221721753E+03  0.00000000000E+00 0.  1.
         12    1    4    4    0    0 -0.23386544622E+02 -0.30811417292E+01 -0.49649811733E+02  0.54968424653E+02  0.00000000000E+00 0. -1.
         -5    1    5    5    0  502  0.52752858511E+02  0.19625983621E+03  0.40477318383E+03  0.45295055773E+03  0.47000000000E+01 0.  1.
         13    1    6    6    0    0  0.58770548606E+01  0.45552184719E+02  0.44321569482E+02  0.63827445726E+02  0.00000000000E+00 0. -1.
        -14    1    6    6    0    0 -0.27295482951E+02  0.21534520784E+01  0.16251173622E+03  0.16480213941E+03  0.00000000000E+00 0.  1.
</event>
<event>
12    1  0.8226261E-002  0.2139699E+03  0.7818608E-02  0.1138573E+00
         21   -1    0    0  503  502  0.00000000000E+00  0.00000000000E+00  0.59746197511E+03  0.59746197511E+03  0.00000000000E+00 0. -1.
         21   -1    0    0  501  503 -0.00000000000E+00 -0.00000000000E+00 -0.78784719198E+02  0.78784719198E+02  0.00000000000E+00 0. -1.
          6    2    1    2  501    0 -0.11692234170E+03  0.50605990220E+02  0.20042064969E+03  0.29274911628E+03  0.17117770889E+03 0.  0.
         24    2    3    3    0    0 -0.11348597273E+03 -0.41020727085E+01  0.19255059639E+03  0.23717206598E+03  0.79239912294E+02 0.  0.
         -6    2    1    2    0  502  0.11692234170E+03 -0.50605990220E+02  0.31825660621E+03  0.38349757803E+03  0.17190498747E+03 0.  0.
        -24    2    5    5    0    0  0.42467094886E+02  0.36318160655E+02  0.13735510904E+03  0.16937884120E+03  0.81855378093E+02 0.  0.
          5    1    3    3  501    0 -0.34363689700E+01  0.54708062929E+02  0.78700532977E+01  0.55577050300E+02  0.47000000000E+01 0. -1.
        -13    1    4    4    0    0 -0.97960506047E+01 -0.20502267077E+02  0.66452491977E+01  0.23674139892E+02  0.00000000000E+00 0.  1.
         14    1    4    4    0    0 -0.10368992213E+03  0.16400194368E+02  0.18590534720E+03  0.21349792608E+03  0.00000000000E+00 0. -1.
         -5    1    5    5    0  502  0.74455246816E+02 -0.86924150875E+02  0.18090149717E+03  0.21411873683E+03  0.47000000000E+01 0.  1.
         13    1    6    6    0    0  0.60540843118E+02  0.30542679625E+02  0.13390264754E+03  0.15009319766E+03  0.00000000000E+00 0. -1.
        -14    1    6    6    0    0 -0.18073748231E+02  0.57754810299E+01  0.34524615016E+01  0.19285643538E+02  0.00000000000E+00 0.  1.
</event>
<event>
12    1  0.8226261E-002  0.1878788E+03  0.7818608E-02  0.1160595E+00
         21   -1    0    0  503  502  0.00000000000E+00  0.00000000000E+00  0.36718515278E+02  0.36718515278E+02  0.00000000000E+00 0. -1.
         21   -1    0    0  501  503 -0.00000000000E+00 -0.00000000000E+00 -0.98047336666E+03  0.98047336666E+03  0.00000000000E+00 0.  1.
          6    2    1    2  501    0 -0.72363727952E+02  0.22762810815E+02 -0.54993945584E+03  0.58085597937E+03  0.17089648620E+03 0.  0.
         24    2    3    3    0    0 -0.49003735147E+01  0.64876844496E+02 -0.36711303907E+03  0.38142557874E+03  0.80501366758E+02 0.  0.
         -6    2    1    2    0  502  0.72363727952E+02 -0.22762810815E+02 -0.39381539554E+03  0.43633590257E+03  0.17188309814E+03 0.  0.
        -24    2    5    5    0    0  0.33671017415E+02 -0.76240380115E+02 -0.28032706501E+03  0.30496365499E+03  0.86447871667E+02 0.  0.
          5    1    3    3  501    0 -0.67463354438E+02 -0.42114033681E+02 -0.18282641677E+03  0.19943040063E+03  0.47000000000E+01 0. -1.
        -11    1    4    4    0    0  0.79426543838E+01 -0.10548832126E+02 -0.16149254054E+03  0.16203149159E+03  0.00000000000E+00 0.  1.
         12    1    4    4    0    0 -0.12843027898E+02  0.75425676622E+02 -0.20562049854E+03  0.21939408715E+03  0.00000000000E+00 0. -1.
         -5    1    5    5    0  502  0.38692710537E+02  0.53477569300E+02 -0.11348833054E+03  0.13137224758E+03  0.47000000000E+01 0.  1.
         13    1    6    6    0    0  0.48514543424E+02 -0.34758922157E+02 -0.79771712056E+02  0.99626149366E+02  0.00000000000E+00 0. -1.
        -14    1    6    6    0    0 -0.14843526009E+02 -0.41481457958E+02 -0.20055535295E+03  0.20533750562E+03  0.00000000000E+00 0.  1.
</event>
<event>
12    1  0.8226261E-002  0.2053473E+03  0.7818608E-02  0.1145483E+00
         21   -1    0    0  503  502  0.00000000000E+00  0.00000000000E+00  0.18337236247E+03  0.18337236247E+03  0.00000000000E+00 0. -1.
         21   -1    0    0  501  503 -0.00000000000E+00 -0.00000000000E+00 -0.12349419390E+04  0.12349419390E+04  0.00000000000E+00 0.  1.
          6    2    1    2  501    0  0.10424911758E+03 -0.43295452782E+02 -0.11656214550E+04  0.11834199352E+04  0.17049044530E+03 0.  0.
         24    2    3    3    0    0  0.11939881109E+03 -0.21682085243E+02 -0.11272742652E+04  0.11366305365E+04  0.80346241556E+02 0.  0.
         -6    2    1    2    0  502 -0.10424911758E+03  0.43295452782E+02  0.11405187855E+03  0.23489436619E+03  0.17153762712E+03 0.  0.
        -24    2    5    5    0    0 -0.94207981837E+02  0.41441700510E+02  0.14834547233E+03  0.19880556766E+03  0.83214879615E+02 0.  0.
          5    1    3    3  501    0 -0.15149693506E+02 -0.21613367538E+02 -0.38347189842E+02  0.46789398783E+02  0.47000000000E+01 0. -1.
        -13    1    4    4    0    0  0.45918726938E+02  0.30094391681E+02 -0.37297398434E+03  0.37699309661E+03  0.00000000000E+00 0.  1.
         14    1    4    4    0    0  0.73480084152E+02 -0.51776476925E+02 -0.75430028085E+03  0.75963743985E+03  0.00000000000E+00 0. -1.
         -5    1    5    5    0  502 -0.10041135746E+02  0.18537522716E+01 -0.34293593780E+02  0.36088798524E+02  0.47000000000E+01 0.  1.
         11    1    6    6    0    0 -0.66798781353E+02  0.64003174000E+02  0.12786019272E+03  0.15781860586E+03  0.00000000000E+00 0. -1.
        -12    1    6    6    0    0 -0.27409200485E+02 -0.22561473490E+02  0.20485279611E+02  0.40986961805E+02  0.00000000000E+00 0.  1.
</event>
<event>
12    1  0.8226261E-002  0.1926143E+03  0.7818608E-02  0.1156126E+00
         21   -1    0    0  503  502  0.00000000000E+00  0.00000000000E+00  0.52030291525E+03  0.52030291525E+03  0.00000000000E+00 0.  1.
         21   -1    0    0  501  503 -0.00000000000E+00 -0.00000000000E+00 -0.71607583341E+02  0.71607583341E+02  0.00000000000E+00 0.  1.
          6    2    1    2  501    0  0.73948696778E+02  0.45767096090E+02  0.24366193674E+03  0.31059400261E+03  0.17185592280E+03 0.  0.
         24    2    3    3    0    0  0.88412280963E+02  0.26450100693E+02  0.91074668748E+02  0.15603881527E+03  0.86816918472E+02 0.  0.
         -6    2    1    2    0  502 -0.73948696778E+02 -0.45767096090E+02  0.20503339516E+03  0.28131649597E+03  0.17186401874E+03 0.  0.
        -24    2    5    5    0    0 -0.63431382757E+02 -0.77965999950E+02  0.21062557686E+03  0.24666471680E+03  0.79863079196E+02 0.  0.
          5    1    3    3  501    0 -0.14463584184E+02  0.19316995397E+02  0.15258726800E+03  0.15455518734E+03  0.47000000000E+01 0. -1.
        -11    1    4    4    0    0  0.58293209991E+02  0.54497274191E+02  0.36673178778E+02  0.87823534813E+02  0.00000000000E+00 0.  1.
         12    1    4    4    0    0  0.30119070971E+02 -0.28047173498E+02  0.54401489970E+02  0.68215280461E+02  0.00000000000E+00 0. -1.
         -5    1    5    5    0  502 -0.10517314021E+02  0.32198903860E+02 -0.55921816985E+01  0.34651779178E+02  0.47000000000E+01 0.  1.
         11    1    6    6    0    0 -0.13901054680E+02 -0.18887280093E+01 -0.31803510313E+01  0.14384757467E+02  0.00000000000E+00 0. -1.
        -12    1    6    6    0    0 -0.49530328077E+02 -0.76077271941E+02  0.21380592789E+03  0.23227995933E+03  0.00000000000E+00 0.  1.
</event>
<event>
12    1  0.8226261E-002  0.2190272E+03  0.7818608E-02  0.1134712E+00
         21   -1    0    0  503  502  0.00000000000E+00  0.00000000000E+00  0.13933245933E+04  0.13933245933E+04  0.00000000000E+00 0. -1.
         21   -1    0    0  501  503 -0.00000000000E+00 -0.00000000000E+00 -0.23932753843E+03  0.23932753843E+03  0.00000000000E+00 0. -1.
          6    2    1    2  501    0 -0.40787895591E+02  0.12917067297E+03 -0.17858827125E+03  0.28218680911E+03  0.17142610485E+03 0.  0.
         24    2    3    3    0    0 -0.72209847495E+02  0.13677409923E+03 -0.11128854910E+03  0.20737709213E+03  0.81845591715E+02 0.  0.
         -6    2    1    2    0  502  0.40787895591E+02 -0.12917067297E+03  0.13325853261E+04  0.13504653226E+04  0.17211688188E+03 0.  0.
        -24    2    5    5    0    0  0.21216317175E+02 -0.97829193100E+02  0.47303633832E+03  0.49010964764E+03  0.80146155251E+02 0.  0.
          5    1    3    3  501    0  0.31421951904E+02 -0.76034262670E+01 -0.67299722157E+02  0.74809716982E+02  0.47000000000E+01 0. -1.
        -11    1    4    4    0    0 -0.11888138699E+02 -0.82376781548E+01  0.70263131913E+00  0.14480361663E+02  0.00000000000E+00 0.  1.
         12    1    4    4    0    0 -0.60321708796E+02  0.14501177739E+03 -0.11199118042E+03  0.19289673047E+03  0.00000000000E+00 0. -1.
         -5    1    5    5    0  502  0.19571578416E+02 -0.31341479867E+02  0.85954898779E+03  0.86035567497E+03  0.47000000000E+01 0.  1.
         13    1    6    6    0    0  0.37177203674E+02 -0.93619731640E+02  0.45341022389E+03  0.46446488538E+03  0.00000000000E+00 0. -1.
        -14    1    6    6    0    0 -0.15960886498E+02 -0.42094614606E+01  0.19626114427E+02  0.25644762255E+02  0.00000000000E+00 0.  1.
</event>
<event>
12    1  0.8226261E-002  0.1749319E+03  0.7818608E-02  0.1172985E+00
         21   -1    0    0  503  502  0.00000000000E+00  0.00000000000E+00  0.11250744014E+04  0.11250744014E+04  0.00000000000E+00 0. -1.
         21   -1    0    0  501  503 -0.00000000000E+00 -0.00000000000E+00 -0.44363134432E+02  0.44363134432E+02  0.00000000000E+00 0. -1.
          6    2    1    2  501    0 -0.29340320343E+02  0.21411512640E+02  0.17475339539E+03  0.24674537781E+03  0.17036791070E+03 0.  0.
         24    2    3    3    0    0 -0.18464870234E+02  0.76927391566E+02  0.14350499295E+03  0.18194691422E+03  0.79070990803E+02 0.  0.
         -6    2    1    2    0  502  0.29340320343E+02 -0.21411512640E+02  0.90595787158E+03  0.92269215803E+03  0.17111939148E+03 0.  0.
        -24    2    5    5    0    0  0.79893211705E+02 -0.35297192054E+02  0.47939648872E+03  0.49289556629E+03  0.74136555313E+02 0.  0.
          5    1    3    3  501    0 -0.10875450110E+02 -0.55515878926E+02  0.31248402440E+02  0.64798463586E+02  0.47000000000E+01 0. -1.
        -13    1    4    4    0    0 -0.13390915912E+02 -0.11581420753E+02  0.50245194125E+02  0.53273121443E+02  0.00000000000E+00 0.  1.
         14    1    4    4    0    0 -0.50739543215E+01  0.88508812320E+02  0.93259798828E+02  0.12867379278E+03  0.00000000000E+00 0. -1.
         -5    1    5    5    0  502 -0.50552891362E+02  0.13885679414E+02  0.42656138286E+03  0.42979659173E+03  0.47000000000E+01 0.  1.
         13    1    6    6    0    0  0.64278218252E+02 -0.54506490649E+01  0.41725051487E+03  0.42220775819E+03  0.00000000000E+00 0. -1.
        -14    1    6    6    0    0  0.15614993453E+02 -0.29846542989E+02  0.62145973846E+02  0.70687808102E+02  0.00000000000E+00 0.  1.
</event>
<event>
12    1  0.8226261E-002  0.2082229E+03  0.7818608E-02  0.1143200E+00
         21   -1    0    0  503  502  0.00000000000E+00  0.00000000000E+00  0.88923917946E+03  0.88923917946E+03  0.00000000000E+00 0.  1.
         21   -1    0    0  501  503 -0.00000000000E+00 -0.00000000000E+00 -0.54990430339E+02  0.54990430339E+02  0.00000000000E+00 0.  1.
          6    2    1    2  501    0 -0.10931136164E+03  0.29614414315E+02  0.25592575571E+03  0.32993143054E+03  0.17473056144E+03 0.  0.
         24    2    3    3    0    0 -0.35674780011E+02  0.25864450248E+02  0.37667558964E+02  0.99507606181E+02  0.80878050014E+02 0.  0.
         -6    2    1    2    0  502  0.10931136164E+03 -0.29614414315E+02  0.57832299341E+03  0.61429817926E+03  0.17343235285E+03 0.  0.
        -24    2    5    5    0    0  0.89708187824E+01  0.38704436509E+02  0.27697784585E+03  0.28938791799E+03  0.73825002486E+02 0.  0.
          5    1    3    3  501    0 -0.73636581633E+02  0.37499640670E+01  0.21825819674E+03  0.23042382436E+03  0.47000000000E+01 0. -1.
        -13    1    4    4    0    0 -0.19760748360E+02  0.49372029763E+02  0.45577457788E+02  0.70038483401E+02  0.00000000000E+00 0.  1.
         14    1    4    4    0    0 -0.15914031650E+02 -0.23507579515E+02 -0.79098988239E+01  0.29469122780E+02  0.00000000000E+00 0. -1.
         -5    1    5    5    0  502  0.10034054286E+03 -0.68318850824E+02  0.30134514756E+03  0.32491026127E+03  0.47000000000E+01 0.  1.
         13    1    6    6    0    0 -0.23949956001E+02  0.39602923297E+01  0.17570491840E+03  0.17737390636E+03  0.00000000000E+00 0. -1.
        -14    1    6    6    0    0  0.32920774783E+02  0.34744144179E+02  0.10127292745E+03  0.11201401163E+03  0.00000000000E+00 0.  1.
</event>
<event>
12    1  0.8226261E-002  0.3162537E+03  0.7818608E-02  0.1077664E+00
         21   -1    0    0  503  502  0.00000000000E+00  0.00000000000E+00  0.12611197489E+04  0.12611197489E+04  0.00000000000E+00 0. -1.
         21   -1    0    0  501  503 -0.00000000000E+00 -0.00000000000E+00 -0.15713773169E+03  0.15713773169E+03  0.00000000000E+00 0.  1.
          6    2    1    2  501    0  0.98155393115E+02 -0.24658851766E+03  0.49994233297E+02  0.31784545449E+03  0.16758857760E+03 0.  0.
         24    2    3    3    0    0  0.28149051549E+02 -0.18622691248E+03  0.81312005578E+02  0.22013514746E+03  0.79843652614E+02 0.  0.
         -6    2    1    2    0  502 -0.98155393115E+02  0.24658851766E+03  0.10539877839E+04  0.11004120261E+04  0.17197674351E+03 0.  0.
        -24    2    5    5    0    0 -0.99168482577E+02  0.10578579198E+03  0.70291658181E+03  0.72212706360E+03  0.79691613614E+02 0.  0.
          5    1    3    3  501    0  0.70006341567E+02 -0.60361605175E+02 -0.31317772280E+02  0.97710307028E+02  0.47000000000E+01 0. -1.
        -11    1    4    4    0    0  0.99377784513E+01 -0.14545292523E+03  0.24440331049E+02  0.14782639372E+03  0.00000000000E+00 0.  1.
         12    1    4    4    0    0  0.18211273097E+02 -0.40773987248E+02  0.56871674528E+02  0.72308753741E+02  0.00000000000E+00 0. -1.
         -5    1    5    5    0  502  0.10130894616E+01  0.14080272567E+03  0.35107120214E+03  0.37828496253E+03  0.47000000000E+01 0.  1.
         13    1    6    6    0    0 -0.29429588934E+02  0.81560613283E+02  0.46515222519E+03  0.47316469326E+03  0.00000000000E+00 0. -1.
        -14    1    6    6    0    0 -0.69738893643E+02  0.24225178702E+02  0.23776435661E+03  0.24896237034E+03  0.00000000000E+00 0.  1.
</event>
<event>
12    1  0.8226261E-002  0.1834584E+03  0.7818608E-02  0.1165393E+00
         21   -1    0    0  501  502  0.00000000000E+00  0.00000000000E+00  0.29499805689E+03  0.29499805689E+03  0.00000000000E+00 0.  1.
         21   -1    0    0  502  503 -0.00000000000E+00 -0.00000000000E+00 -0.12806861862E+03  0.12806861862E+03  0.00000000000E+00 0.  1.
         -6    2    1    2    0  503  0.43508813520E+02  0.44219624995E+02  0.15816986997E+03  0.23939923952E+03  0.16865911190E+03 0.  0.
        -24    2    3    3    0    0  0.96467012866E+01 -0.37534496063E+02  0.75537219469E+02  0.11823561510E+03  0.82291505708E+02 0.  0.
          6    2    1    2  501    0 -0.43508813520E+02 -0.44219624995E+02  0.87595682967E+01  0.18366743599E+03  0.17265168669E+03 0.  0.
         24    2    5    5    0    0  0.23012546589E+02 -0.43963277198E+02  0.48854325876E+02  0.10585460510E+03  0.79725185622E+02 0.  0.
          5    1    5    5  501    0 -0.66521360109E+02 -0.25634779685E+00 -0.40094757579E+02  0.77812830885E+02  0.47000000000E+01 0. -1.
        -11    1    6    6    0    0  0.16238835606E+02 -0.66925867960E+02  0.28890493486E+02  0.74682208041E+02  0.00000000000E+00 0.  1.
         12    1    6    6    0    0  0.67737109828E+01  0.22962590762E+02  0.19963832391E+02  0.31172397064E+02  0.00000000000E+00 0. -1.
         -5    1    3    3    0  503  0.33862112234E+02  0.81754121058E+02  0.82632650501E+02  0.12116362442E+03  0.47000000000E+01 0.  1.
         11    1    4    4    0    0  0.21708512092E+02  0.11266060360E+02 -0.33572435908E+01  0.24687136282E+02  0.00000000000E+00 0. -1.
        -12    1    4    4    0    0 -0.12061810805E+02 -0.48800556423E+02  0.78894463060E+02  0.93548478815E+02  0.00000000000E+00 0.  1.
</event>
<event>
12    1  0.8226261E-002  0.1818361E+03  0.7818608E-02  0.1166755E+00
         21   -1    0    0  503  502  0.00000000000E+00  0.00000000000E+00  0.16537105613E+02  0.16537105613E+02  0.00000000000E+00 0. -1.
         21   -1    0    0  501  503 -0.00000000000E+00 -0.00000000000E+00 -0.20849154899E+04  0.20849154899E+04  0.00000000000E+00 0. -1.
          6    2    1    2  501    0 -0.57496392895E+02 -0.25638450114E+01 -0.12923422729E+04  0.13050720020E+04  0.17248759801E+03 0.  0.
         24    2    3    3    0    0 -0.52666677858E+02 -0.60642607991E+02 -0.10867596949E+04  0.10913367563E+04  0.59312531083E+02 0.  0.
         -6    2    1    2    0  502  0.57496392895E+02  0.25638450114E+01 -0.77603611132E+03  0.79638059349E+03  0.16934460463E+03 0.  0.
        -24    2    5    5    0    0  0.10322196702E+03 -0.56905970832E+01 -0.61399038076E+03  0.62773933894E+03  0.79908276289E+02 0.  0.
          5    1    3    3  501    0 -0.48297150376E+01  0.58078762979E+02 -0.20558257802E+03  0.21373524567E+03  0.47000000000E+01 0. -1.
        -13    1    4    4    0    0  0.20317929111E+01 -0.37875906037E+02 -0.55289438498E+03  0.55419393120E+03  0.00000000000E+00 0.  1.
         14    1    4    4    0    0 -0.54698470769E+02 -0.22766701954E+02 -0.53386530992E+03  0.53714282511E+03  0.00000000000E+00 0. -1.
         -5    1    5    5    0  502 -0.45725574121E+02  0.82544420947E+01 -0.16204573056E+03  0.16864125455E+03  0.47000000000E+01 0.  1.
         11    1    6    6    0    0  0.77503260289E+02 -0.39392964890E+02 -0.36864486115E+03  0.37875796320E+03  0.00000000000E+00 0. -1.
        -12    1    6    6    0    0  0.25718706727E+02  0.33702367807E+02 -0.24534551961E+03  0.24898137574E+03  0.00000000000E+00 0.  1.
</event>
<event>
12    1  0.8226261E-002  0.2053645E+03  0.7818608E-02  0.1146075E+00
         21   -1    0    0  501  502  0.00000000000E+00  0.00000000000E+00  0.93287114609E+02  0.93287114609E+02  0.00000000000E+00 0.  1.
         21   -1    0    0  502  503 -0.00000000000E+00 -0.00000000000E+00 -0.44794385772E+03  0.44794385772E+03  0.00000000000E+00 0.  1.
         -6    2    1    2    0  503 -0.14358738585E+02  0.10837176006E+03 -0.15275694030E+03  0.25594776906E+03  0.17385041249E+03 0.  0.
        -24    2    3    3    0    0 -0.41929407283E+02  0.97901333556E+01 -0.11538663092E+03  0.14687389997E+03  0.80024658631E+02 0.  0.
          6    2    1    2  501    0  0.14358738585E+02 -0.10837176006E+03 -0.20189980281E+03  0.28528320327E+03  0.16932915857E+03 0.  0.
         24    2    5    5    0    0 -0.41451372406E+01 -0.10571161492E+03 -0.22264500205E+03  0.25696495678E+03  0.72581432769E+02 0.  0.
          5    1    5    5  501    0  0.18503875826E+02 -0.26601451354E+01  0.20745199240E+02  0.28318246489E+02  0.47000000000E+01 0. -1.
        -13    1    6    6    0    0  0.31768020826E+02 -0.47086965913E+02 -0.12749996681E+03  0.13958019574E+03  0.00000000000E+00 0.  1.
         14    1    6    6    0    0 -0.35913158066E+02 -0.58624649011E+02 -0.95145035240E+02  0.11738476104E+03  0.00000000000E+00 0. -1.
         -5    1    3    3    0  503  0.27570668698E+02  0.98581626704E+02 -0.37370309379E+02  0.10907386909E+03  0.47000000000E+01 0.  1.
         13    1    4    4    0    0 -0.17696991254E+01  0.38553674730E+02 -0.69265731822E+02  0.79292239689E+02  0.00000000000E+00 0. -1.
        -14    1    4    4    0    0 -0.40159708158E+02 -0.28763541374E+02 -0.46120899101E+02  0.67581660276E+02  0.00000000000E+00 0.  1.
</event>
<event>
12    1  0.8226261E-002  0.2138918E+03  0.7818608E-02  0.1138571E+00
         21   -1    0    0  501  502  0.00000000000E+00  0.00000000000E+00  0.65630755890E+02  0.65630755890E+02  0.00000000000E+00 0.  1.
         21   -1    0    0  502  503 -0.00000000000E+00 -0.00000000000E+00 -0.79175286620E+03  0.79175286620E+03  0.00000000000E+00 0. -1.
         -6    2    1    2    0  503  0.20119704410E+02 -0.12663277607E+03 -0.21395747234E+03  0.30235001582E+03  0.17087150030E+03 0.  0.
        -24    2    3    3    0    0  0.67149990145E-01 -0.21472920240E+02 -0.31152820579E+02  0.90453033960E+02  0.82159371405E+02 0.  0.
          6    2    1    2  501    0 -0.20119704410E+02  0.12663277607E+03 -0.51216463798E+03  0.55503360628E+03  0.17119878861E+03 0.  0.
         24    2    5    5    0    0 -0.53707936535E+02  0.14580982318E+03 -0.41035189063E+03  0.44602051534E+03  0.80003618515E+02 0.  0.
          5    1    5    5  501    0  0.33588232125E+02 -0.19177047115E+02 -0.10181274735E+03  0.10901309094E+03  0.47000000000E+01 0. -1.
        -13    1    6    6    0    0  0.17712576264E+02  0.62618716645E+02 -0.15823886096E+03  0.17109756325E+03  0.00000000000E+00 0.  1.
         14    1    6    6    0    0 -0.71420512799E+02  0.83191106538E+02 -0.25211302967E+03  0.27492295209E+03  0.00000000000E+00 0. -1.
         -5    1    3    3    0  503  0.20052554420E+02 -0.10515985583E+03 -0.18280465176E+03  0.21189698186E+03  0.47000000000E+01 0.  1.
         13    1    4    4    0    0  0.37085299452E+02 -0.16492985315E+02  0.18223337321E+01  0.40628301715E+02  0.00000000000E+00 0. -1.
        -14    1    4    4    0    0 -0.37018149461E+02 -0.49799349246E+01 -0.32975154311E+02  0.49824732245E+02  0.00000000000E+00 0.  1.
</event>
<event>
12    1  0.8226261E-002  0.2143883E+03  0.7818608E-02  0.1138234E+00
         21   -1    0    0  501  502  0.00000000000E+00  0.00000000000E+00  0.12212069013E+03  0.12212069013E+03  0.00000000000E+00 0.  1.
         21   -1    0    0  502  503 -0.00000000000E+00 -0.00000000000E+00 -0.37555567475E+03  0.37555567475E+03  0.00000000000E+00 0. -1.
         -6    2    1    2    0  503 -0.12532138674E+03  0.26576764934E+02 -0.12316255128E+03  0.24681133524E+03  0.17127476976E+03 0.  0.
        -24    2    3    3    0    0 -0.15354722680E+03  0.48000342328E+02 -0.11378268818E+03  0.20985542168E+03  0.72194280635E+02 0.  0.
          6    2    1    2  501    0  0.12532138674E+03 -0.26576764934E+02 -0.13027243334E+03  0.25086502964E+03  0.17190282662E+03 0.  0.
         24    2    5    5    0    0  0.10945824997E+03  0.45680711978E+02 -0.95866724363E+02  0.16914217550E+03  0.73149236234E+02 0.  0.
          5    1    5    5  501    0  0.15863136774E+02 -0.72257476911E+02 -0.34405708974E+02  0.81722854135E+02  0.47000000000E+01 0. -1.
        -13    1    6    6    0    0  0.68768138836E+02  0.61463809013E+02 -0.81819047337E+02  0.12329320032E+03  0.00000000000E+00 0.  1.
         14    1    6    6    0    0  0.40690111129E+02 -0.15783097036E+02 -0.14047677026E+02  0.45848975185E+02  0.00000000000E+00 0. -1.
         -5    1    3    3    0  503  0.28225840062E+02 -0.21423577394E+02 -0.93798631044E+01  0.36955913565E+02  0.47000000000E+01 0.  1.
         11    1    4    4    0    0 -0.36126192233E+02  0.16891286195E+02 -0.70321158551E+02  0.80842332070E+02  0.00000000000E+00 0. -1.
        -12    1    4    4    0    0 -0.11742103457E+03  0.31109056133E+02 -0.43461529628E+02  0.12901308961E+03  0.00000000000E+00 0.  1.
</event>
<event>
12    1  0.8226261E-002  0.1938662E+03  0.7818608E-02  0.1155075E+00
         21   -1    0    0  503  502  0.00000000000E+00  0.00000000000E+00  0.60775792477E+03  0.60775792477E+03  0.00000000000E+00 0. -1.
         21   -1    0    0  501  503 -0.00000000000E+00 -0.00000000000E+00 -0.77078011209E+02  0.77078011209E+02  0.00000000000E+00 0.  1.
          6    2    1    2  501    0 -0.48200938626E+02 -0.74828067372E+02  0.11283180828E+03  0.22431035120E+03  0.17222527847E+03 0.  0.
         24    2    3    3    0    0 -0.73842085074E+02  0.61628944839E+01  0.58047951321E+02  0.12311566124E+03  0.79355318614E+02 0.  0.
         -6    2    1    2    0  502  0.48200938626E+02  0.74828067372E+02  0.41784810529E+03  0.46052558479E+03  0.17194244676E+03 0.  0.
        -24    2    5    5    0    0 -0.19667581309E+01  0.88310653543E+02  0.16959065641E+03  0.20684777959E+03  0.78882022739E+02 0.  0.
          5    1    3    3  501    0  0.25641146449E+02 -0.80990961856E+02  0.54783856957E+02  0.10119468996E+03  0.47000000000E+01 0. -1.
        -13    1    4    4    0    0 -0.23779235383E+02  0.36474707676E+02  0.44700215916E+01  0.43770280196E+02  0.00000000000E+00 0.  1.
         14    1    4    4    0    0 -0.50062849691E+02 -0.30311813192E+02  0.53577929729E+02  0.79345381039E+02  0.00000000000E+00 0. -1.
         -5    1    5    5    0  502  0.50167696757E+02 -0.13482586171E+02  0.24825744888E+03  0.25367780520E+03  0.47000000000E+01 0.  1.
         13    1    6    6    0    0 -0.10723161431E+02  0.59565864391E+02  0.16587282530E+03  0.17656973853E+03  0.00000000000E+00 0. -1.
        -14    1    6    6    0    0  0.87564033003E+01  0.28744789152E+02  0.37178311137E+01  0.30278041059E+02  0.00000000000E+00 0.  1.
</event>
<event>
12    1  0.8226261E-002  0.2922810E+03  0.7818608E-02  0.1089296E+00
         21   -1    0    0  501  502  0.00000000000E+00  0.00000000000E+00  0.19181074375E+04  0.19181074375E+04  0.00000000000E+00 0.  1.
         21   -1    0    0  502  503 -0.00000000000E+00 -0.00000000000E+00 -0.45527539104E+02  0.45527539104E+02  0.00000000000E+00 0.  1.
         -6    2    1    2    0  503 -0.14209337273E+03 -0.19053978513E+03  0.78217994285E+03  0.83500518120E+03  0.17009483632E+03 0.  0.
        -24    2    3    3    0    0 -0.89825686797E+02 -0.84136453199E+02  0.59990783685E+03  0.61752232977E+03  0.79352493910E+02 0.  0.
          6    2    1    2  501    0  0.14209337273E+03  0.19053978513E+03  0.10903999556E+04  0.11286297954E+04  0.16833661434E+03 0.  0.
         24    2    5    5    0    0  0.11077216485E+03  0.18832855528E+03  0.10577291915E+04  0.10830734959E+04  0.80740558160E+02 0.  0.
          5    1    5    5  501    0  0.31321207882E+02  0.22112298465E+01  0.32670764028E+02  0.45556299485E+02  0.47000000000E+01 0. -1.
        -13    1    6    6    0    0  0.43008235788E+02  0.11133829225E+03  0.40108495536E+03  0.41846751974E+03  0.00000000000E+00 0.  1.
         14    1    6    6    0    0  0.67763929062E+02  0.76990263034E+02  0.65664423619E+03  0.66460597621E+03  0.00000000000E+00 0. -1.
         -5    1    3    3    0  503 -0.52267685934E+02 -0.10640333193E+03  0.18227210600E+03  0.21748285143E+03  0.47000000000E+01 0.  1.
         13    1    4    4    0    0 -0.38194045154E+02 -0.32673330651E+02  0.42597939027E+03  0.42893446184E+03  0.00000000000E+00 0. -1.
        -14    1    4    4    0    0 -0.51631641644E+02 -0.51463122548E+02  0.17392844658E+03  0.18858786793E+03  0.00000000000E+00 0.  1.
</event>
<event>
12    1  0.8226261E-002  0.1915263E+03  0.7818608E-02  0.1157633E+00
         21   -1    0    0  501  502  0.00000000000E+00  0.00000000000E+00  0.90056104168E+02  0.90056104168E+02  0.00000000000E+00 0.  1.
         21   -1    0    0  502  503 -0.00000000000E+00 -0.00000000000E+00 -0.48146420245E+03  0.48146420245E+03  0.00000000000E+00 0.  1.
         -6    2    1    2    0  503 -0.61731246877E+02 -0.50555170607E+02 -0.31059792683E+03  0.36364390359E+03  0.17146207846E+03 0.  0.
        -24    2    3    3    0    0 -0.67906072546E+02 -0.87080810037E+02 -0.16766572793E+03  0.21591457579E+03  0.79454424377E+02 0.  0.
          6    2    1    2  501    0  0.61731246877E+02  0.50555170607E+02 -0.80810171454E+02  0.20787640303E+03  0.17411416660E+03 0.  0.
         24    2    5    5    0    0  0.82289525549E+02  0.66642577949E+02 -0.10675117321E+03  0.17077555305E+03  0.80967137336E+02 0.  0.
          5    1    5    5  501    0 -0.20558278672E+02 -0.16087407342E+02  0.25941001755E+02  0.37100849977E+02  0.47000000000E+01 0. -1.
        -11    1    6    6    0    0  0.89971193555E+02  0.29210706831E+02 -0.69225932912E+02  0.11721907204E+03  0.00000000000E+00 0.  1.
         12    1    6    6    0    0 -0.76816680063E+01  0.37431871118E+02 -0.37525240298E+02  0.53556481010E+02  0.00000000000E+00 0. -1.
         -5    1    3    3    0  503  0.61748256689E+01  0.36525639430E+02 -0.14293219891E+03  0.14772932780E+03  0.47000000000E+01 0.  1.
         13    1    4    4    0    0 -0.10272375099E+02 -0.76020399185E+02 -0.84481744300E+02  0.11411304878E+03  0.00000000000E+00 0. -1.
        -14    1    4    4    0    0 -0.57633697447E+02 -0.11060410852E+02 -0.83183983625E+02  0.10180152701E+03  0.00000000000E+00 0.  1.
</event>
<event>
12    1  0.8226261E-002  0.2059950E+03  0.7818608E-02  0.1144922E+00
         21   -1    0    0  501  502  0.00000000000E+00  0.00000000000E+00  0.18086278988E+03  0.18086278988E+03  0.00000000000E+00 0. -1.
         21   -1    0    0  502  503 -0.00000000000E+00 -0.00000000000E+00 -0.30125631692E+03  0.30125631692E+03  0.00000000000E+00 0. -1.
         -6    2    1    2    0  503 -0.97533874577E+02 -0.51622326898E+02  0.53780996050E+02  0.21289982790E+03  0.17394315122E+03 0.  0.
        -24    2    3    3    0    0 -0.97034043029E+02  0.18408578794E+02  0.63409017455E+02  0.14205234114E+03  0.80023014496E+02 0.  0.
          6    2    1    2  501    0  0.97533874577E+02  0.51622326898E+02 -0.17417452310E+03  0.26921927890E+03  0.17310266986E+03 0.  0.
         24    2    5    5    0    0  0.61828969696E+01  0.57269619950E+02 -0.14008092091E+03  0.17143708861E+03  0.80311726179E+02 0.  0.
          5    1    5    5  501    0  0.91350977607E+02 -0.56472930519E+01 -0.34093602183E+02  0.97782190293E+02  0.47000000000E+01 0. -1.
        -11    1    6    6    0    0  0.11790680293E+02 -0.49978568508E+01  0.47733332372E+01  0.13666873273E+02  0.00000000000E+00 0.  1.
         12    1    6    6    0    0 -0.56077833235E+01  0.62267476800E+02 -0.14485425415E+03  0.15777021533E+03  0.00000000000E+00 0. -1.
         -5    1    3    3    0  503 -0.49983154763E+00 -0.70030905691E+02 -0.96280214045E+01  0.70847486756E+02  0.47000000000E+01 0.  1.
         11    1    4    4    0    0 -0.48981920478E+02 -0.63530802859E+01 -0.10488621282E+02  0.50493577207E+02  0.00000000000E+00 0. -1.
        -12    1    4    4    0    0 -0.48052122552E+02  0.24761659079E+02  0.73897638737E+02  0.91558763933E+02  0.00000000000E+00 0.  1.
</event>
<event>
12    1  0.8226261E-002  0.2047532E+03  0.7818608E-02  0.1145995E+00
         21   -1    0    0  503  502  0.00000000000E+00  0.00000000000E+00  0.35379582005E+02  0.35379582005E+02  0.00000000000E+00 0.  1.
         21   -1    0    0  501  503 -0.00000000000E+00 -0.00000000000E+00 -0.13472285870E+04  0.13472285870E+04  0.00000000000E+00 0.  1.
          6    2    1    2  501    0  0.27490091252E+02  0.10700345353E+03 -0.89866845702E+03  0.92147688827E+03  0.17119934520E+03 0.  0.
         24    2    3    3    0    0 -0.21180202083E+02  0.16772747192E+02 -0.25344309009E+03  0.26814064869E+03  0.83283140901E+02 0.  0.
         -6    2    1    2    0  502 -0.27490091252E+02 -0.10700345353E+03 -0.41318054801E+03  0.46113128077E+03  0.17239039609E+03 0.  0.
        -24    2    5    5    0    0 -0.12657248283E+02 -0.46697958148E+02 -0.81954253243E+02  0.12410054871E+03  0.79646351687E+02 0.  0.
          5    1    3    3  501    0  0.48670293335E+02  0.90230706334E+02 -0.64522536693E+03  0.65333623958E+03  0.47000000000E+01 0. -1.
        -13    1    4    4    0    0  0.30630503048E+02  0.74268750619E+01 -0.13318331678E+03  0.13686190872E+03  0.00000000000E+00 0.  1.
         14    1    4    4    0    0 -0.51810705131E+02  0.93458721298E+01 -0.12025977331E+03  0.13127873997E+03  0.00000000000E+00 0. -1.
         -5    1    5    5    0  502 -0.14832842969E+02 -0.60305495379E+02 -0.33122629477E+03  0.33703073205E+03  0.47000000000E+01 0.  1.
         13    1    6    6    0    0 -0.38771685166E+02 -0.32310145719E+02 -0.18080408690E+02  0.53610542484E+02  0.00000000000E+00 0. -1.
        -14    1    6    6    0    0  0.26114436883E+02 -0.14387812428E+02 -0.63873844553E+02  0.70490006230E+02  0.00000000000E+00 0.  1.
</event>
<event>
12    1  0.8226261E-002  0.1817126E+03  0.7818608E-02  0.1166389E+00
         21   -1    0    0  503  502  0.00000000000E+00  0.00000000000E+00  0.66464963216E+03  0.66464963216E+03  0.00000000000E+00 0.  1.
         21   -1    0    0  501  503 -0.00000000000E+00 -0.00000000000E+00 -0.62137590692E+02  0.62137590692E+02  0.00000000000E+00 0.  1.
          6    2    1    2  501    0 -0.35899673277E+02 -0.46172320904E+02  0.13745883719E+03  0.22784729330E+03  0.17204298120E+03 0.  0.
         24    2    3    3    0    0 -0.43458464598E+02 -0.60421193600E+02  0.20290015497E+02  0.10948011678E+03  0.77684312828E+02 0.  0.
         -6    2    1    2    0  502  0.35899673277E+02  0.46172320904E+02  0.46505320428E+03  0.49893992956E+03  0.17101432905E+03 0.  0.
        -24    2    5    5    0    0  0.11720805678E+02  0.44912361951E+02  0.11476183931E+03  0.14778136778E+03  0.80712795521E+02 0.  0.
          5    1    3    3  501    0  0.75587913207E+01  0.14248872696E+02  0.11716882170E+03  0.11836717652E+03  0.47000000000E+01 0. -1.
        -11    1    4    4    0    0 -0.26737847024E+01  0.36220822216E+01 -0.22077743405E+02  0.22532096176E+02  0.00000000000E+00 0.  1.
         12    1    4    4    0    0 -0.40784679896E+02 -0.64043275822E+02  0.42367758901E+02  0.86948020601E+02  0.00000000000E+00 0. -1.
         -5    1    5    5    0  502  0.24178867600E+02  0.12599589524E+01  0.35029136497E+03  0.35115856178E+03  0.47000000000E+01 0.  1.
         13    1    6    6    0    0  0.37444416507E+02  0.50021496592E+02  0.99340020519E+02  0.11735703697E+03  0.00000000000E+00 0. -1.
        -14    1    6    6    0    0 -0.25723610829E+02 -0.51091346401E+01  0.15421818787E+02  0.30424330815E+02  0.00000000000E+00 0.  1.
</event>
<event>
12    1  0.8226261E-002  0.2087648E+03  0.7818608E-02  0.1142957E+00
         21   -1    0    0  503  502  0.00000000000E+00  0.00000000000E+00  0.12229848103E+04  0.12229848103E+04  0.00000000000E+00 0.  1.
         21   -1    0    0  501  503 -0.00000000000E+00 -0.00000000000E+00 -0.41941427198E+02  0.41941427198E+02  0.00000000000E+00 0.  1.
          6    2    1    2  501    0 -0.10668463574E+03 -0.52031140305E+02  0.34108078116E+03  0.39989852658E+03  0.17173782698E+03 0.  0.
         24    2    3    3    0    0 -0.12336941724E+00 -0.50767589551E+01  0.81406849373E+02  0.11527129974E+03  0.81453107470E+02 0.  0.
         -6    2    1    2    0  502  0.10668463574E+03  0.52031140305E+02  0.83996260194E+03  0.86502771092E+03  0.16925400126E+03 0.  0.
        -24    2    5    5    0    0  0.21530636924E+01  0.34214903688E+02  0.20861472238E+03  0.22481953941E+03  0.76475012853E+02 0.  0.
          5    1    3    3  501    0 -0.10656126632E+03 -0.46954381350E+02  0.25967393179E+03  0.28462722684E+03  0.47000000000E+01 0. -1.
        -13    1    4    4    0    0  0.39468020076E+02  0.64482429295E+00  0.53543868658E+02  0.66521321980E+02  0.00000000000E+00 0.  1.
         14    1    4    4    0    0 -0.39591389493E+02 -0.57215832481E+01  0.27862980714E+02  0.48749977755E+02  0.00000000000E+00 0. -1.
         -5    1    5    5    0  502  0.10453157204E+03  0.17816236617E+02  0.63134787956E+03  0.64020817151E+03  0.47000000000E+01 0.  1.
         13    1    6    6    0    0  0.34251010833E+02  0.20494595798E+02  0.16042033404E+03  0.16531135404E+03  0.00000000000E+00 0. -1.
        -14    1    6    6    0    0 -0.32097947141E+02  0.13720307890E+02  0.48194388333E+02  0.59508185370E+02  0.00000000000E+00 0.  1.
</event>
<event>
12    1  0.8226261E-002  0.2575110E+03  0.7818608E-02  0.1108669E+00
         21   -1    0    0  501  502  0.00000000000E+00  0.00000000000E+00  0.77707340043E+02  0.77707340043E+02  0.00000000000E+00 0. -1.
         21   -1    0    0  502  503 -0.00000000000E+00 -0.00000000000E+00 -0.15834181277E+04  0.15834181277E+04  0.00000000000E+00 0. -1.
         -6    2    1    2    0  503 -0.18673326545E+03 -0.45577209394E+02 -0.13171091505E+04  0.13420463558E+04  0.17136310155E+03 0.  0.
        -24    2    3    3    0    0 -0.18156091562E+03 -0.21452981288E+02 -0.80978696323E+03  0.83410283217E+03  0.80919789530E+02 0.  0.
          6    2    1    2  501    0  0.18673326545E+03  0.45577209394E+02 -0.18860163722E+03  0.31907911192E+03  0.17115579938E+03 0.  0.
         24    2    5    5    0    0  0.12131551966E+03 -0.15362886365E+02 -0.17439672797E+03  0.22843118761E+03  0.82541596538E+02 0.  0.
          5    1    5    5  501    0  0.65417745787E+02  0.60940095759E+02 -0.14204909251E+02  0.90647924311E+02  0.47000000000E+01 0. -1.
        -13    1    6    6    0    0 -0.69823296234E+01  0.13627569243E+02 -0.25628062915E+02  0.29853997710E+02  0.00000000000E+00 0.  1.
         14    1    6    6    0    0  0.12829784928E+03 -0.28990455609E+02 -0.14876866505E+03  0.19857718990E+03  0.00000000000E+00 0. -1.
         -5    1    3    3    0  503 -0.51723498289E+01 -0.24124228106E+02 -0.50732218723E+03  0.50794352367E+03  0.47000000000E+01 0.  1.
         11    1    4    4    0    0 -0.10457240052E+03  0.17997574228E+02 -0.33190546043E+03  0.34845449386E+03  0.00000000000E+00 0. -1.
        -12    1    4    4    0    0 -0.76988515092E+02 -0.39450555516E+02 -0.47788150280E+03  0.48564833831E+03  0.00000000000E+00 0.  1.
</event>
<event>
12    1  0.8226261E-002  0.1963100E+03  0.7818608E-02  0.1153058E+00
         21   -1    0    0  503  502  0.00000000000E+00  0.00000000000E+00  0.14820552638E+04  0.14820552638E+04  0.00000000000E+00 0. -1.
         21   -1    0    0  501  503 -0.00000000000E+00 -0.00000000000E+00 -0.44876409278E+02  0.44876409278E+02  0.00000000000E+00 0.  1.
          6    2    1    2  501    0  0.19439469766E+02 -0.91902753242E+02  0.22131204518E+03  0.29531902124E+03  0.17149429707E+03 0.  0.
         24    2    3    3    0    0  0.26279380420E+02 -0.41513051117E+02  0.31680158105E+02  0.98931014850E+02  0.79810864132E+02 0.  0.
         -6    2    1    2    0  502 -0.19439469766E+02  0.91902753242E+02  0.12158668093E+04  0.12316126518E+04  0.17237638200E+03 0.  0.
        -24    2    5    5    0    0 -0.23522657529E+02  0.13137481948E+03  0.10243419165E+04  0.10359634990E+04  0.78302941932E+02 0.  0.
          5    1    3    3  501    0 -0.68399106544E+01 -0.50389702125E+02  0.18963188708E+03  0.19638800639E+03  0.47000000000E+01 0. -1.
        -13    1    4    4    0    0 -0.13326898075E+02 -0.17828293468E+02  0.45588934594E+02  0.50732683920E+02  0.00000000000E+00 0.  1.
         14    1    4    4    0    0  0.39606278495E+02 -0.23684757648E+02 -0.13908776489E+02  0.48198330931E+02  0.00000000000E+00 0. -1.
         -5    1    5    5    0  502  0.40831877634E+01 -0.39472066234E+02  0.19152489282E+03  0.19564915284E+03  0.47000000000E+01 0.  1.
         11    1    6    6    0    0  0.59668818786E+01  0.61372617436E+02  0.70586717652E+03  0.70855534204E+03  0.00000000000E+00 0. -1.
        -12    1    6    6    0    0 -0.29489539408E+02  0.70002202040E+02  0.31847474000E+03  0.32740815696E+03  0.00000000000E+00 0.  1.
</event>
<event>
12    1  0.8226261E-002  0.1929854E+03  0.7818608E-02  0.1155828E+00
         21   -1    0    0  501  502  0.00000000000E+00  0.00000000000E+00  0.29119520256E+03  0.29119520256E+03  0.00000000000E+00 0. -1.
         21   -1    0    0  502  503 -0.00000000000E+00 -0.00000000000E+00 -0.30927374970E+03  0.30927374970E+03  0.00000000000E+00 0. -1.
         -6    2    1    2    0  503  0.47092956450E+02  0.73484994351E+02 -0.23902290591E+03  0.30720563555E+03  0.17212077742E+03 0.  0.
        -24    2    3    3    0    0  0.60574196889E+02  0.65757272781E+02 -0.25625698057E+03  0.28352938471E+03  0.82024506415E+02 0.  0.
          6    2    1    2  501    0 -0.47092956450E+02 -0.73484994351E+02  0.22094435877E+03  0.29326331671E+03  0.17195689086E+03 0.  0.
         24    2    5    5    0    0 -0.86231358932E+02 -0.47063429321E+02  0.20950037591E+03  0.24444765948E+03  0.78825358075E+02 0.  0.
          5    1    5    5  501    0  0.39138402481E+02 -0.26421565030E+02  0.11443982858E+02  0.48815657232E+02  0.47000000000E+01 0. -1.
        -11    1    6    6    0    0 -0.13500914948E+02  0.12318329225E+02  0.42837895371E+01  0.18771435537E+02  0.00000000000E+00 0.  1.
         12    1    6    6    0    0 -0.72730443984E+02 -0.59381758546E+02  0.20521658637E+03  0.22567622394E+03  0.00000000000E+00 0. -1.
         -5    1    3    3    0  503 -0.13481240438E+02  0.77277215701E+01  0.17234074657E+02  0.23676250837E+02  0.47000000000E+01 0.  1.
         11    1    4    4    0    0 -0.15219349591E+02  0.35598637847E+01 -0.82953244221E+02  0.84412925307E+02  0.00000000000E+00 0. -1.
        -12    1    4    4    0    0  0.75793546480E+02  0.62197408996E+02 -0.17330373635E+03  0.19911645941E+03  0.00000000000E+00 0.  1.
</event>
<event>
12    1  0.8226261E-002  0.2544048E+03  0.7818608E-02  0.1112066E+00
         21   -1    0    0  503  502  0.00000000000E+00  0.00000000000E+00  0.12473326398E+03  0.12473326398E+03  0.00000000000E+00 0. -1.
         21   -1    0    0  501  503 -0.00000000000E+00 -0.00000000000E+00 -0.62303036283E+03  0.62303036283E+03  0.00000000000E+00 0. -1.
          6    2    1    2  501    0 -0.17415295140E+03 -0.85402639900E+01 -0.78840618395E+02  0.25718689919E+03  0.17183443023E+03 0.  0.
         24    2    3    3    0    0 -0.37188325691E+02  0.44799162694E+02 -0.24844965783E+02  0.10052795869E+03  0.78093928115E+02 0.  0.
         -6    2    1    2    0  502  0.17415295140E+03  0.85402639900E+01 -0.41945648046E+03  0.49057672762E+03  0.18525549950E+03 0.  0.
        -24    2    5    5    0    0  0.18960284226E+03  0.46882452345E+02 -0.32565234254E+03  0.38796031165E+03  0.79476745574E+02 0.  0.
          5    1    3    3  501    0 -0.13696462571E+03 -0.53339426684E+02 -0.53995652612E+02  0.15665894049E+03  0.47000000000E+01 0. -1.
        -13    1    4    4    0    0 -0.19654941673E+02  0.59981532921E+02 -0.38185768296E+02  0.73771633600E+02  0.00000000000E+00 0.  1.
         14    1    4    4    0    0 -0.17533384018E+02 -0.15182370227E+02  0.13340802513E+02  0.26756325093E+02  0.00000000000E+00 0. -1.
         -5    1    5    5    0  502 -0.15449890856E+02 -0.38342188355E+02 -0.93804137924E+02  0.10261641597E+03  0.47000000000E+01 0.  1.
         13    1    6    6    0    0  0.83493917514E+02  0.20797198467E+02 -0.21888381656E+03  0.23518903647E+03  0.00000000000E+00 0. -1.
        -14    1    6    6    0    0  0.10610892474E+03  0.26085253879E+02 -0.10676852598E+03  0.15277127518E+03  0.00000000000E+00 0.  1.
</event>
<event>
12    1  0.8226261E-002  0.1734981E+03  0.7818608E-02  0.1174347E+00
         21   -1    0    0  501  502  0.00000000000E+00  0.00000000000E+00  0.16630716156E+04  0.16630716156E+04  0.00000000000E+00 0.  1.
         21   -1    0    0  502  503 -0.00000000000E+00 -0.00000000000E+00 -0.18460561343E+02  0.18460561343E+02  0.00000000000E+00 0.  1.
         -6    2    1    2    0  503 -0.18517918088E+02 -0.22556010250E+01  0.69750149456E+03  0.71866245655E+03  0.17210284865E+03 0.  0.
        -24    2    3    3    0    0  0.31536091061E+02 -0.39608625559E+02  0.55218014966E+03  0.56041886092E+03  0.81258930218E+02 0.  0.
          6    2    1    2  501    0  0.18517918088E+02  0.22556010250E+01  0.94710955969E+03  0.96286972039E+03  0.17249225882E+03 0.  0.
         24    2    5    5    0    0  0.53294020339E+02 -0.50348923516E+02  0.66576946912E+03  0.67451065628E+03  0.79626457410E+02 0.  0.
          5    1    5    5  501    0 -0.34776102250E+02  0.52604524541E+02  0.28134009057E+03  0.28835906411E+03  0.47000000000E+01 0. -1.
        -13    1    6    6    0    0  0.21094390687E+02 -0.65403764165E+02  0.51734173227E+03  0.52188609258E+03  0.00000000000E+00 0.  1.
         14    1    6    6    0    0  0.32199629652E+02  0.15054840649E+02  0.14842773686E+03  0.15262456370E+03  0.00000000000E+00 0. -1.
         -5    1    3    3    0  503 -0.50054009150E+02  0.37353024534E+02  0.14532134490E+03  0.15824359563E+03  0.47000000000E+01 0.  1.
         11    1    4    4    0    0  0.13062742741E+02 -0.32704350452E+02  0.75269117825E+02  0.83100239978E+02  0.00000000000E+00 0. -1.
        -12    1    4    4    0    0  0.18473348321E+02 -0.69042751071E+01  0.47691103184E+03  0.47731862095E+03  0.00000000000E+00 0.  1.
</event>
<event>
12    1  0.8226261E-002  0.3427999E+03  0.7818608E-02  0.1065772E+00
         21   -1    0    0  503  502  0.00000000000E+00  0.00000000000E+00  0.20562905817E+03  0.20562905817E+03  0.00000000000E+00 0.  1.
         21   -1    0    0  501  503 -0.00000000000E+00 -0.00000000000E+00 -0.11181549734E+04  0.11181549734E+04  0.00000000000E+00 0.  1.
          6    2    1    2  501    0  0.25203868583E+03  0.15318249240E+03 -0.91963480976E+03  0.98091044991E+03  0.17166465067E+03 0.  0.
         24    2    3    3    0    0  0.64818461301E+02  0.49560878100E+01 -0.31583983053E+03  0.33159315734E+03  0.77286659347E+02 0.  0.
         -6    2    1    2    0  502 -0.25203868583E+03 -0.15318249240E+03  0.71088945107E+01  0.34287358167E+03  0.17470942016E+03 0.  0.
        -24    2    5    5    0    0 -0.24836578187E+03 -0.17956244215E+03  0.93882116373E+01  0.31573178256E+03  0.75300649183E+02 0.  0.
          5    1    3    3  501    0  0.18722022453E+03  0.14822640459E+03 -0.60379497924E+03  0.64931729258E+03  0.47000000000E+01 0. -1.
        -11    1    4    4    0    0  0.50023732314E+02  0.31625025532E+02 -0.12464814208E+03  0.13798433012E+03  0.00000000000E+00 0.  1.
         12    1    4    4    0    0  0.14794728987E+02 -0.26668937722E+02 -0.19119168845E+03  0.19360882722E+03  0.00000000000E+00 0. -1.
         -5    1    5    5    0  502 -0.36729039620E+01  0.26379949750E+02 -0.22793171266E+01  0.27141799109E+02  0.47000000000E+01 0.  1.
         11    1    6    6    0    0 -0.42991342814E+01 -0.21341372936E+02 -0.10535174652E+02  0.24185257065E+02  0.00000000000E+00 0. -1.
        -12    1    6    6    0    0 -0.24406664759E+03 -0.15822106922E+03  0.19923386289E+02  0.29154652550E+03  0.00000000000E+00 0.  1.
</event>
<event>
12    1  0.8226261E-002  0.2147084E+03  0.7818608E-02  0.1139309E+00
         21   -1    0    0  501  502  0.00000000000E+00  0.00000000000E+00  0.44776900329E+04  0.44776900329E+04  0.00000000000E+00 0. -1.
         21   -1    0    0  502  503 -0.00000000000E+00 -0.00000000000E+00 -0.10465575395E+02  0.10465575395E+02  0.00000000000E+00 0. -1.
         -6    2    1    2    0  503 -0.37865440344E+02 -0.11147864835E+03  0.16997244107E+04  0.17123392925E+04  0.17082593315E+03 0.  0.
        -24    2    3    3    0    0 -0.16083203512E+02  0.19829340227E+00  0.42858025234E+03  0.43610429585E+03  0.79039328202E+02 0.  0.
          6    2    1    2  501    0  0.37865440344E+02  0.11147864835E+03  0.27675000467E+04  0.27758163158E+04  0.17955063292E+03 0.  0.
         24    2    5    5    0    0 -0.21579757478E+01  0.85966043310E+02  0.89128867674E+03  0.89899880689E+03  0.80053307534E+02 0.  0.
          5    1    5    5  501    0  0.40023416092E+02  0.25512605045E+02  0.18762113700E+04  0.18768175089E+04  0.47000000000E+01 0. -1.
        -13    1    6    6    0    0  0.23063580158E+02  0.45588755151E+02  0.21300891722E+03  0.21905036440E+03  0.00000000000E+00 0.  1.
         14    1    6    6    0    0 -0.25221555906E+02  0.40377288159E+02  0.67827975952E+03  0.67994844250E+03  0.00000000000E+00 0. -1.
         -5    1    3    3    0  503 -0.21782236832E+02 -0.11167694176E+03  0.12711441584E+04  0.12762349966E+04  0.47000000000E+01 0.  1.
         13    1    4    4    0    0 -0.35637417055E+02 -0.13462567509E+02  0.10590134210E+03  0.11254492648E+03  0.00000000000E+00 0. -1.
        -14    1    4    4    0    0  0.19554213543E+02  0.13660860912E+02  0.32267891025E+03  0.32355936937E+03  0.00000000000E+00 0.  1.
</event>
<event>
12    1  0.8226261E-002  0.2685494E+03  0.7818608E-02  0.1102441E+00
         21   -1    0    0  501  502  0.00000000000E+00  0.00000000000E+00  0.11987637029E+03  0.11987637029E+03  0.00000000000E+00 0.  1.
         21   -1    0    0  502  503 -0.00000000000E+00 -0.00000000000E+00 -0.74880103640E+03  0.74880103640E+03  0.00000000000E+00 0.  1.
         -6    2    1    2    0  503  0.44887109653E+02  0.20325559306E+03 -0.11966504328E+03  0.29400423394E+03  0.16967933954E+03 0.  0.
        -24    2    3    3    0    0 -0.26282252222E+02  0.10436259426E+03 -0.13698657653E+02  0.13246207794E+03  0.76001585563E+02 0.  0.
          6    2    1    2  501    0 -0.44887109653E+02 -0.20325559306E+03 -0.50925962283E+03  0.57467317276E+03  0.16606084225E+03 0.  0.
         24    2    5    5    0    0  0.12197634322E+02 -0.10647785298E+03 -0.16678034471E+03  0.21420300075E+03  0.81122911014E+02 0.  0.
          5    1    5    5  501    0 -0.57084743974E+02 -0.96777740080E+02 -0.34247927812E+03  0.36047017201E+03  0.47000000000E+01 0. -1.
        -11    1    6    6    0    0 -0.32339107035E+02 -0.69012513651E+02 -0.95015941992E+02  0.12180547655E+03  0.00000000000E+00 0.  1.
         12    1    6    6    0    0  0.44536741357E+02 -0.37465339326E+02 -0.71764402718E+02  0.92397524204E+02  0.00000000000E+00 0. -1.
         -5    1    3    3    0  503  0.71169361875E+02  0.98892998800E+02 -0.10596638563E+03  0.16154215600E+03  0.47000000000E+01 0.  1.
         13    1    4    4    0    0  0.97531251788E+01  0.52621422587E+02  0.24373185997E+02  0.58806375177E+02  0.00000000000E+00 0. -1.
        -14    1    4    4    0    0 -0.36035377401E+02  0.51741171671E+02 -0.38071843650E+02  0.73655702761E+02  0.00000000000E+00 0.  1.
</event>
<event>
12    1  0.8226261E-002  0.1776007E+03  0.7818608E-02  0.1170331E+00
         21   -1    0    0  501  502  0.00000000000E+00  0.00000000000E+00  0.34249020902E+02  0.34249020902E+02  0.00000000000E+00 0.  1.
         21   -1    0    0  502  503 -0.00000000000E+00 -0.00000000000E+00 -0.91892568150E+03  0.91892568150E+03  0.00000000000E+00 0.  1.
         -6    2    1    2    0  503  0.14823733908E+02 -0.38398606363E+02 -0.42182833030E+03  0.45769109973E+03  0.17276517725E+03 0.  0.
        -24    2    3    3    0    0  0.22473793866E+02  0.39764724108E+02 -0.16394911137E+03  0.18807691018E+03  0.80045664040E+02 0.  0.
          6    2    1    2  501    0 -0.14823733908E+02  0.38398606363E+02 -0.46284833029E+03  0.49548360267E+03  0.17199194051E+03 0.  0.
         24    2    5    5    0    0 -0.29144681426E+02 -0.33960080535E+02 -0.16640451770E+03  0.18996454740E+03  0.79958528206E+02 0.  0.
          5    1    5    5  501    0  0.14320947518E+02  0.72358686897E+02 -0.29644381259E+03  0.30551905527E+03  0.47000000000E+01 0. -1.
        -11    1    6    6    0    0  0.35715333836E+00  0.20705803208E+02 -0.12976877947E+02  0.24438846254E+02  0.00000000000E+00 0.  1.
         12    1    6    6    0    0 -0.29501834765E+02 -0.54665883742E+02 -0.15342763976E+03  0.16552570115E+03  0.00000000000E+00 0. -1.
         -5    1    3    3    0  503 -0.76500599582E+01 -0.78163330470E+02 -0.25787921893E+03  0.26961418955E+03  0.47000000000E+01 0.  1.
         11    1    4    4    0    0  0.39296212729E+02  0.30905092527E+02 -0.16131301790E+03  0.16888222767E+03  0.00000000000E+00 0. -1.
        -12    1    4    4    0    0 -0.16822418863E+02  0.88596315801E+01 -0.26360934731E+01  0.19194682517E+02  0.00000000000E+00 0.  1.
</event>
<event>
12    1  0.8226261E-002  0.1765851E+03  0.7818608E-02  0.1171200E+00
         21   -1    0    0  501  502  0.00000000000E+00  0.00000000000E+00  0.17423736792E+03  0.17423736792E+03  0.00000000000E+00 0.  1.
         21   -1    0    0  502  503 -0.00000000000E+00 -0.00000000000E+00 -0.24017716054E+03  0.24017716054E+03  0.00000000000E+00 0.  1.
         -6    2    1    2    0  503 -0.10654012718E+01  0.37918505015E+02 -0.13776678426E+03  0.22396868653E+03  0.17246256868E+03 0.  0.
        -24    2    3    3    0    0 -0.22245525616E+02  0.80769183641E+02 -0.12168430202E+03  0.17331777774E+03  0.90628131873E+02 0.  0.
          6    2    1    2  501    0  0.10654012718E+01 -0.37918505015E+02  0.71826991633E+02  0.19044584194E+03  0.17225432907E+03 0.  0.
         24    2    5    5    0    0 -0.57649499968E+02 -0.98032182723E+01  0.73720161646E+02  0.12514972361E+03  0.82511957626E+02 0.  0.
          5    1    5    5  501    0  0.58714901240E+02 -0.28115286743E+02 -0.18931700132E+01  0.65296118329E+02  0.47000000000E+01 0. -1.
        -11    1    6    6    0    0  0.20318652297E+01  0.55222639548E+01  0.62183604124E+02  0.62461384049E+02  0.00000000000E+00 0.  1.
         12    1    6    6    0    0 -0.59681365197E+02 -0.15325482227E+02  0.11536557522E+02  0.62688339560E+02  0.00000000000E+00 0. -1.
         -5    1    3    3    0  503  0.21180124344E+02 -0.42850678626E+02 -0.16082482237E+02  0.50650908786E+02  0.47000000000E+01 0.  1.
         11    1    4    4    0    0 -0.46966565944E+02  0.31718237064E+02 -0.24622282787E+02  0.61791275183E+02  0.00000000000E+00 0. -1.
        -12    1    4    4    0    0  0.24721040329E+02  0.49050946577E+02 -0.97062019234E+02  0.11152650256E+03  0.00000000000E+00 0.  1.
</event>
<event>
12    1  0.8226261E-002  0.1894296E+03  0.7818608E-02  0.1162250E+00
         21   -1    0    0  503  502  0.00000000000E+00  0.00000000000E+00  0.52691706981E+02  0.52691706981E+02  0.00000000000E+00 0.  1.
         21   -1    0    0  501  503 -0.00000000000E+00 -0.00000000000E+00 -0.68425568565E+03  0.68425568565E+03  0.00000000000E+00 0.  1.
          6    2    1    2  501    0  0.15107172308E+02  0.67122924122E+01 -0.42861930669E+03  0.46861295143E+03  0.18870693326E+03 0.  0.
         24    2    3    3    0    0 -0.46679157203E+02 -0.14256341410E+02 -0.11431948683E+03  0.14757759376E+03  0.79548815964E+02 0.  0.
         -6    2    1    2    0  502 -0.15107172308E+02 -0.67122924122E+01 -0.20294467198E+03  0.26833444120E+03  0.17476713342E+03 0.  0.
        -24    2    5    5    0    0 -0.25814522470E+02  0.60777703962E+00 -0.22608651884E+03  0.24139254371E+03  0.80551146458E+02 0.  0.
          5    1    3    3  501    0  0.61786329511E+02  0.20968633822E+02 -0.31429981986E+03  0.32103535768E+03  0.47000000000E+01 0. -1.
        -13    1    4    4    0    0 -0.62080777691E+02 -0.46199193797E+01 -0.11342775954E+03  0.12938787906E+03  0.00000000000E+00 0.  1.
         14    1    4    4    0    0  0.15401620487E+02 -0.96364220301E+01 -0.89172729657E+00  0.18189714697E+02  0.00000000000E+00 0. -1.
         -5    1    5    5    0  502  0.10707350163E+02 -0.73200694519E+01  0.23141846856E+02  0.26941897487E+02  0.47000000000E+01 0.  1.
         13    1    6    6    0    0 -0.24556652358E+02 -0.38133726204E+02 -0.13447804797E+03  0.14192094854E+03  0.00000000000E+00 0. -1.
        -14    1    6    6    0    0 -0.12578701127E+01  0.38741503243E+02 -0.91608470873E+02  0.99471595174E+02  0.00000000000E+00 0.  1.
</event>
<event>
12    1  0.8226261E-002  0.1762107E+03  0.7818608E-02  0.1172165E+00
         21   -1    0    0  503  502  0.00000000000E+00  0.00000000000E+00  0.99574725445E+02  0.99574725445E+02  0.00000000000E+00 0.  1.
         21   -1    0    0  501  503 -0.00000000000E+00 -0.00000000000E+00 -0.52966900055E+03  0.52966900055E+03  0.00000000000E+00 0.  1.
          6    2    1    2  501    0  0.50115813419E+00 -0.35484927163E+02 -0.41981497668E+03  0.45529641091E+03  0.17260004613E+03 0.  0.
         24    2    3    3    0    0 -0.28750444528E+02  0.42879569020E+02 -0.25017327439E+03  0.26609533354E+03  0.74530623325E+02 0.  0.
         -6    2    1    2    0  502 -0.50115813419E+00  0.35484927163E+02 -0.10279298428E+02  0.17394731509E+03  0.16997815517E+03 0.  0.
        -24    2    5    5    0    0  0.59492068660E+02 -0.44164397963E+00 -0.24888902284E+02  0.10235516259E+03  0.79483460976E+02 0.  0.
          5    1    3    3  501    0  0.29251602662E+02 -0.78364496183E+02 -0.16964170229E+03  0.18920107737E+03  0.47000000000E+01 0. -1.
        -13    1    4    4    0    0  0.73360812793E+01  0.30422867858E+01 -0.16621496063E+03  0.16640458748E+03  0.00000000000E+00 0.  1.
         14    1    4    4    0    0 -0.36086525808E+02  0.39837282234E+02 -0.83958313763E+02  0.99690746063E+02  0.00000000000E+00 0. -1.
         -5    1    5    5    0  502 -0.59993226795E+02  0.35926571143E+02  0.14609603856E+02  0.71592152504E+02  0.47000000000E+01 0.  1.
         13    1    6    6    0    0  0.32954915470E+01 -0.12455303474E+02 -0.40751509381E+02  0.42739681398E+02  0.00000000000E+00 0. -1.
        -14    1    6    6    0    0  0.56196577113E+02  0.12013659494E+02  0.15862607097E+02  0.59615481191E+02  0.00000000000E+00 0.  1.
</event>
<event>
12    1  0.8226261E-002  0.2110247E+03  0.7818608E-02  0.1140870E+00
         21   -1    0    0  503  502  0.00000000000E+00  0.00000000000E+00  0.42630248571E+03  0.42630248571E+03  0.00000000000E+00 0.  1.
         21   -1    0    0  501  503 -0.00000000000E+00 -0.00000000000E+00 -0.14238890311E+03  0.14238890311E+03  0.00000000000E+00 0.  1.
          6    2    1    2  501    0  0.10151081473E+03 -0.67111415807E+02 -0.54870548536E+01  0.21052359007E+03  0.17170231963E+03 0.  0.
         24    2    3    3    0    0  0.12756076866E+03 -0.43987169636E+02  0.30605150660E+02  0.16014434672E+03  0.80640658144E+02 0.  0.
         -6    2    1    2    0  502 -0.10151081473E+03  0.67111415807E+02  0.28940063745E+03  0.35816779876E+03  0.17240375713E+03 0.  0.
        -24    2    5    5    0    0 -0.80484122198E+02  0.44712927838E+02  0.78520180928E+02  0.14500947496E+03  0.79908630152E+02 0.  0.
          5    1    3    3  501    0 -0.26049953936E+02 -0.23124246171E+02 -0.36092205513E+02  0.50379243343E+02  0.47000000000E+01 0. -1.
        -13    1    4    4    0    0  0.96693575767E+01 -0.36685659216E+02  0.15821783333E+02  0.41105509313E+02  0.00000000000E+00 0.  1.
         14    1    4    4    0    0  0.11789141109E+03 -0.73015104194E+01  0.14783367327E+02  0.11903883741E+03  0.00000000000E+00 0. -1.
         -5    1    5    5    0  502 -0.21026692528E+02  0.22398487969E+02  0.21088045652E+03  0.21315832380E+03  0.47000000000E+01 0.  1.
         11    1    6    6    0    0  0.11820658904E+02  0.14886184905E+02  0.32481118932E+02  0.37634419951E+02  0.00000000000E+00 0. -1.
        -12    1    6    6    0    0 -0.92304781102E+02  0.29826742933E+02  0.46039061996E+02  0.10737505501E+03  0.00000000000E+00 0.  1.
</event>
<event>
12    1  0.8226261E-002  0.2923922E+03  0.7818608E-02  0.1089307E+00
         21   -1    0    0  503  502  0.00000000000E+00  0.00000000000E+00  0.41507561879E+03  0.41507561879E+03  0.00000000000E+00 0. -1.
         21   -1    0    0  501  503 -0.00000000000E+00 -0.00000000000E+00 -0.20490724034E+03  0.20490724034E+03  0.00000000000E+00 0.  1.
          6    2    1    2  501    0  0.23435898229E+03 -0.14080129823E+02  0.10810303965E+03  0.31028864956E+03  0.17166943882E+03 0.  0.
         24    2    3    3    0    0  0.23451362262E+03 -0.38672635605E+02  0.12500725895E+03  0.28007842141E+03  0.79529211060E+02 0.  0.
         -6    2    1    2    0  502 -0.23435898229E+03  0.14080129823E+02  0.10206533879E+03  0.30969420957E+03  0.17427216479E+03 0.  0.
        -24    2    5    5    0    0 -0.54124550385E+02 -0.36162366841E+02  0.22889764689E+02  0.10647112906E+03  0.81086227353E+02 0.  0.
          5    1    3    3  501    0 -0.15464032740E+00  0.24592505782E+02 -0.16904219300E+02  0.30210228142E+02  0.47000000000E+01 0. -1.
        -13    1    4    4    0    0  0.10916587390E+02 -0.13331772728E+02 -0.76563870549E+01  0.18855458283E+02  0.00000000000E+00 0.  1.
         14    1    4    4    0    0  0.22359703523E+03 -0.25340862877E+02  0.13266364601E+03  0.26122296313E+03  0.00000000000E+00 0. -1.
         -5    1    5    5    0  502 -0.18023443191E+03  0.50242496664E+02  0.79175574106E+02  0.20322308051E+03  0.47000000000E+01 0.  1.
         11    1    6    6    0    0 -0.46592192813E+02 -0.50122603398E+02  0.43027532462E+02  0.80836107973E+02  0.00000000000E+00 0. -1.
        -12    1    6    6    0    0 -0.75323575720E+01  0.13960236557E+02 -0.20137767773E+02  0.25635021089E+02  0.00000000000E+00 0.  1.
</event>
<event>
12    1  0.8226261E-002  0.2420758E+03  0.7818608E-02  0.1118885E+00
         21   -1    0    0  501  502  0.00000000000E+00  0.00000000000E+00  0.48017922393E+02  0.48017922393E+02  0.00000000000E+00 0. -1.
         21   -1    0    0  502  503 -0.00000000000E+00 -0.00000000000E+00 -0.12076729461E+04  0.12076729461E+04  0.00000000000E+00 0. -1.
         -6    2    1    2    0  503 -0.86789502601E+02 -0.14209698497E+03 -0.60506391213E+03  0.65169243429E+03  0.17571772891E+03 0.  0.
        -24    2    3    3    0    0 -0.55748026688E+02 -0.16885856415E+03 -0.54517451512E+03  0.57896977468E+03  0.79810343233E+02 0.  0.
          6    2    1    2  501    0  0.86789502601E+02  0.14209698497E+03 -0.55459111163E+03  0.60399843425E+03  0.17181046703E+03 0.  0.
         24    2    5    5    0    0  0.74214803467E+02  0.97392145536E+02 -0.21215587243E+03  0.25839659865E+03  0.82253394589E+02 0.  0.
          5    1    5    5  501    0  0.12574699134E+02  0.44704839429E+02 -0.34243523919E+03  0.34560183560E+03  0.47000000000E+01 0. -1.
        -11    1    6    6    0    0  0.67009218597E+01  0.75825538160E+02 -0.12058993015E+03  0.14260556036E+03  0.00000000000E+00 0.  1.
         12    1    6    6    0    0  0.67513881607E+02  0.21566607377E+02 -0.91565942280E+02  0.11579103829E+03  0.00000000000E+00 0. -1.
         -5    1    3    3    0  503 -0.31041475914E+02  0.26761579183E+02 -0.59889397005E+02  0.72722659611E+02  0.47000000000E+01 0.  1.
         11    1    4    4    0    0 -0.46734809849E+02 -0.11593748620E+03 -0.25640616557E+03  0.28525386045E+03  0.00000000000E+00 0. -1.
        -12    1    4    4    0    0 -0.90132168385E+01 -0.52921077945E+02 -0.28876834955E+03  0.29371591423E+03  0.00000000000E+00 0.  1.
</event>
<event>
12    1  0.8226261E-002  0.1819606E+03  0.7818608E-02  0.1165938E+00
         21   -1    0    0  503  502  0.00000000000E+00  0.00000000000E+00  0.13404444508E+04  0.13404444508E+04  0.00000000000E+00 0.  1.
         21   -1    0    0  501  503 -0.00000000000E+00 -0.00000000000E+00 -0.42835044614E+02  0.42835044614E+02  0.00000000000E+00 0.  1.
          6    2    1    2  501    0  0.22892227732E+01  0.59648186628E+02  0.19872943156E+03  0.26944949424E+03  0.17189094295E+03 0.  0.
         24    2    3    3    0    0  0.56760548340E+02  0.10070617764E+02  0.15669495493E+03  0.18451394297E+03  0.78542402953E+02 0.  0.
         -6    2    1    2    0  502 -0.22892227732E+01 -0.59648186628E+02  0.10988799746E+04  0.11138300012E+04  0.17180490730E+03 0.  0.
        -24    2    5    5    0    0 -0.82473174772E+01 -0.45791148978E+02  0.28005166339E+03  0.29484928732E+03  0.79638687172E+02 0.  0.
          5    1    3    3  501    0 -0.54471325566E+02  0.49577568865E+02  0.42034476635E+02  0.84935551269E+02  0.47000000000E+01 0. -1.
        -11    1    4    4    0    0  0.69809790507E+02  0.19227820647E+02  0.87839493636E+02  0.11383713181E+03  0.00000000000E+00 0.  1.
         12    1    4    4    0    0 -0.13049242168E+02 -0.91572028831E+01  0.68855461294E+02  0.70676811161E+02  0.00000000000E+00 0. -1.
         -5    1    5    5    0  502  0.59580947040E+01 -0.13857037651E+02  0.81882831123E+03  0.81898071385E+03  0.47000000000E+01 0.  1.
         13    1    6    6    0    0  0.22076115010E+01  0.19654008418E+02  0.11999368082E+03  0.12161265161E+03  0.00000000000E+00 0. -1.
        -14    1    6    6    0    0 -0.10454928978E+02 -0.65445157395E+02  0.16005798257E+03  0.17323663571E+03  0.00000000000E+00 0.  1.
</event>
<event>
12    1  0.8226261E-002  0.1958329E+03  0.7818608E-02  0.1153362E+00
         21   -1    0    0  503  502  0.00000000000E+00  0.00000000000E+00  0.60925003574E+02  0.60925003574E+02  0.00000000000E+00 0. -1.
         21   -1    0    0  501  503 -0.00000000000E+00 -0.00000000000E+00 -0.68815776758E+03  0.68815776758E+03  0.00000000000E+00 0. -1.
          6    2    1    2  501    0  0.74129393283E+02  0.53793484099E+02 -0.42399765481E+03  0.46703804328E+03  0.17309424229E+03 0.  0.
         24    2    3    3    0    0  0.15729920544E+02  0.73942995392E+02 -0.15053570876E+03  0.18664541293E+03  0.80377320109E+02 0.  0.
         -6    2    1    2    0  502 -0.74129393283E+02 -0.53793484099E+02 -0.20323510920E+03  0.28204472787E+03  0.17278834749E+03 0.  0.
        -24    2    5    5    0    0 -0.18002627745E+02 -0.60746562175E+02 -0.20019191367E+03  0.22521242945E+03  0.81422335126E+02 0.  0.
          5    1    3    3  501    0  0.58399472739E+02 -0.20149511293E+02 -0.27346194605E+03  0.28039263035E+03  0.47000000000E+01 0. -1.
        -13    1    4    4    0    0  0.43251068618E+02  0.50583668731E+02 -0.61692678352E+02  0.90748823910E+02  0.00000000000E+00 0.  1.
         14    1    4    4    0    0 -0.27521148074E+02  0.23359326661E+02 -0.88843030409E+02  0.95896589019E+02  0.00000000000E+00 0. -1.
         -5    1    5    5    0  502 -0.56126765539E+02  0.69530780763E+01 -0.30431955258E+01  0.56832298419E+02  0.47000000000E+01 0.  1.
         11    1    6    6    0    0 -0.37566954970E+02  0.14059545894E+00 -0.94288207988E+02  0.10149661097E+03  0.00000000000E+00 0. -1.
        -12    1    6    6    0    0  0.19564327225E+02 -0.60887157634E+02 -0.10590370568E+03  0.12371581848E+03  0.00000000000E+00 0.  1.
</event>
<event>
12    1  0.8226261E-002  0.1859474E+03  0.7818608E-02  0.1162843E+00
         21   -1    0    0  503  502  0.00000000000E+00  0.00000000000E+00  0.55408757103E+02  0.55408757103E+02  0.00000000000E+00 0. -1.
         21   -1    0    0  501  503 -0.00000000000E+00 -0.00000000000E+00 -0.86168755552E+03  0.86168755552E+03  0.00000000000E+00 0. -1.
          6    2    1    2  501    0  0.46777669953E+02 -0.36959866802E+02 -0.15973451861E+03  0.24513575002E+03  0.17613130711E+03 0.  0.
         24    2    3    3    0    0  0.18873130777E+02 -0.19335821716E+02 -0.18564360633E+03  0.20291441538E+03  0.77334612774E+02 0.  0.
         -6    2    1    2    0  502 -0.46777669953E+02  0.36959866802E+02 -0.64654427981E+03  0.67196056260E+03  0.17308180083E+03 0.  0.
        -24    2    5    5    0    0 -0.79448231402E+02 -0.20292522537E+02 -0.34479004551E+03  0.36305457433E+03  0.78769540549E+02 0.  0.
          5    1    3    3  501    0  0.27904539176E+02 -0.17624045086E+02  0.25909087722E+02  0.42221334636E+02  0.47000000000E+01 0. -1.
        -11    1    4    4    0    0 -0.17675886943E+02  0.20576359935E+02 -0.74754477703E+02  0.79523930386E+02  0.00000000000E+00 0.  1.
         12    1    4    4    0    0  0.36549017721E+02 -0.39912181651E+02 -0.11088912862E+03  0.12339048500E+03  0.00000000000E+00 0. -1.
         -5    1    5    5    0  502  0.32670561449E+02  0.57252389339E+02 -0.30175423430E+03  0.30890598827E+03  0.47000000000E+01 0.  1.
         11    1    6    6    0    0 -0.49111264451E+02 -0.40957155184E+02 -0.29093408562E+03  0.29787924908E+03  0.00000000000E+00 0. -1.
        -12    1    6    6    0    0 -0.30336966952E+02  0.20664632647E+02 -0.53855959887E+02  0.65175325251E+02  0.00000000000E+00 0.  1.
</event>
<event>
12    1  0.8226261E-002  0.2014589E+03  0.7818608E-02  0.1149309E+00
         21   -1    0    0  501  502  0.00000000000E+00  0.00000000000E+00  0.51459579114E+03  0.51459579114E+03  0.00000000000E+00 0. -1.
         21   -1    0    0  502  503 -0.00000000000E+00 -0.00000000000E+00 -0.11064370585E+03  0.11064370585E+03  0.00000000000E+00 0. -1.
         -6    2    1    2    0  503  0.98463416358E+02 -0.13443104910E+02  0.31960154451E+02  0.20397825377E+03  0.17524244665E+03 0.  0.
        -24    2    3    3    0    0  0.11700475481E+03 -0.30565654561E+02  0.67917385045E+02  0.15979708843E+03  0.79359727781E+02 0.  0.
          6    2    1    2  501    0 -0.98463416358E+02  0.13443104910E+02  0.37199193084E+03  0.42126124323E+03  0.17090136632E+03 0.  0.
         24    2    5    5    0    0 -0.33561691137E+02  0.36218914342E+02  0.86073520931E+02  0.12714834220E+03  0.79497503418E+02 0.  0.
          5    1    5    5  501    0 -0.64901725222E+02 -0.22775809433E+02  0.28591840991E+03  0.29411290104E+03  0.47000000000E+01 0. -1.
        -13    1    6    6    0    0  0.26078863254E+02  0.61619242234E+01  0.24363103063E+02  0.36216532269E+02  0.00000000000E+00 0.  1.
         14    1    6    6    0    0 -0.59640554391E+02  0.30056990119E+02  0.61710417868E+02  0.90931809927E+02  0.00000000000E+00 0. -1.
         -5    1    3    3    0  503 -0.18541338453E+02  0.17122549651E+02 -0.35957230594E+02  0.44181165333E+02  0.47000000000E+01 0.  1.
         11    1    4    4    0    0  0.95821405009E+02  0.11438976691E+02  0.54723620985E+02  0.11093812032E+03  0.00000000000E+00 0. -1.
        -12    1    4    4    0    0  0.21183349802E+02 -0.42004631252E+02  0.13193764060E+02  0.48858968118E+02  0.00000000000E+00 0.  1.
</event>
<event>
12    1  0.8226261E-002  0.1826630E+03  0.7818608E-02  0.1165671E+00
         21   -1    0    0  501  502  0.00000000000E+00  0.00000000000E+00  0.30255220574E+03  0.30255220574E+03  0.00000000000E+00 0.  1.
         21   -1    0    0  502  503 -0.00000000000E+00 -0.00000000000E+00 -0.31787302643E+03  0.31787302643E+03  0.00000000000E+00 0.  1.
         -6    2    1    2    0  503 -0.57516235502E+02 -0.11693531898E+01 -0.25897807031E+03  0.31590161842E+03  0.17150716279E+03 0.  0.
        -24    2    3    3    0    0  0.32720105633E+01 -0.51670346500E+02 -0.11663832820E+03  0.15302665604E+03  0.84451921796E+02 0.  0.
          6    2    1    2  501    0  0.57516235502E+02  0.11693531898E+01  0.24365724963E+03  0.30452361374E+03  0.17336750358E+03 0.  0.
         24    2    5    5    0    0 -0.17235942240E+02  0.33126456303E+02  0.18322856704E+03  0.20311917500E+03  0.79311106814E+02 0.  0.
          5    1    5    5  501    0  0.74752177742E+02 -0.31957103113E+02  0.60428682594E+02  0.10140443874E+03  0.47000000000E+01 0. -1.
        -13    1    6    6    0    0 -0.14068630833E+02  0.56111582192E+02  0.16063460014E+03  0.17073344954E+03  0.00000000000E+00 0.  1.
         14    1    6    6    0    0 -0.31673114067E+01 -0.22985125889E+02  0.22593966894E+02  0.32385725462E+02  0.00000000000E+00 0. -1.
         -5    1    3    3    0  503 -0.60788246065E+02  0.50500993310E+02 -0.14233974212E+03  0.16287496238E+03  0.47000000000E+01 0.  1.
         11    1    4    4    0    0  0.34222800388E+01  0.11391162403E+02  0.73082730626E+01  0.13959994152E+02  0.00000000000E+00 0. -1.
        -12    1    4    4    0    0 -0.15026947547E+00 -0.63061508903E+02 -0.12394660126E+03  0.13906666189E+03  0.00000000000E+00 0.  1.
</event>
<event>
12    1  0.8226261E-002  0.2521988E+03  0.7818608E-02  0.1112027E+00
         21   -1    0    0  503  502  0.00000000000E+00  0.00000000000E+00  0.82452802594E+02  0.82452802594E+02  0.00000000000E+00 0.  1.
         21   -1    0    0  501  503 -0.00000000000E+00 -0.00000000000E+00 -0.12116430531E+04  0.12116430531E+04  0.00000000000E+00 0.  1.
          6    2    1    2  501    0 -0.18394805245E+03  0.17662137794E+02 -0.95598787590E+03  0.98869461454E+03  0.17162571149E+03 0.  0.
         24    2    3    3    0    0 -0.10097644935E+03  0.59089508351E+02 -0.38715254467E+03  0.41232994004E+03  0.80256297526E+02 0.  0.
         -6    2    1    2    0  502  0.18394805245E+03 -0.17662137794E+02 -0.17320237461E+03  0.30540124116E+03  0.17065174601E+03 0.  0.
        -24    2    5    5    0    0  0.54329671015E+02  0.13676192582E+02 -0.13272817672E+03  0.16596212737E+03  0.82388757917E+02 0.  0.
          5    1    3    3  501    0 -0.82971603105E+02 -0.41427370558E+02 -0.56883533123E+03  0.57636467450E+03  0.47000000000E+01 0. -1.
        -13    1    4    4    0    0 -0.95398115316E+02  0.21439883816E+02 -0.32556362799E+03  0.33992961755E+03  0.00000000000E+00 0.  1.
         14    1    4    4    0    0 -0.55783340327E+01  0.37649624536E+02 -0.61588916683E+02  0.72400322489E+02  0.00000000000E+00 0. -1.
         -5    1    5    5    0  502  0.12961838144E+03 -0.31338330376E+02 -0.40474197893E+02  0.13943911378E+03  0.47000000000E+01 0.  1.
         11    1    6    6    0    0  0.58350870320E+02 -0.81178897540E+01 -0.13111402015E+03  0.14374147099E+03  0.00000000000E+00 0. -1.
        -12    1    6    6    0    0 -0.40211993055E+01  0.21794082336E+02 -0.16141565645E+01  0.22220656384E+02  0.00000000000E+00 0.  1.
</event>
<event>
12    1  0.8226261E-002  0.1726578E+03  0.7818608E-02  0.1175413E+00
         21   -1    0    0  503  502  0.00000000000E+00  0.00000000000E+00  0.29536546413E+02  0.29536546413E+02  0.00000000000E+00 0. -1.
         21   -1    0    0  501  503 -0.00000000000E+00 -0.00000000000E+00 -0.12155482357E+04  0.12155482357E+04  0.00000000000E+00 0. -1.
          6    2    1    2  501    0 -0.91792178989E+01  0.50062987165E+00 -0.85207345197E+03  0.86915200123E+03  0.17120608935E+03 0.  0.
         24    2    3    3    0    0  0.24302798172E+02 -0.48031357959E+02 -0.68637033913E+03  0.69320879777E+03  0.80848979680E+02 0.  0.
         -6    2    1    2    0  502  0.91792178989E+01 -0.50062987165E+00 -0.33393823730E+03  0.37593278086E+03  0.17241287864E+03 0.  0.
        -24    2    5    5    0    0 -0.36930973941E+02 -0.22574332532E+02 -0.30219825805E+03  0.31557622013E+03  0.79944144335E+02 0.  0.
          5    1    3    3  501    0 -0.33482016071E+02  0.48531987830E+02 -0.16570311283E+03  0.17594320346E+03  0.47000000000E+01 0. -1.
        -11    1    4    4    0    0  0.35478431278E+02  0.10904501832E+02 -0.27038908538E+03  0.27292468694E+03  0.00000000000E+00 0.  1.
         12    1    4    4    0    0 -0.11175633107E+02 -0.58935859790E+02 -0.41598125375E+03  0.42028411083E+03  0.00000000000E+00 0. -1.
         -5    1    5    5    0  502  0.46110191840E+02  0.22073702660E+02 -0.31739979245E+02  0.60356560730E+02  0.47000000000E+01 0.  1.
         13    1    6    6    0    0  0.15664053713E+02 -0.15292944831E+02 -0.19209979109E+03  0.19334313145E+03  0.00000000000E+00 0. -1.
        -14    1    6    6    0    0 -0.52595027654E+02 -0.72813877011E+01 -0.11009846696E+03  0.12223308868E+03  0.00000000000E+00 0.  1.
</event>
<event>
12    1  0.8226261E-002  0.1880845E+03  0.7818608E-02  0.1161060E+00
         21   -1    0    0  503  502  0.00000000000E+00  0.00000000000E+00  0.13057370924E+03  0.13057370924E+03  0.00000000000E+00 0. -1.
         21   -1    0    0  501  503 -0.00000000000E+00 -0.00000000000E+00 -0.26893586076E+03  0.26893586076E+03  0.00000000000E+00 0. -1.
          6    2    1    2  501    0  0.65653507750E+02 -0.22915926339E+02 -0.92144156982E+02  0.20944288691E+03  0.17475770212E+03 0.  0.
         24    2    3    3    0    0  0.77316237860E+02  0.43826848836E+02 -0.40890498878E+02  0.12435678475E+03  0.76772284699E+02 0.  0.
         -6    2    1    2    0  502 -0.65653507750E+02  0.22915926339E+02 -0.46217994541E+02  0.19006668309E+03  0.17074459946E+03 0.  0.
        -24    2    5    5    0    0 -0.89581658773E+02  0.13350491717E+02  0.15130488192E+02  0.12336000963E+03  0.82375063494E+02 0.  0.
          5    1    3    3  501    0 -0.11662730111E+02 -0.66742775175E+02 -0.51253658104E+02  0.85086102160E+02  0.47000000000E+01 0. -1.
        -13    1    4    4    0    0  0.28910176097E+02  0.23981334704E+02 -0.58185021786E+02  0.69256042743E+02  0.00000000000E+00 0.  1.
         14    1    4    4    0    0  0.48406061763E+02  0.19845514133E+02  0.17294522908E+02  0.55100742003E+02  0.00000000000E+00 0. -1.
         -5    1    5    5    0  502  0.23928151023E+02  0.95654346220E+01 -0.61348482733E+02  0.66706673463E+02  0.47000000000E+01 0.  1.
         11    1    6    6    0    0 -0.19328103452E+01  0.30999245290E+02  0.13684018661E+02  0.33940261211E+02  0.00000000000E+00 0. -1.
        -12    1    6    6    0    0 -0.87648848427E+02 -0.17648753573E+02  0.14464695311E+01  0.89419748420E+02  0.00000000000E+00 0.  1.
</event>
<event>
12    1  0.8226261E-002  0.6152782E+03  0.7818608E-02  0.9874338E-01
         21   -1    0    0  503  502  0.00000000000E+00  0.00000000000E+00  0.33543366970E+03  0.33543366970E+03  0.00000000000E+00 0.  1.
         21   -1    0    0  501  503 -0.00000000000E+00 -0.00000000000E+00 -0.11356823625E+04  0.11356823625E+04  0.00000000000E+00 0. -1.
          6    2    1    2  501    0  0.42952567168E+03 -0.40608442557E+03 -0.34014922460E+03  0.70304247320E+03  0.17079332773E+03 0.  0.
         24    2    3    3    0    0  0.19998237560E+03 -0.18232502043E+03 -0.83250315399E+02  0.29221704103E+03  0.72282919343E+02 0.  0.
         -6    2    1    2    0  502 -0.42952567168E+03  0.40608442557E+03 -0.46009946824E+03  0.76807355905E+03  0.16984878013E+03 0.  0.
        -24    2    5    5    0    0 -0.99478851347E+02  0.14093561699E+03 -0.16078227169E+03  0.24956833395E+03  0.81697762633E+02 0.  0.
          5    1    3    3  501    0  0.22954329608E+03 -0.22375940514E+03 -0.25689890920E+03  0.41082543216E+03  0.47000000000E+01 0. -1.
        -13    1    4    4    0    0  0.21432866154E+02 -0.13691723987E+02 -0.32780158665E+02  0.41489394541E+02  0.00000000000E+00 0.  1.
         14    1    4    4    0    0  0.17854950945E+03 -0.16863329645E+03 -0.50470156734E+02  0.25072764649E+03  0.00000000000E+00 0. -1.
         -5    1    5    5    0  502 -0.33004682033E+03  0.26514880858E+03 -0.29931719655E+03  0.51850522510E+03  0.47000000000E+01 0.  1.
         11    1    6    6    0    0 -0.54044585299E+02  0.10355704825E+03 -0.56324858165E+02  0.12968179938E+03  0.00000000000E+00 0. -1.
        -12    1    6    6    0    0 -0.45434266048E+02  0.37378568746E+02 -0.10445741352E+03  0.11988653457E+03  0.00000000000E+00 0.  1.
</event>
<event>
12    1  0.8226261E-002  0.2810791E+03  0.7818608E-02  0.1095126E+00
         21   -1    0    0  501  502  0.00000000000E+00  0.00000000000E+00  0.52568514376E+03  0.52568514376E+03  0.00000000000E+00 0.  1.
         21   -1    0    0  502  503 -0.00000000000E+00 -0.00000000000E+00 -0.18742710283E+03  0.18742710283E+03  0.00000000000E+00 0.  1.
         -6    2    1    2    0  503 -0.14127952361E+03 -0.17345398792E+03  0.10164646406E+02  0.28108133501E+03  0.16987409202E+03 0.  0.
        -24    2    3    3    0    0 -0.87281720932E+02 -0.35109663497E+02  0.43471215234E+02  0.12881074586E+03  0.76496237917E+02 0.  0.
          6    2    1    2  501    0  0.14127952361E+03  0.17345398792E+03  0.32809339452E+03  0.43203091157E+03  0.17017415581E+03 0.  0.
         24    2    5    5    0    0  0.14764790948E+03  0.74992275486E+02  0.23149820947E+03  0.29387163780E+03  0.73112050703E+02 0.  0.
          5    1    5    5  501    0 -0.63683858661E+01  0.98461712431E+02  0.96595185049E+02  0.13815927377E+03  0.47000000000E+01 0. -1.
        -11    1    6    6    0    0  0.80199128710E+02  0.76768317273E+02  0.16697057882E+03  0.20051047098E+03  0.00000000000E+00 0.  1.
         12    1    6    6    0    0  0.67448780768E+02 -0.17760417869E+01  0.64527630655E+02  0.93361166817E+02  0.00000000000E+00 0. -1.
         -5    1    3    3    0  503 -0.53997802679E+02 -0.13834432442E+03 -0.33306568828E+02  0.15227058915E+03  0.47000000000E+01 0.  1.
         13    1    4    4    0    0 -0.27003107492E+02 -0.19599780470E+02  0.56126214861E+02  0.65295261722E+02  0.00000000000E+00 0. -1.
        -14    1    4    4    0    0 -0.60278613440E+02 -0.15509883027E+02 -0.12654999627E+02  0.63515484139E+02  0.00000000000E+00 0.  1.
</event>
<event>
12    1  0.8226261E-002  0.1743173E+03  0.7818608E-02  0.1173874E+00
         21   -1    0    0  501  502  0.00000000000E+00  0.00000000000E+00  0.41972525400E+02  0.41972525400E+02  0.00000000000E+00 0.  1.
         21   -1    0    0  502  503 -0.00000000000E+00 -0.00000000000E+00 -0.80499208099E+03  0.80499208099E+03  0.00000000000E+00 0.  1.
         -6    2    1    2    0  503 -0.24130846115E+02 -0.45821723036E+01 -0.52365302683E+03  0.55190489288E+03  0.17257816848E+03 0.  0.
        -24    2    3    3    0    0  0.26342751870E+02 -0.18930547723E+02 -0.46577670985E+03  0.47364112068E+03  0.79596868988E+02 0.  0.
          6    2    1    2  501    0  0.24130846115E+02  0.45821723036E+01 -0.23936652876E+03  0.29505971351E+03  0.17076476630E+03 0.  0.
         24    2    5    5    0    0  0.13187171229E+01 -0.55240775376E+02 -0.19166177311E+03  0.21507839063E+03  0.80443747837E+02 0.  0.
          5    1    5    5  501    0  0.22812128992E+02  0.59822947680E+02 -0.47704755657E+02  0.79981322886E+02  0.47000000000E+01 0. -1.
        -11    1    6    6    0    0  0.77371942690E+01  0.39382635819E+01 -0.12658927290E+03  0.12688663487E+03  0.00000000000E+00 0.  1.
         12    1    6    6    0    0 -0.64184771461E+01 -0.59179038958E+02 -0.65072500210E+02  0.88191755762E+02  0.00000000000E+00 0. -1.
         -5    1    3    3    0  503 -0.50473597985E+02  0.14348375419E+02 -0.57876316981E+02  0.78263772194E+02  0.47000000000E+01 0.  1.
         13    1    4    4    0    0  0.45837584506E+02  0.13363110722E+02 -0.28486630861E+03  0.28883987028E+03  0.00000000000E+00 0. -1.
        -14    1    4    4    0    0 -0.19494832636E+02 -0.32293658444E+02 -0.18091040123E+03  0.18480125040E+03  0.00000000000E+00 0.  1.
</event>
<event>
12    1  0.8226261E-002  0.2131055E+03  0.7818608E-02  0.1140003E+00
         21   -1    0    0  503  502  0.00000000000E+00  0.00000000000E+00  0.40753702206E+03  0.40753702206E+03  0.00000000000E+00 0.  1.
         21   -1    0    0  501  503 -0.00000000000E+00 -0.00000000000E+00 -0.11129608182E+03  0.11129608182E+03  0.00000000000E+00 0.  1.
          6    2    1    2  501    0  0.10809016541E+03 -0.48379343529E+02  0.11034790930E+03  0.23604311031E+03  0.17180117607E+03 0.  0.
         24    2    3    3    0    0  0.39064383414E+02 -0.18928696060E+02  0.13013605515E+03  0.15828991145E+03  0.78968231780E+02 0.  0.
         -6    2    1    2    0  502 -0.10809016541E+03  0.48379343529E+02  0.18589303094E+03  0.28278999357E+03  0.17717199771E+03 0.  0.
        -24    2    5    5    0    0 -0.21085944555E+02  0.86513112971E+02  0.12969511146E+03  0.17231730476E+03  0.70308575646E+02 0.  0.
          5    1    3    3  501    0  0.69025781997E+02 -0.29450647469E+02 -0.19788145854E+02  0.77753198860E+02  0.47000000000E+01 0. -1.
        -13    1    4    4    0    0  0.43453084779E+02  0.35728930085E+01  0.24126922924E+02  0.49830157044E+02  0.00000000000E+00 0.  1.
         14    1    4    4    0    0 -0.43887013648E+01 -0.22501589068E+02  0.10600913223E+03  0.10845975441E+03  0.00000000000E+00 0. -1.
         -5    1    5    5    0  502 -0.87004220856E+02 -0.38133769442E+02  0.56197919472E+02  0.11047268880E+03  0.47000000000E+01 0.  1.
         13    1    6    6    0    0  0.11464132991E+02  0.78046592728E+02  0.80350341409E+02  0.11260050775E+03  0.00000000000E+00 0. -1.
        -14    1    6    6    0    0 -0.32550077546E+02  0.84665202426E+01  0.49344770056E+02  0.59716797010E+02  0.00000000000E+00 0.  1.
</event>
<event>
12    1  0.8226261E-002  0.2020938E+03  0.7818608E-02  0.1148073E+00
         21   -1    0    0  501  502  0.00000000000E+00  0.00000000000E+00  0.10832059359E+03  0.10832059359E+03  0.00000000000E+00 0. -1.
         21   -1    0    0  502  503 -0.00000000000E+00 -0.00000000000E+00 -0.38166873483E+03  0.38166873483E+03  0.00000000000E+00 0. -1.
         -6    2    1    2    0  503  0.11113467330E+02 -0.10447953686E+03 -0.10762709837E+03  0.22896612545E+03  0.17263374966E+03 0.  0.
        -24    2    3    3    0    0  0.63900877730E+02 -0.22108334097E+02 -0.50997011257E+02  0.11582646615E+03  0.79012495793E+02 0.  0.
          6    2    1    2  501    0 -0.11113467330E+02  0.10447953686E+03 -0.16572104288E+03  0.26102320297E+03  0.17213415018E+03 0.  0.
         24    2    5    5    0    0  0.65061806471E+02  0.14672894160E+02 -0.80164137441E+02  0.11538673954E+03  0.49391074559E+02 0.  0.
          5    1    5    5  501    0 -0.76175273801E+02  0.89806642700E+02 -0.85556905435E+02  0.14563646343E+03  0.47000000000E+01 0. -1.
        -11    1    6    6    0    0  0.23019421444E+02 -0.17957834658E+02 -0.35064782272E+02  0.45628023681E+02  0.00000000000E+00 0.  1.
         12    1    6    6    0    0  0.42042385027E+02  0.32630728818E+02 -0.45099355168E+02  0.69758715861E+02  0.00000000000E+00 0. -1.
         -5    1    3    3    0  503 -0.52787410400E+02 -0.82371202763E+02 -0.56630087109E+02  0.11313965930E+03  0.47000000000E+01 0.  1.
         11    1    4    4    0    0 -0.14282401817E+01 -0.24348996638E+02 -0.43709046899E+02  0.50053913814E+02  0.00000000000E+00 0. -1.
        -12    1    4    4    0    0  0.65329117912E+02  0.22406625403E+01 -0.72879643585E+01  0.65772552332E+02  0.00000000000E+00 0.  1.
</event>
<event>
12    1  0.8226261E-002  0.1913624E+03  0.7818608E-02  0.1157238E+00
         21   -1    0    0  503  502  0.00000000000E+00  0.00000000000E+00  0.10082818528E+03  0.10082818528E+03  0.00000000000E+00 0.  1.
         21   -1    0    0  501  503 -0.00000000000E+00 -0.00000000000E+00 -0.40305357730E+03  0.40305357730E+03  0.00000000000E+00 0.  1.
          6    2    1    2  501    0  0.63591113767E+02  0.53678776394E+02 -0.23034871146E+03  0.29946596556E+03  0.17231974604E+03 0.  0.
         24    2    3    3    0    0  0.43806268375E+02  0.32321742263E+02 -0.24729034209E+03  0.26545608667E+03  0.79691508252E+02 0.  0.
         -6    2    1    2    0  502 -0.63591113767E+02 -0.53678776394E+02 -0.71876680570E+02  0.20441579702E+03  0.17232039948E+03 0.  0.
        -24    2    5    5    0    0  0.23217487221E+02 -0.30015025954E+02 -0.28964520819E+02  0.10461975629E+03  0.93093482287E+02 0.  0.
          5    1    3    3  501    0  0.19784845392E+02  0.21357034131E+02  0.16941630630E+02  0.34009878895E+02  0.47000000000E+01 0. -1.
        -11    1    4    4    0    0  0.49422455236E+02 -0.12325992179E+02 -0.14564950408E+03  0.15429934285E+03  0.00000000000E+00 0.  1.
         12    1    4    4    0    0 -0.56161868611E+01  0.44647734442E+02 -0.10164083801E+03  0.11115674382E+03  0.00000000000E+00 0. -1.
         -5    1    5    5    0  502 -0.86808600988E+02 -0.23663750440E+02 -0.42912159751E+02  0.99796040727E+02  0.47000000000E+01 0.  1.
         13    1    6    6    0    0  0.29852694907E+02 -0.38482963788E+02 -0.56773719424E+02  0.74802253391E+02  0.00000000000E+00 0. -1.
        -14    1    6    6    0    0 -0.66352076860E+01  0.84679378341E+01  0.27809198605E+02  0.29817502901E+02  0.00000000000E+00 0.  1.
</event>
<event>
12    1  0.8226261E-002  0.3310780E+03  0.7818608E-02  0.1071653E+00
         21   -1    0    0  503  502  0.00000000000E+00  0.00000000000E+00  0.44514317075E+03  0.44514317075E+03  0.00000000000E+00 0.  1.
         21   -1    0    0  501  503 -0.00000000000E+00 -0.00000000000E+00 -0.28726477473E+03  0.28726477473E+03  0.00000000000E+00 0. -1.
          6    2    1    2  501    0  0.15254557911E+03 -0.22367425407E+03 -0.70988057190E+02  0.32992499496E+03  0.17467361677E+03 0.  0.
         24    2    3    3    0    0  0.17106925671E+03 -0.12288181783E+03 -0.46370626996E+02  0.22442452243E+03  0.62060450177E+02 0.  0.
         -6    2    1    2    0  502 -0.15254557911E+03  0.22367425407E+03  0.22886645321E+03  0.40248295051E+03  0.19055798699E+03 0.  0.
        -24    2    5    5    0    0 -0.11998399610E+03  0.11095893649E+03  0.48857768988E+02  0.18756385899E+03  0.78006888800E+02 0.  0.
          5    1    3    3  501    0 -0.18523677594E+02 -0.10079243624E+03 -0.24617430193E+02  0.10550047253E+03  0.47000000000E+01 0. -1.
        -13    1    4    4    0    0  0.31676395103E+01  0.55235187255E+01  0.34737535311E+01  0.72532863430E+01  0.00000000000E+00 0.  1.
         14    1    4    4    0    0  0.16790161720E+03 -0.12840533655E+03 -0.49844380528E+02  0.21717123608E+03  0.00000000000E+00 0. -1.
         -5    1    5    5    0  502 -0.32561583007E+02  0.11271531759E+03  0.18000868423E+03  0.21491909153E+03  0.47000000000E+01 0.  1.
         11    1    6    6    0    0 -0.12510972348E+03  0.10232081881E+03  0.60148047728E+02  0.17245225576E+03  0.00000000000E+00 0. -1.
        -12    1    6    6    0    0  0.51257273741E+01  0.86381176807E+01 -0.11290278740E+02  0.15111603231E+02  0.00000000000E+00 0.  1.
</event>
<event>
12    1  0.8226261E-002  0.1932904E+03  0.7818608E-02  0.1155741E+00
         21   -1    0    0  501  502  0.00000000000E+00  0.00000000000E+00  0.58107628213E+03  0.58107628213E+03  0.00000000000E+00 0. -1.
         21   -1    0    0  502  503 -0.00000000000E+00 -0.00000000000E+00 -0.73168441650E+02  0.73168441650E+02  0.00000000000E+00 0. -1.
         -6    2    1    2    0  503 -0.68976116117E+01  0.86435301118E+02  0.13855468227E+03  0.23782049349E+03  0.17274996040E+03 0.  0.
        -24    2    3    3    0    0 -0.49290096789E+02  0.10665422261E+03  0.82873447816E+02  0.16482448362E+03  0.80588244839E+02 0.  0.
          6    2    1    2  501    0  0.68976116117E+01 -0.86435301118E+02  0.36935315821E+03  0.41642423029E+03  0.17166463168E+03 0.  0.
         24    2    5    5    0    0  0.70364388852E+02 -0.53975600091E+02  0.24769237768E+03  0.27533879687E+03  0.81212231092E+02 0.  0.
          5    1    5    5  501    0 -0.63466777240E+02 -0.32459701026E+02  0.12166078053E+03  0.14108543342E+03  0.47000000000E+01 0. -1.
        -13    1    6    6    0    0 -0.50548429690E+01 -0.43574427127E+02  0.82140265682E+02  0.93119844197E+02  0.00000000000E+00 0.  1.
         14    1    6    6    0    0  0.75419231821E+02 -0.10401172964E+02  0.16555211200E+03  0.18221895267E+03  0.00000000000E+00 0. -1.
         -5    1    3    3    0  503  0.42392485178E+02 -0.20218921493E+02  0.55681234455E+02  0.72996009865E+02  0.47000000000E+01 0.  1.
         11    1    4    4    0    0 -0.22018496286E+02  0.55436475593E+02  0.88284861455E+02  0.10654686184E+03  0.00000000000E+00 0. -1.
        -12    1    4    4    0    0 -0.27271600504E+02  0.51217747017E+02 -0.54114136384E+01  0.58277621787E+02  0.00000000000E+00 0.  1.
</event>
<event>
12    1  0.8226261E-002  0.1889071E+03  0.7818608E-02  0.1160034E+00
         21   -1    0    0  501  502  0.00000000000E+00  0.00000000000E+00  0.21701905537E+03  0.21701905537E+03  0.00000000000E+00 0. -1.
         21   -1    0    0  502  503 -0.00000000000E+00 -0.00000000000E+00 -0.17463045994E+03  0.17463045994E+03  0.00000000000E+00 0.  1.
         -6    2    1    2    0  503 -0.65357515982E+02 -0.27573549561E+02  0.73515537212E+02  0.20270772593E+03  0.17508278731E+03 0.  0.
        -24    2    3    3    0    0  0.11016715692E+02  0.22514042860E+02  0.73845455761E+02  0.11125287902E+03  0.79346087505E+02 0.  0.
          6    2    1    2  501    0  0.65357515982E+02  0.27573549561E+02 -0.31126941787E+02  0.18894178937E+03  0.17233167943E+03 0.  0.
         24    2    5    5    0    0  0.48595600478E+02  0.77827047563E+02  0.85897866833E+01  0.12256495310E+03  0.80807187648E+02 0.  0.
          5    1    5    5  501    0  0.16761915504E+02 -0.50253498002E+02 -0.39716728470E+02  0.66376836270E+02  0.47000000000E+01 0. -1.
        -11    1    6    6    0    0  0.43561748085E+02  0.29551904024E+02 -0.29971886354E+02  0.60574374939E+02  0.00000000000E+00 0.  1.
         12    1    6    6    0    0  0.50338523935E+01  0.48275143540E+02  0.38561673037E+02  0.61990578164E+02  0.00000000000E+00 0. -1.
         -5    1    3    3    0  503 -0.76374231674E+02 -0.50087592421E+02 -0.32991854868E+00  0.91454846917E+02  0.47000000000E+01 0.  1.
         13    1    4    4    0    0  0.11512489391E+02 -0.27847347680E+02  0.14570971955E+02  0.33471262428E+02  0.00000000000E+00 0. -1.
        -14    1    4    4    0    0 -0.49577369883E+00  0.50361390540E+02  0.59274483805E+02  0.77781616588E+02  0.00000000000E+00 0.  1.
</event>
<event>
12    1  0.8226261E-002  0.3134649E+03  0.7818608E-02  0.1078906E+00
         21   -1    0    0  503  502  0.00000000000E+00  0.00000000000E+00  0.24810898428E+03  0.24810898428E+03  0.00000000000E+00 0.  1.
         21   -1    0    0  501  503 -0.00000000000E+00 -0.00000000000E+00 -0.44969580982E+03  0.44969580982E+03  0.00000000000E+00 0. -1.
          6    2    1    2  501    0  0.98869511190E+02 -0.24022482411E+03 -0.22403897196E+03  0.38529690258E+03  0.17543402127E+03 0.  0.
         24    2    3    3    0    0  0.10567306669E+03 -0.25793066849E+03 -0.22261368137E+03  0.36570336421E+03  0.80542365787E+02 0.  0.
         -6    2    1    2    0  502 -0.98869511190E+02  0.24022482411E+03  0.22452146419E+02  0.31250789151E+03  0.17226124641E+03 0.  0.
        -24    2    5    5    0    0 -0.28517637517E+02  0.20408230817E+03 -0.21243457627E+02  0.22202549874E+03  0.79882372540E+02 0.  0.
          5    1    3    3  501    0 -0.68035555040E+01  0.17705844382E+02 -0.14252905904E+01  0.19593538375E+02  0.47000000000E+01 0. -1.
        -13    1    4    4    0    0  0.12225760648E+02 -0.21176042657E+02  0.41625627833E+01  0.24803647614E+02  0.00000000000E+00 0.  1.
         14    1    4    4    0    0  0.93447306046E+02 -0.23675462583E+03 -0.22677624415E+03  0.34089971659E+03  0.00000000000E+00 0. -1.
         -5    1    5    5    0  502 -0.70351873673E+02  0.36142515938E+02  0.43695604046E+02  0.90482392766E+02  0.47000000000E+01 0.  1.
         11    1    6    6    0    0 -0.32798289852E+02  0.51774569610E+02 -0.32258509977E+02  0.69259983695E+02  0.00000000000E+00 0. -1.
        -12    1    6    6    0    0  0.42806523348E+01  0.15230773856E+03  0.11015052350E+02  0.15276551505E+03  0.00000000000E+00 0.  1.
</event>
<event>
12    1  0.8226261E-002  0.1852995E+03  0.7818608E-02  0.1162801E+00
         21   -1    0    0  503  502  0.00000000000E+00  0.00000000000E+00  0.14676585306E+03  0.14676585306E+03  0.00000000000E+00 0.  1.
         21   -1    0    0  501  503 -0.00000000000E+00 -0.00000000000E+00 -0.61042283813E+03  0.61042283813E+03  0.00000000000E+00 0.  1.
          6    2    1    2  501    0  0.62765307567E+02 -0.29336971260E+02 -0.52918367255E+03  0.56064443886E+03  0.17171687691E+03 0.  0.
         24    2    3    3    0    0  0.96929243727E+02  0.17768693526E+02 -0.34110645329E+03  0.36371488650E+03  0.78891706952E+02 0.  0.
         -6    2    1    2    0  502 -0.62765307567E+02  0.29336971260E+02  0.65526687475E+02  0.19654425234E+03  0.17185969463E+03 0.  0.
        -24    2    5    5    0    0  0.14333243450E+02  0.66171326625E+02  0.47625400542E+02  0.10911712624E+03  0.71093474574E+02 0.  0.
          5    1    3    3  501    0 -0.34163936160E+02 -0.47105664786E+02 -0.18807721925E+03  0.19692955236E+03  0.47000000000E+01 0. -1.
        -13    1    4    4    0    0  0.30596839057E+02 -0.29711574722E+02 -0.88049274112E+02  0.97834650837E+02  0.00000000000E+00 0.  1.
         14    1    4    4    0    0  0.66332404670E+02  0.47480268248E+02 -0.25305717918E+03  0.26588023566E+03  0.00000000000E+00 0. -1.
         -5    1    5    5    0  502 -0.77098551017E+02 -0.36834355365E+02  0.17901286933E+02  0.87427126099E+02  0.47000000000E+01 0.  1.
         11    1    6    6    0    0  0.14838529307E+01  0.22840043886E+02  0.58339100911E+02  0.62668334264E+02  0.00000000000E+00 0. -1.
        -12    1    6    6    0    0  0.12849390519E+02  0.43331282739E+02 -0.10713700369E+02  0.46448791977E+02  0.00000000000E+00 0.  1.
</event>
<event>
12    1  0.8226261E-002  0.2220495E+03  0.7818608E-02  0.1132591E+00
         21   -1    0    0  503  502  0.00000000000E+00  0.00000000000E+00  0.69462752376E+03  0.69462752376E+03  0.00000000000E+00 0.  1.
         21   -1    0    0  501  503 -0.00000000000E+00 -0.00000000000E+00 -0.87051252011E+02  0.87051252011E+02  0.00000000000E+00 0. -1.
          6    2    1    2  501    0 -0.61287725724E+02 -0.12298374240E+03  0.13314449080E+03  0.25785487174E+03  0.17285975018E+03 0.  0.
         24    2    3    3    0    0 -0.61454703533E+01 -0.19990352782E+02  0.11401596526E+03  0.13937999204E+03  0.77393545182E+02 0.  0.
         -6    2    1    2    0  502  0.61287725724E+02  0.12298374240E+03  0.47443178095E+03  0.52382390402E+03  0.17442700890E+03 0.  0.
        -24    2    5    5    0    0  0.24765671481E+02  0.78479476526E+02  0.44330147118E+03  0.45820625157E+03  0.81635824917E+02 0.  0.
          5    1    3    3  501    0 -0.55142255371E+02 -0.10299338962E+03  0.19128525537E+02  0.11847487971E+03  0.47000000000E+01 0. -1.
        -11    1    4    4    0    0  0.26047741293E+02 -0.20259355859E+02  0.16916065938E+02  0.37082065923E+02  0.00000000000E+00 0.  1.
         12    1    4    4    0    0 -0.32193211647E+02  0.26900307752E+00  0.97099899323E+02  0.10229792611E+03  0.00000000000E+00 0. -1.
         -5    1    5    5    0  502  0.36522054242E+02  0.44504265872E+02  0.31130309766E+02  0.65617652450E+02  0.47000000000E+01 0.  1.
         11    1    6    6    0    0 -0.20873532778E+02 -0.12060972832E+01  0.47608791994E+02  0.51997654912E+02  0.00000000000E+00 0. -1.
        -12    1    6    6    0    0  0.45639204259E+02  0.79685573809E+02  0.39569267919E+03  0.40620859666E+03  0.00000000000E+00 0.  1.
</event>
<event>
12    1  0.8226261E-002  0.2059833E+03  0.7818608E-02  0.1144850E+00
         21   -1    0    0  503  502  0.00000000000E+00  0.00000000000E+00  0.22852558495E+03  0.22852558495E+03  0.00000000000E+00 0.  1.
         21   -1    0    0  501  503 -0.00000000000E+00 -0.00000000000E+00 -0.27141245719E+03  0.27141245719E+03  0.00000000000E+00 0.  1.
          6    2    1    2  501    0 -0.71219756068E+02 -0.86759123940E+02 -0.16216349982E+03  0.26191277021E+03  0.17234238970E+03 0.  0.
         24    2    3    3    0    0 -0.17744142958E+02 -0.66982035372E+02 -0.17220256862E+02  0.10608784246E+03  0.78464293792E+02 0.  0.
         -6    2    1    2    0  502  0.71219756068E+02  0.86759123940E+02  0.11927662757E+03  0.23802527193E+03  0.17271281641E+03 0.  0.
        -24    2    5    5    0    0  0.84619359960E+02  0.87230838842E+01  0.10590404903E+03  0.15758840980E+03  0.79886863946E+02 0.  0.
          5    1    3    3  501    0 -0.53475613111E+02 -0.19777088568E+02 -0.14494324295E+03  0.15582492775E+03  0.47000000000E+01 0. -1.
        -13    1    4    4    0    0 -0.39696977266E+02 -0.71803477913E+01 -0.12391289074E+02  0.42201320398E+02  0.00000000000E+00 0.  1.
         14    1    4    4    0    0  0.21952834308E+02 -0.59801687580E+02 -0.48289677886E+01  0.63886522065E+02  0.00000000000E+00 0. -1.
         -5    1    5    5    0  502 -0.13399603892E+02  0.78036040056E+02  0.13372578545E+02  0.80436862128E+02  0.47000000000E+01 0.  1.
         11    1    6    6    0    0 -0.54369448052E+01  0.23240676744E+02  0.33468177074E+02  0.41107277957E+02  0.00000000000E+00 0. -1.
        -12    1    6    6    0    0  0.90056304765E+02 -0.14517592860E+02  0.72435871953E+02  0.11648113185E+03  0.00000000000E+00 0.  1.
</event>
<event>
12    1  0.8226261E-002  0.2063125E+03  0.7818608E-02  0.1144689E+00
         21   -1    0    0  501  502  0.00000000000E+00  0.00000000000E+00  0.51000871134E+03  0.51000871134E+03  0.00000000000E+00 0. -1.
         21   -1    0    0  502  503 -0.00000000000E+00 -0.00000000000E+00 -0.89415423458E+02  0.89415423458E+02  0.00000000000E+00 0.  1.
         -6    2    1    2    0  503 -0.18785968008E+02 -0.11013363587E+03  0.13118082505E+03  0.24448573115E+03  0.17344317090E+03 0.  0.
        -24    2    3    3    0    0  0.53561251468E+02 -0.85392257293E+02  0.93189350460E+02  0.15897726302E+03  0.80180233570E+02 0.  0.
          6    2    1    2  501    0  0.18785968008E+02  0.11013363587E+03  0.28941246283E+03  0.35493840365E+03  0.17245105508E+03 0.  0.
         24    2    5    5    0    0 -0.19131739757E+02  0.12944825994E+03  0.16663437698E+03  0.22491011584E+03  0.75463031660E+02 0.  0.
          5    1    5    5  501    0  0.37917707766E+02 -0.19314624072E+02  0.12277808585E+03  0.13002828781E+03  0.47000000000E+01 0. -1.
        -11    1    6    6    0    0 -0.45142275573E+02  0.61616008451E+02  0.67009680750E+02  0.10161030881E+03  0.00000000000E+00 0.  1.
         12    1    6    6    0    0  0.26010535816E+02  0.67832251490E+02  0.99624696226E+02  0.12329980703E+03  0.00000000000E+00 0. -1.
         -5    1    3    3    0  503 -0.72347219476E+02 -0.24741378577E+02  0.37991474594E+02  0.85508468128E+02  0.47000000000E+01 0.  1.
         11    1    4    4    0    0  0.42938903094E+02 -0.94545031284E+02  0.99304757046E+02  0.14368001640E+03  0.00000000000E+00 0. -1.
        -12    1    4    4    0    0  0.10622348374E+02  0.91527739918E+01 -0.61154065857E+01  0.15297246629E+02  0.00000000000E+00 0.  1.
</event>
<event>
12    1  0.8226261E-002  0.1749077E+03  0.7818608E-02  0.1172903E+00
         21   -1    0    0  501  502  0.00000000000E+00  0.00000000000E+00  0.66478361655E+02  0.66478361655E+02  0.00000000000E+00 0. -1.
         21   -1    0    0  502  503 -0.00000000000E+00 -0.00000000000E+00 -0.70921150080E+03  0.70921150080E+03  0.00000000000E+00 0. -1.
         -6    2    1    2    0  503 -0.25177808117E+01 -0.33468285826E+02 -0.55137861032E+03  0.57836185372E+03  0.17134058637E+03 0.  0.
        -24    2    3    3    0    0  0.58300194697E+02 -0.54097332993E+01 -0.40658878551E+03  0.41876144055E+03  0.81354321767E+02 0.  0.
          6    2    1    2  501    0  0.25177808117E+01  0.33468285826E+02 -0.91354528816E+02  0.19732800873E+03  0.17165729731E+03 0.  0.
         24    2    5    5    0    0  0.40561647845E+02  0.18308152212E+01  0.27759941667E+01  0.90881258091E+02  0.81259447256E+02 0.  0.
          5    1    5    5  501    0 -0.38043867033E+02  0.31637470605E+02 -0.94130522983E+02  0.10644675064E+03  0.47000000000E+01 0. -1.
        -13    1    6    6    0    0  0.14055220825E+02  0.27139240329E+02 -0.29181022980E+02  0.42256593571E+02  0.00000000000E+00 0.  1.
         14    1    6    6    0    0  0.26506427020E+02 -0.25308425108E+02  0.31957017146E+02  0.48624664520E+02  0.00000000000E+00 0. -1.
         -5    1    3    3    0  503 -0.60817975509E+02 -0.28058552526E+02 -0.14478982481E+03  0.15960041317E+03  0.47000000000E+01 0.  1.
         11    1    4    4    0    0  0.48801591792E+02  0.33701410087E+02 -0.21782636868E+03  0.22575585772E+03  0.00000000000E+00 0. -1.
        -12    1    4    4    0    0  0.94986029053E+01 -0.39111143387E+02 -0.18876241684E+03  0.19300558283E+03  0.00000000000E+00 0.  1.
</event>
<event>
12    1  0.8226261E-002  0.1991549E+03  0.7818608E-02  0.1150778E+00
         21   -1    0    0  503  502  0.00000000000E+00  0.00000000000E+00  0.78242094555E+03  0.78242094555E+03  0.00000000000E+00 0. -1.
         21   -1    0    0  501  503 -0.00000000000E+00 -0.00000000000E+00 -0.52217329516E+02  0.52217329516E+02  0.00000000000E+00 0.  1.
          6    2    1    2  501    0 -0.93059425737E+02  0.33663007202E+02  0.44630356583E+03  0.48872235502E+03  0.17282769641E+03 0.  0.
         24    2    3    3    0    0 -0.45688214423E+02 -0.35251849102E+02  0.33892419234E+03  0.35253972422E+03  0.78003481933E+02 0.  0.
         -6    2    1    2    0  502  0.93059425737E+02 -0.33663007202E+02  0.28390005020E+03  0.34591592005E+03  0.17107112692E+03 0.  0.
        -24    2    5    5    0    0  0.59539521918E+02 -0.12782241198E+02  0.57177955788E+02  0.11573210559E+03  0.80101568504E+02 0.  0.
          5    1    3    3  501    0 -0.47371211314E+02  0.68914856305E+02  0.10737937349E+03  0.13618263080E+03  0.47000000000E+01 0. -1.
        -11    1    4    4    0    0  0.79084367591E+01 -0.26045808442E+02  0.38011589341E+02  0.46752630232E+02  0.00000000000E+00 0.  1.
         12    1    4    4    0    0 -0.53596651183E+02 -0.92060406600E+01  0.30091260300E+03  0.30578709399E+03  0.00000000000E+00 0. -1.
         -5    1    5    5    0  502  0.33519903819E+02 -0.20880766004E+02  0.22672209442E+03  0.23018381446E+03  0.47000000000E+01 0.  1.
         11    1    6    6    0    0  0.34232665272E+01  0.72339960818E+01  0.55557379558E+02  0.56130846033E+02  0.00000000000E+00 0. -1.
        -12    1    6    6    0    0  0.56116255391E+02 -0.20016237280E+02  0.16205762295E+01  0.59601259561E+02  0.00000000000E+00 0.  1.
</event>
<event>
12    1  0.8226261E-002  0.2599315E+03  0.7818608E-02  0.1107185E+00
         21   -1    0    0  501  502  0.00000000000E+00  0.00000000000E+00  0.22739027194E+04  0.22739027194E+04  0.00000000000E+00 0. -1.
         21   -1    0    0  502  503 -0.00000000000E+00 -0.00000000000E+00 -0.34735600734E+02  0.34735600734E+02  0.00000000000E+00 0.  1.
         -6    2    1    2    0  503 -0.17641976882E+03 -0.82938740823E+02  0.68063021203E+03  0.72857523224E+03  0.17193491192E+03 0.  0.
        -24    2    3    3    0    0 -0.56546107182E+02 -0.97946438229E+02  0.41954110580E+03  0.44085221069E+03  0.74464523183E+02 0.  0.
          6    2    1    2  501    0  0.17641976882E+03  0.82938740823E+02  0.15585369066E+04  0.15800630879E+04  0.17192819093E+03 0.  0.
         24    2    5    5    0    0  0.13652545024E+03 -0.44708318984E+01  0.81090293416E+03  0.82626561055E+03  0.80573591491E+02 0.  0.
          5    1    5    5  501    0  0.39894318575E+02  0.87409572721E+02  0.74763397244E+03  0.75379747732E+03  0.47000000000E+01 0. -1.
        -13    1    6    6    0    0  0.69066443345E+02  0.16414379648E+01  0.61733142667E+03  0.62118512399E+03  0.00000000000E+00 0.  1.
         14    1    6    6    0    0  0.67459006900E+02 -0.61122698632E+01  0.19357150749E+03  0.20508048656E+03  0.00000000000E+00 0. -1.
         -5    1    3    3    0  503 -0.11987366164E+03  0.15007697406E+02  0.26108910623E+03  0.28772302155E+03  0.47000000000E+01 0.  1.
         11    1    4    4    0    0 -0.73671546704E+02 -0.82227953383E+02  0.37015495866E+03  0.38626885266E+03  0.00000000000E+00 0. -1.
        -12    1    4    4    0    0  0.17125439521E+02 -0.15718484846E+02  0.49386147133E+02  0.54583358025E+02  0.00000000000E+00 0.  1.
</event>
<event>
12    1  0.8226261E-002  0.2010316E+03  0.7818608E-02  0.1148960E+00
         21   -1    0    0  503  502  0.00000000000E+00  0.00000000000E+00  0.11819155538E+03  0.11819155538E+03  0.00000000000E+00 0. -1.
         21   -1    0    0  501  503 -0.00000000000E+00 -0.00000000000E+00 -0.38114536316E+03  0.38114536316E+03  0.00000000000E+00 0.  1.
          6    2    1    2  501    0  0.70686040651E+02 -0.76586392317E+02 -0.21216335099E+03  0.29198851936E+03  0.17141183186E+03 0.  0.
         24    2    3    3    0    0  0.51918775170E+02 -0.11975884297E+03 -0.16019967026E+03  0.22171487662E+03  0.80348070780E+02 0.  0.
         -6    2    1    2    0  502 -0.70686040651E+02  0.76586392317E+02 -0.50790456793E+02  0.20734839918E+03  0.17190606827E+03 0.  0.
        -24    2    5    5    0    0 -0.10447439948E+03  0.85749034387E+02 -0.15078162075E+02  0.15711827678E+03  0.78682938945E+02 0.  0.
          5    1    3    3  501    0  0.18767265481E+02  0.43172450653E+02 -0.51963680731E+02  0.70273642741E+02  0.47000000000E+01 0. -1.
        -13    1    4    4    0    0 -0.33288541921E+01 -0.61791017588E+02 -0.11280235677E+03  0.12866072757E+03  0.00000000000E+00 0.  1.
         14    1    4    4    0    0  0.55247629362E+02 -0.57967825382E+02 -0.47397313484E+02  0.93054149048E+02  0.00000000000E+00 0. -1.
         -5    1    5    5    0  502  0.33788358829E+02 -0.91626420697E+01 -0.35712294718E+02  0.50230122398E+02  0.47000000000E+01 0.  1.
         11    1    6    6    0    0 -0.79939227788E+02  0.88543393619E+02  0.12684024349E+02  0.11996289912E+03  0.00000000000E+00 0. -1.
        -12    1    6    6    0    0 -0.24535171692E+02 -0.27943592319E+01 -0.27762186424E+02  0.37155377653E+02  0.00000000000E+00 0.  1.
</event>
<event>
12    1  0.8226261E-002  0.2727802E+03  0.7818608E-02  0.1100052E+00
         21   -1    0    0  503  502  0.00000000000E+00  0.00000000000E+00  0.48704760280E+02  0.48704760280E+02  0.00000000000E+00 0. -1.
         21   -1    0    0  501  503 -0.00000000000E+00 -0.00000000000E+00 -0.22453727922E+04  0.22453727922E+04  0.00000000000E+00 0.  1.
          6    2    1    2  501    0  0.10957786636E+03  0.17752437671E+03 -0.17496469485E+04  0.17704012127E+04  0.17185399759E+03 0.  0.
         24    2    3    3    0    0  0.11663947602E+03  0.92630280619E+02 -0.13943464614E+04  0.14050008843E+04  0.87408776405E+02 0.  0.
         -6    2    1    2    0  502 -0.10957786636E+03 -0.17752437671E+03 -0.44702108335E+03  0.52367633969E+03  0.17574654099E+03 0.  0.
        -24    2    5    5    0    0 -0.26819876042E+02 -0.76456796070E+01 -0.15225612209E+03  0.17351048030E+03  0.78397690624E+02 0.  0.
          5    1    3    3  501    0 -0.70616096597E+01  0.84894096090E+02 -0.35530048711E+03  0.36540032844E+03  0.47000000000E+01 0. -1.
        -13    1    4    4    0    0  0.18125650894E+00  0.21773111803E+02 -0.48547334692E+03  0.48596138923E+03  0.00000000000E+00 0.  1.
         14    1    4    4    0    0  0.11645821951E+03  0.70857168816E+02 -0.90887311449E+03  0.91903949508E+03  0.00000000000E+00 0. -1.
         -5    1    5    5    0  502 -0.82757990314E+02 -0.16987869710E+03 -0.29476496127E+03  0.35016585939E+03  0.47000000000E+01 0.  1.
         11    1    6    6    0    0 -0.23881878809E+02 -0.28562900107E+02 -0.25787191774E+02  0.45289763276E+02  0.00000000000E+00 0. -1.
        -12    1    6    6    0    0 -0.29379972333E+01  0.20917220500E+02 -0.12646893031E+03  0.12822071703E+03  0.00000000000E+00 0.  1.
</event>
<event>
12    1  0.8226261E-002  0.1788124E+03  0.7818608E-02  0.1169197E+00
         21   -1    0    0  501  502  0.00000000000E+00  0.00000000000E+00  0.22167637930E+03  0.22167637930E+03  0.00000000000E+00 0. -1.
         21   -1    0    0  502  503 -0.00000000000E+00 -0.00000000000E+00 -0.46075020404E+03  0.46075020404E+03  0.00000000000E+00 0. -1.
         -6    2    1    2    0  503  0.46417284930E+02  0.12707353011E+02 -0.40279718329E+03  0.44070336184E+03  0.17221452063E+03 0.  0.
        -24    2    3    3    0    0  0.59185164097E+02 -0.36350255433E+02 -0.35595721889E+03  0.37152431914E+03  0.80626008928E+02 0.  0.
          6    2    1    2  501    0 -0.46417284930E+02 -0.12707353011E+02  0.16372335855E+03  0.24172322149E+03  0.17119794541E+03 0.  0.
         24    2    5    5    0    0 -0.45963974709E+02 -0.66395688758E+02  0.72762414175E+02  0.13599419857E+03  0.81725018644E+02 0.  0.
          5    1    5    5  501    0 -0.45331022153E+00  0.53688335748E+02  0.90960944376E+02  0.10572902292E+03  0.47000000000E+01 0. -1.
        -11    1    6    6    0    0  0.12957364325E+02 -0.48205053410E+01 -0.10104403601E+02  0.17123946219E+02  0.00000000000E+00 0.  1.
         12    1    6    6    0    0 -0.58921339033E+02 -0.61575183417E+02  0.82866817777E+02  0.11887025235E+03  0.00000000000E+00 0. -1.
         -5    1    3    3    0  503 -0.12767879167E+02  0.49057608444E+02 -0.46839964400E+02  0.69179042705E+02  0.47000000000E+01 0.  1.
         11    1    4    4    0    0 -0.11717685305E+02 -0.32296877266E+02 -0.14161428523E+03  0.14572233257E+03  0.00000000000E+00 0. -1.
        -12    1    4    4    0    0  0.70902849402E+02 -0.40533781669E+01 -0.21434293366E+03  0.22580198656E+03  0.00000000000E+00 0.  1.
</event>
<event>
12    1  0.8226261E-002  0.3058741E+03  0.7818608E-02  0.1082981E+00
         21   -1    0    0  501  502  0.00000000000E+00  0.00000000000E+00  0.76449282587E+02  0.76449282587E+02  0.00000000000E+00 0. -1.
         21   -1    0    0  502  503 -0.00000000000E+00 -0.00000000000E+00 -0.15332335312E+04  0.15332335312E+04  0.00000000000E+00 0. -1.
         -6    2    1    2    0  503  0.24113640163E+03  0.53331675525E+02 -0.11067777947E+04  0.11482665442E+04  0.18046589086E+03 0.  0.
        -24    2    3    3    0    0  0.15407991213E+03  0.90115969829E+02 -0.90829459423E+03  0.92838114777E+03  0.70929389481E+02 0.  0.
          6    2    1    2  501    0 -0.24113640163E+03 -0.53331675525E+02 -0.35000645387E+03  0.46141626960E+03  0.17149176158E+03 0.  0.
         24    2    5    5    0    0 -0.13723432176E+03 -0.19128701177E+02 -0.10650722456E+03  0.19443415347E+03  0.85215520153E+02 0.  0.
          5    1    5    5  501    0 -0.10390207987E+03 -0.34202974348E+02 -0.24349922931E+03  0.26698211612E+03  0.47000000000E+01 0. -1.
        -13    1    6    6    0    0 -0.96497615309E+01 -0.31264529608E+02 -0.10712863963E+02  0.34428972734E+02  0.00000000000E+00 0.  1.
         14    1    6    6    0    0 -0.12758456023E+03  0.12135828431E+02 -0.95794360599E+02  0.16000518074E+03  0.00000000000E+00 0. -1.
         -5    1    3    3    0  503  0.87056489503E+02 -0.36784294304E+02 -0.19848320052E+03  0.21988539642E+03  0.47000000000E+01 0.  1.
         11    1    4    4    0    0  0.10332847482E+03  0.55428127836E+02 -0.73955333203E+03  0.74879114710E+03  0.00000000000E+00 0. -1.
        -12    1    4    4    0    0  0.50751437315E+02  0.34687841993E+02 -0.16874126220E+03  0.17959000067E+03  0.00000000000E+00 0.  1.
</event>
<event>
12    1  0.8226261E-002  0.2431385E+03  0.7818608E-02  0.1118213E+00
         21   -1    0    0  501  502  0.00000000000E+00  0.00000000000E+00  0.32830197003E+03  0.32830197003E+03  0.00000000000E+00 0.  1.
         21   -1    0    0  502  503 -0.00000000000E+00 -0.00000000000E+00 -0.24011566525E+03  0.24011566525E+03  0.00000000000E+00 0. -1.
         -6    2    1    2    0  503 -0.56749042102E+00 -0.17040663514E+03 -0.10082631829E+03  0.26045321461E+03  0.16920752701E+03 0.  0.
        -24    2    3    3    0    0  0.23902767693E+01 -0.37039669002E+02 -0.90735892611E+02  0.12658984122E+03  0.80089544824E+02 0.  0.
          6    2    1    2  501    0  0.56749042102E+00  0.17040663514E+03  0.18901262307E+03  0.30796442067E+03  0.17342885968E+03 0.  0.
         24    2    5    5    0    0  0.39953197673E+02  0.18133359298E+03  0.15735107102E+03  0.25604933402E+03  0.79522147581E+02 0.  0.
          5    1    5    5  501    0 -0.39385707252E+02 -0.10926957834E+02  0.31661552049E+02  0.51915086645E+02  0.47000000000E+01 0. -1.
        -11    1    6    6    0    0  0.30270259696E+02  0.81032843713E+02  0.12139050155E+03  0.14905792246E+03  0.00000000000E+00 0.  1.
         12    1    6    6    0    0  0.96829379764E+01  0.10030074926E+03  0.35960569468E+02  0.10699141156E+03  0.00000000000E+00 0. -1.
         -5    1    3    3    0  503 -0.29577671903E+01 -0.13336696614E+03 -0.10090425674E+02  0.13386337339E+03  0.47000000000E+01 0.  1.
         13    1    4    4    0    0 -0.26293097435E+02 -0.28663410879E+02 -0.95100556602E+01  0.40041968665E+02  0.00000000000E+00 0. -1.
        -14    1    4    4    0    0  0.28683374205E+02 -0.83762581235E+01 -0.81225836951E+02  0.86547872558E+02  0.00000000000E+00 0.  1.
</event>
<event>
12    1  0.8226261E-002  0.2004536E+03  0.7818608E-02  0.1149543E+00
         21   -1    0    0  501  502  0.00000000000E+00  0.00000000000E+00  0.23550021486E+03  0.23550021486E+03  0.00000000000E+00 0.  1.
         21   -1    0    0  502  503 -0.00000000000E+00 -0.00000000000E+00 -0.20986166111E+03  0.20986166111E+03  0.00000000000E+00 0.  1.
         -6    2    1    2    0  503  0.56524761609E+02 -0.84792509232E+02 -0.84409021667E+02  0.21668714921E+03  0.17159143160E+03 0.  0.
        -24    2    3    3    0    0  0.92342758758E+02 -0.21602593707E+02 -0.59136662440E+02  0.13963731803E+03  0.83711281153E+02 0.  0.
          6    2    1    2  501    0 -0.56524761609E+02  0.84792509232E+02  0.11004757541E+03  0.22867472676E+03  0.17261762224E+03 0.  0.
         24    2    5    5    0    0 -0.47323879662E+02  0.11410321181E+03  0.39252127024E+02  0.15135811129E+03  0.78163008169E+02 0.  0.
          5    1    5    5  501    0 -0.92008819473E+01 -0.29310702583E+02  0.70795448387E+02  0.77316615464E+02  0.47000000000E+01 0. -1.
        -11    1    6    6    0    0 -0.18737306961E+02  0.17667721899E+02 -0.21761155314E+02  0.33716211974E+02  0.00000000000E+00 0.  1.
         12    1    6    6    0    0 -0.28586572700E+02  0.96435489915E+02  0.61013282338E+02  0.11764189932E+03  0.00000000000E+00 0. -1.
         -5    1    3    3    0  503 -0.35817997149E+02 -0.63189915525E+02 -0.25272359227E+02  0.77049831179E+02  0.47000000000E+01 0.  1.
         11    1    4    4    0    0 -0.72909605122E+01  0.15978817477E+02  0.53540516224E+00  0.17571777709E+02  0.00000000000E+00 0. -1.
        -12    1    4    4    0    0  0.99633719270E+02 -0.37581411184E+02 -0.59672067602E+02  0.12206554032E+03  0.00000000000E+00 0.  1.
</event>
<event>
12    1  0.8226261E-002  0.2857200E+03  0.7818608E-02  0.1092690E+00
         21   -1    0    0  503  502  0.00000000000E+00  0.00000000000E+00  0.13520576835E+03  0.13520576835E+03  0.00000000000E+00 0.  1.
         21   -1    0    0  501  503 -0.00000000000E+00 -0.00000000000E+00 -0.71381541116E+03  0.71381541116E+03  0.00000000000E+00 0. -1.
          6    2    1    2  501    0  0.51254559720E+01  0.22812721098E+03 -0.45671424884E+03  0.53838567859E+03  0.17088867467E+03 0.  0.
         24    2    3    3    0    0 -0.46299818668E+02  0.83911560687E+02 -0.14515428247E+03  0.19120501193E+03  0.79402566967E+02 0.  0.
         -6    2    1    2    0  502 -0.51254559720E+01 -0.22812721098E+03 -0.12189539397E+03  0.31063550091E+03  0.17195241396E+03 0.  0.
        -24    2    5    5    0    0  0.59422575860E+02 -0.14133382575E+03 -0.10049027080E+03  0.20027332699E+03  0.80652452897E+02 0.  0.
          5    1    3    3  501    0  0.51425274640E+02  0.14421565029E+03 -0.31155996637E+03  0.34718066666E+03  0.47000000000E+01 0. -1.
        -13    1    4    4    0    0 -0.58729782020E+02  0.83346117839E+02 -0.14671505708E+03  0.17866468770E+03  0.00000000000E+00 0.  1.
         14    1    4    4    0    0  0.12429963352E+02  0.56544284853E+00  0.15607746068E+01  0.12540324235E+02  0.00000000000E+00 0. -1.
         -5    1    5    5    0  502 -0.64548031832E+02 -0.86793385231E+02 -0.21405123170E+02  0.11036217391E+03  0.47000000000E+01 0.  1.
         11    1    6    6    0    0  0.13590680497E+01 -0.25849822952E+02 -0.59147012464E+02  0.64563375810E+02  0.00000000000E+00 0. -1.
        -12    1    6    6    0    0  0.58063507811E+02 -0.11548400279E+03 -0.41343258335E+02  0.13570995118E+03  0.00000000000E+00 0.  1.
</event>
<event>
12    1  0.8226261E-002  0.1837632E+03  0.7818608E-02  0.1164526E+00
         21   -1    0    0  503  502  0.00000000000E+00  0.00000000000E+00  0.19403101701E+03  0.19403101701E+03  0.00000000000E+00 0.  1.
         21   -1    0    0  501  503 -0.00000000000E+00 -0.00000000000E+00 -0.23682440766E+03  0.23682440766E+03  0.00000000000E+00 0.  1.
          6    2    1    2  501    0  0.54487808844E+02  0.32379103729E+02 -0.13348566060E+03  0.22712842631E+03  0.17248644231E+03 0.  0.
         24    2    3    3    0    0  0.15954979445E+02  0.33214421970E+02 -0.15811547154E+03  0.18114805783E+03  0.80351461232E+02 0.  0.
         -6    2    1    2    0  502 -0.54487808844E+02 -0.32379103729E+02  0.90692269942E+02  0.20372699837E+03  0.17106219443E+03 0.  0.
        -24    2    5    5    0    0 -0.72327525067E+02 -0.59821167848E+02  0.18257724601E+02  0.12410177801E+03  0.79107924966E+02 0.  0.
          5    1    3    3  501    0  0.38532829399E+02 -0.83531824073E+00  0.24629810937E+02  0.45980368472E+02  0.47000000000E+01 0. -1.
        -13    1    4    4    0    0 -0.27727815469E+02  0.32878894508E+02 -0.96161516128E+02  0.10534178012E+03  0.00000000000E+00 0.  1.
         14    1    4    4    0    0  0.43682794914E+02  0.33552746149E+00 -0.61953955409E+02  0.75806277715E+02  0.00000000000E+00 0. -1.
         -5    1    5    5    0  502  0.17839716223E+02  0.27442064119E+02  0.72434545341E+02  0.79625220356E+02  0.47000000000E+01 0.  1.
         11    1    6    6    0    0  0.64965606315E+01  0.15749111833E+01  0.23122980974E+02  0.24069854474E+02  0.00000000000E+00 0. -1.
        -12    1    6    6    0    0 -0.78824085699E+02 -0.61396079031E+02 -0.48652563728E+01  0.10003192354E+03  0.00000000000E+00 0.  1.
</event>
<event>
12    1  0.8226261E-002  0.2441457E+03  0.7818608E-02  0.1117138E+00
         21   -1    0    0  501  502  0.00000000000E+00  0.00000000000E+00  0.48851345129E+03  0.48851345129E+03  0.00000000000E+00 0. -1.
         21   -1    0    0  502  503 -0.00000000000E+00 -0.00000000000E+00 -0.12962554902E+03  0.12962554902E+03  0.00000000000E+00 0. -1.
         -6    2    1    2    0  503  0.13962817054E+03  0.10224297566E+03  0.10358313136E+03  0.26521042813E+03  0.17221339670E+03 0.  0.
        -24    2    3    3    0    0  0.13355985022E+02  0.82151702143E+02  0.36415615588E+02  0.12070475598E+03  0.79474880038E+02 0.  0.
          6    2    1    2  501    0 -0.13962817054E+03 -0.10224297566E+03  0.25530477091E+03  0.35292857218E+03  0.17154707497E+03 0.  0.
         24    2    5    5    0    0 -0.48479557557E+02  0.10866365012E+01  0.51193194582E+02  0.10661839377E+03  0.79970559822E+02 0.  0.
          5    1    5    5  501    0 -0.91148612983E+02 -0.10332961217E+03  0.20411157632E+03  0.24631017841E+03  0.47000000000E+01 0. -1.
        -13    1    6    6    0    0  0.67359779757E+01  0.27197007115E+02  0.18154244518E+01  0.28077506322E+02  0.00000000000E+00 0.  1.
         14    1    6    6    0    0 -0.55215535532E+02 -0.26110370614E+02  0.49377770130E+02  0.78540887446E+02  0.00000000000E+00 0. -1.
         -5    1    3    3    0  503  0.12627218552E+03  0.20091273520E+02  0.67167515776E+02  0.14450567215E+03  0.47000000000E+01 0.  1.
         13    1    4    4    0    0  0.40134919599E+02  0.55349043929E+02  0.31220043655E+00  0.68369773323E+02  0.00000000000E+00 0. -1.
        -14    1    4    4    0    0 -0.26778934576E+02  0.26802658214E+02  0.36103415151E+02  0.52334982659E+02  0.00000000000E+00 0.  1.
</event>
<event>
12    1  0.8226261E-002  0.1988446E+03  0.7818608E-02  0.1150838E+00
         21   -1    0    0  503  502  0.00000000000E+00  0.00000000000E+00  0.32208717402E+03  0.32208717402E+03  0.00000000000E+00 0.  1.
         21   -1    0    0  501  503 -0.00000000000E+00 -0.00000000000E+00 -0.15266219794E+03  0.15266219794E+03  0.00000000000E+00 0.  1.
          6    2    1    2  501    0  0.89682945601E+02  0.41510915008E+02 -0.20860577306E+02  0.19993584849E+03  0.17254852369E+03 0.  0.
         24    2    3    3    0    0  0.23577723123E+02 -0.29020050162E+02  0.26742344746E+02  0.92081105083E+02  0.79785365649E+02 0.  0.
         -6    2    1    2    0  502 -0.89682945601E+02 -0.41510915008E+02  0.19028555338E+03  0.27481352348E+03  0.17189442708E+03 0.  0.
        -24    2    5    5    0    0 -0.96589211433E+02  0.25312347583E+02  0.14557616143E+03  0.19397996201E+03  0.80409055322E+02 0.  0.
          5    1    3    3  501    0  0.66105222477E+02  0.70530965170E+02 -0.47602922052E+02  0.10785474340E+03  0.47000000000E+01 0. -1.
        -11    1    4    4    0    0  0.32074134490E+02 -0.99134838276E+01 -0.21249797222E+02  0.39731362258E+02  0.00000000000E+00 0.  1.
         12    1    4    4    0    0 -0.84964113672E+01 -0.19106566334E+02  0.47992141968E+02  0.52349742825E+02  0.00000000000E+00 0. -1.
         -5    1    5    5    0  502  0.69062658326E+01 -0.66823262591E+02  0.44709391951E+02  0.80833561469E+02  0.47000000000E+01 0.  1.
         13    1    6    6    0    0 -0.90872911052E+01 -0.64796153827E+01 -0.84535032762E+01  0.14000928283E+02  0.00000000000E+00 0. -1.
        -14    1    6    6    0    0 -0.87501920328E+02  0.31791962966E+02  0.15402966471E+03  0.17997903373E+03  0.00000000000E+00 0.  1.
</event>
<event>
12    1  0.8226261E-002  0.3203649E+03  0.7818608E-02  0.1075488E+00
         21   -1    0    0  501  502  0.00000000000E+00  0.00000000000E+00  0.77935263912E+03  0.77935263912E+03  0.00000000000E+00 0.  1.
         21   -1    0    0  502  503 -0.00000000000E+00 -0.00000000000E+00 -0.19857866190E+03  0.19857866190E+03  0.00000000000E+00 0. -1.
         -6    2    1    2    0  503 -0.25248369578E+03  0.96959844365E+02  0.65423349444E+01  0.32037854482E+03  0.17161113535E+03 0.  0.
        -24    2    3    3    0    0 -0.11448842577E+03 -0.11141316105E+02 -0.24946375924E+02  0.14221518059E+03  0.79819216720E+02 0.  0.
          6    2    1    2  501    0  0.25248369578E+03 -0.96959844365E+02  0.57423164228E+03  0.65755275621E+03  0.17171027968E+03 0.  0.
         24    2    5    5    0    0  0.10625002705E+03 -0.42311064585E+02  0.14324488520E+03  0.19913978761E+03  0.77834847203E+02 0.  0.
          5    1    5    5  501    0  0.14623366874E+03 -0.54648779780E+02  0.43098675708E+03  0.45841296860E+03  0.47000000000E+01 0. -1.
        -11    1    6    6    0    0  0.22819880432E+02 -0.49378924248E+02  0.61852821122E+02  0.82369876676E+02  0.00000000000E+00 0.  1.
         12    1    6    6    0    0  0.83430146614E+02  0.70678596634E+01  0.81392064076E+02  0.11676991093E+03  0.00000000000E+00 0. -1.
         -5    1    3    3    0  503 -0.13799527001E+03  0.10810116047E+03  0.31488710869E+02  0.17816336422E+03  0.47000000000E+01 0.  1.
         13    1    4    4    0    0 -0.12163014712E+03 -0.15461927905E+01 -0.85778260700E+01  0.12194204567E+03  0.00000000000E+00 0. -1.
        -14    1    4    4    0    0  0.71417213500E+01 -0.95951233146E+01 -0.16368549854E+02  0.20273134923E+02  0.00000000000E+00 0.  1.
</event>
<event>
12    1  0.8226261E-002  0.1830586E+03  0.7818608E-02  0.1166611E+00
         21   -1    0    0  503  502  0.00000000000E+00  0.00000000000E+00  0.34385199700E+03  0.34385199700E+03  0.00000000000E+00 0.  1.
         21   -1    0    0  501  503 -0.00000000000E+00 -0.00000000000E+00 -0.12571681990E+03  0.12571681990E+03  0.00000000000E+00 0.  1.
          6    2    1    2  501    0 -0.30924175478E+02 -0.22029447263E+02 -0.78249481415E+01  0.18322577627E+03  0.17907778785E+03 0.  0.
         24    2    3    3    0    0 -0.20963771653E+02 -0.84543523991E+02  0.33265100329E+01  0.11877684724E+03  0.80683248576E+02 0.  0.
         -6    2    1    2    0  502  0.30924175478E+02  0.22029447263E+02  0.22596012524E+03  0.28634304063E+03  0.17173455547E+03 0.  0.
        -24    2    5    5    0    0 -0.44382305069E+02  0.11801619283E+02  0.57649423812E+02  0.10161010720E+03  0.69943481463E+02 0.  0.
          5    1    3    3  501    0 -0.99604038250E+01  0.62514076728E+02 -0.11151458174E+02  0.64448929028E+02  0.47000000000E+01 0. -1.
        -13    1    4    4    0    0 -0.38359210104E+02 -0.46563916154E+02 -0.28050444186E+02  0.66531606823E+02  0.00000000000E+00 0.  1.
         14    1    4    4    0    0  0.17395438451E+02 -0.37979607837E+02  0.31376954219E+02  0.52245240419E+02  0.00000000000E+00 0. -1.
         -5    1    5    5    0  502  0.75306480547E+02  0.10227827980E+02  0.16831070143E+03  0.18473293343E+03  0.47000000000E+01 0.  1.
         13    1    6    6    0    0  0.10495407386E+02 -0.14225302591E+02 -0.27526494509E+00  0.17680174795E+02  0.00000000000E+00 0. -1.
        -14    1    6    6    0    0 -0.54877712455E+02  0.26026921874E+02  0.57924688757E+02  0.83929932409E+02  0.00000000000E+00 0.  1.
</event>
<event>
12    1  0.8226261E-002  0.2327190E+03  0.7818608E-02  0.1125233E+00
         21   -1    0    0  503  502  0.00000000000E+00  0.00000000000E+00  0.21055073546E+03  0.21055073546E+03  0.00000000000E+00 0. -1.
         21   -1    0    0  501  503 -0.00000000000E+00 -0.00000000000E+00 -0.25533050310E+03  0.25533050310E+03  0.00000000000E+00 0. -1.
          6    2    1    2  501    0 -0.12573950237E+03 -0.85543387899E+02 -0.61508920949E+01  0.22997807699E+03  0.17240646377E+03 0.  0.
         24    2    3    3    0    0 -0.69580433068E+02  0.70886924932E+01  0.31332850716E+02  0.11525377983E+03  0.86081356890E+02 0.  0.
         -6    2    1    2    0  502  0.12573950237E+03  0.85543387899E+02 -0.38628875543E+02  0.23590316157E+03  0.17615339322E+03 0.  0.
        -24    2    5    5    0    0  0.13915650247E+02  0.85709247119E+02 -0.35563794744E+02  0.12393849691E+03  0.80970656140E+02 0.  0.
          5    1    3    3  501    0 -0.56159069301E+02 -0.92632080392E+02 -0.37483742811E+02  0.11472429716E+03  0.47000000000E+01 0. -1.
        -13    1    4    4    0    0 -0.71437952451E+01  0.16839570793E+02 -0.24741054525E+02  0.30768892310E+02  0.00000000000E+00 0.  1.
         14    1    4    4    0    0 -0.62436637823E+02 -0.97508782998E+01  0.56073905241E+02  0.84484887520E+02  0.00000000000E+00 0. -1.
         -5    1    5    5    0  502  0.11182385212E+03 -0.16585921976E+00 -0.30650807994E+01  0.11196466466E+03  0.47000000000E+01 0.  1.
         11    1    6    6    0    0  0.25558565093E+02  0.98115722186E+02 -0.27174219955E+02  0.10496844011E+03  0.00000000000E+00 0. -1.
        -12    1    6    6    0    0 -0.11642914845E+02 -0.12406475067E+02 -0.83895747882E+01  0.18970056795E+02  0.00000000000E+00 0.  1.
</event>
<event>
12    1  0.8226261E-002  0.1981799E+03  0.7818608E-02  0.1152776E+00
         21   -1    0    0  503  502  0.00000000000E+00  0.00000000000E+00  0.73317618170E+03  0.73317618170E+03  0.00000000000E+00 0. -1.
         21   -1    0    0  501  503 -0.00000000000E+00 -0.00000000000E+00 -0.53993230691E+02  0.53993230691E+02  0.00000000000E+00 0. -1.
          6    2    1    2  501    0  0.79384426967E+02  0.29700375975E+02  0.26476398884E+03  0.33071929680E+03  0.17914040280E+03 0.  0.
         24    2    3    3    0    0 -0.16880376328E+01  0.42288675354E+02  0.49616237214E+02  0.10041112320E+03  0.76350776903E+02 0.  0.
         -6    2    1    2    0  502 -0.79384426967E+02 -0.29700375975E+02  0.41441896217E+03  0.45645011559E+03  0.17152152120E+03 0.  0.
        -24    2    5    5    0    0 -0.10873488604E+02  0.41522844180E+02  0.17299994431E+03  0.19554452356E+03  0.80413311221E+02 0.  0.
          5    1    3    3  501    0  0.81072464599E+02 -0.12588299379E+02  0.21514775162E+03  0.23030817360E+03  0.47000000000E+01 0. -1.
        -11    1    4    4    0    0 -0.36738661352E+02  0.35670744348E+02  0.34039774307E+02  0.61488514985E+02  0.00000000000E+00 0.  1.
         12    1    4    4    0    0  0.35050623719E+02  0.66179310061E+01  0.15576462907E+02  0.38922608219E+02  0.00000000000E+00 0. -1.
         -5    1    5    5    0  502 -0.68510938362E+02 -0.71223220155E+02  0.24141901787E+03  0.26090559203E+03  0.47000000000E+01 0.  1.
         11    1    6    6    0    0 -0.37814639799E+02 -0.33522531835E+01  0.86120150690E+02  0.94116231010E+02  0.00000000000E+00 0. -1.
        -12    1    6    6    0    0  0.26941151195E+02  0.44875097364E+02  0.86879793616E+02  0.10142829255E+03  0.00000000000E+00 0.  1.
</event>
<event>
12    1  0.8226261E-002  0.1792558E+03  0.7818608E-02  0.1168532E+00
         21   -1    0    0  501  502  0.00000000000E+00  0.00000000000E+00  0.11167138495E+04  0.11167138495E+04  0.00000000000E+00 0. -1.
         21   -1    0    0  502  503 -0.00000000000E+00 -0.00000000000E+00 -0.40811893506E+02  0.40811893506E+02  0.00000000000E+00 0. -1.
         -6    2    1    2    0  503  0.50011037324E+02 -0.11711367404E+02  0.22354185707E+03  0.28652035769E+03  0.17171107574E+03 0.  0.
        -24    2    3    3    0    0  0.22054243285E+02  0.30302671257E+02  0.42556388052E+02  0.98571982412E+02  0.80627216375E+02 0.  0.
          6    2    1    2  501    0 -0.50011037324E+02  0.11711367404E+02  0.85236009892E+03  0.87100538530E+03  0.17173928791E+03 0.  0.
         24    2    5    5    0    0 -0.65434940336E+01  0.64040046611E+02  0.37579244499E+03  0.38958401399E+03  0.80073699539E+02 0.  0.
          5    1    5    5  501    0 -0.43467543290E+02 -0.52328679207E+02  0.47656765393E+03  0.48142137131E+03  0.47000000000E+01 0. -1.
        -13    1    6    6    0    0  0.74879775555E+01  0.13768373172E+02  0.70834769436E+01  0.17199231183E+02  0.00000000000E+00 0.  1.
         14    1    6    6    0    0 -0.14031471589E+02  0.50271673438E+02  0.36870896805E+03  0.37238478280E+03  0.00000000000E+00 0. -1.
         -5    1    3    3    0  503  0.27956794038E+02 -0.42014038661E+02  0.18098546901E+03  0.18794837528E+03  0.47000000000E+01 0.  1.
         11    1    4    4    0    0  0.25175152501E+02 -0.12195907544E+02 -0.11062927148E+02  0.30081835405E+02  0.00000000000E+00 0. -1.
        -12    1    4    4    0    0 -0.31209092156E+01  0.42498578801E+02  0.53619315200E+02  0.68490147007E+02  0.00000000000E+00 0.  1.
</event>
<event>
12    1  0.8226261E-002  0.1826061E+03  0.7818608E-02  0.1165427E+00
         21   -1    0    0  501  502  0.00000000000E+00  0.00000000000E+00  0.90860526819E+03  0.90860526819E+03  0.00000000000E+00 0. -1.
         21   -1    0    0  502  503 -0.00000000000E+00 -0.00000000000E+00 -0.79561453284E+02  0.79561453284E+02  0.00000000000E+00 0. -1.
         -6    2    1    2    0  503 -0.52951436840E+02  0.33935810767E+02  0.51167413558E+02  0.18914439939E+03  0.17088594352E+03 0.  0.
        -24    2    3    3    0    0 -0.33990426767E+02  0.31442988900E+02 -0.35906655335E+02  0.99871124901E+02  0.80876096770E+02 0.  0.
          6    2    1    2  501    0  0.52951436840E+02 -0.33935810767E+02  0.77787640135E+03  0.79902232209E+03  0.17143360669E+03 0.  0.
         24    2    5    5    0    0  0.86988429987E+02 -0.43447643082E+02  0.39702734292E+03  0.41650815613E+03  0.79960292967E+02 0.  0.
          5    1    5    5  501    0 -0.34036993147E+02  0.95118323143E+01  0.38084905843E+03  0.38251416596E+03  0.47000000000E+01 0. -1.
        -13    1    6    6    0    0  0.55599692620E+01 -0.42567232013E+02  0.16933336700E+03  0.17469021632E+03  0.00000000000E+00 0.  1.
         14    1    6    6    0    0  0.81428460725E+02 -0.88041106821E+00  0.22769397593E+03  0.24181793981E+03  0.00000000000E+00 0. -1.
         -5    1    3    3    0  503 -0.18961010074E+02  0.24928218672E+01  0.87074068893E+02  0.89273274486E+02  0.47000000000E+01 0.  1.
         11    1    4    4    0    0 -0.48736898259E+02  0.36483146168E+02 -0.50060850742E+02  0.78818741320E+02  0.00000000000E+00 0. -1.
        -12    1    4    4    0    0  0.14746471493E+02 -0.50401572681E+01  0.14154195407E+02  0.21052383580E+02  0.00000000000E+00 0.  1.
</event>
<event>
12    1  0.8226261E-002  0.1966411E+03  0.7818608E-02  0.1152683E+00
         21   -1    0    0  503  502  0.00000000000E+00  0.00000000000E+00  0.11592419894E+03  0.11592419894E+03  0.00000000000E+00 0.  1.
         21   -1    0    0  501  503 -0.00000000000E+00 -0.00000000000E+00 -0.35627408857E+03  0.35627408857E+03  0.00000000000E+00 0.  1.
          6    2    1    2  501    0  0.13705950672E+02 -0.92509821859E+02 -0.18069680348E+03  0.26705626752E+03  0.17297917508E+03 0.  0.
         24    2    3    3    0    0  0.52235697992E+02 -0.11335582002E+02 -0.13622755277E+03  0.16668992405E+03  0.79815544097E+02 0.  0.
         -6    2    1    2    0  502 -0.13705950672E+02  0.92509821859E+02 -0.59653086157E+02  0.20514201998E+03  0.17256545845E+03 0.  0.
        -24    2    5    5    0    0 -0.51449739690E+02  0.63384701042E+01 -0.14216416683E+01  0.94403198426E+02  0.78884034447E+02 0.  0.
          5    1    3    3  501    0 -0.38529747320E+02 -0.81174239858E+02 -0.44469250701E+02  0.10036634348E+03  0.47000000000E+01 0. -1.
        -13    1    4    4    0    0  0.25584807151E+02 -0.35267731545E+02 -0.25886140895E+02  0.50680247984E+02  0.00000000000E+00 0.  1.
         14    1    4    4    0    0  0.26650890841E+02  0.23932149543E+02 -0.11034141188E+03  0.11600967606E+03  0.00000000000E+00 0. -1.
         -5    1    5    5    0  502  0.37743789018E+02  0.86171351755E+02 -0.58231444489E+02  0.11073882156E+03  0.47000000000E+01 0.  1.
         13    1    6    6    0    0 -0.20900413751E+02 -0.91085429617E+00 -0.39712279901E+02  0.44885656121E+02  0.00000000000E+00 0. -1.
        -14    1    6    6    0    0 -0.30549325939E+02  0.72493244003E+01  0.38290638233E+02  0.49517542305E+02  0.00000000000E+00 0.  1.
</event>
<event>
12    1  0.8226261E-002  0.2011931E+03  0.7818608E-02  0.1149018E+00
         21   -1    0    0  501  502  0.00000000000E+00  0.00000000000E+00  0.12013834255E+03  0.12013834255E+03  0.00000000000E+00 0.  1.
         21   -1    0    0  502  503 -0.00000000000E+00 -0.00000000000E+00 -0.63356240611E+03  0.63356240611E+03  0.00000000000E+00 0.  1.
         -6    2    1    2    0  503  0.69470998246E+00 -0.10249197389E+03 -0.51599639111E+03  0.55383295553E+03  0.17312879501E+03 0.  0.
        -24    2    3    3    0    0  0.82266971869E+01 -0.13904267408E+03 -0.45244620407E+03  0.47998581077E+03  0.79235517317E+02 0.  0.
          6    2    1    2  501    0 -0.69470998246E+00  0.10249197389E+03  0.25723275479E+01  0.19986779314E+03  0.17156756841E+03 0.  0.
         24    2    5    5    0    0  0.23735463652E+02  0.13015281631E+03  0.25138308495E+02  0.15635608111E+03  0.79449114010E+02 0.  0.
          5    1    5    5  501    0 -0.24430173635E+02 -0.27660842424E+02 -0.22565980947E+02  0.43511712027E+02  0.47000000000E+01 0. -1.
        -11    1    6    6    0    0  0.16806081941E+02  0.83933654917E+02  0.54205088554E+02  0.10131877636E+03  0.00000000000E+00 0.  1.
         12    1    6    6    0    0  0.69293817109E+01  0.46219161397E+02 -0.29066780059E+02  0.55037304750E+02  0.00000000000E+00 0. -1.
         -5    1    3    3    0  503 -0.75319872044E+01  0.36550700196E+02 -0.63550187042E+02  0.73847144759E+02  0.47000000000E+01 0.  1.
         13    1    4    4    0    0  0.13219849940E+02 -0.91416159583E+02 -0.16966386680E+03  0.19317739610E+03  0.00000000000E+00 0. -1.
        -14    1    4    4    0    0 -0.49931527532E+01 -0.47626514502E+02 -0.28278233727E+03  0.28680841467E+03  0.00000000000E+00 0.  1.
</event>
<event>
12    1  0.8226261E-002  0.2202376E+03  0.7818608E-02  0.1133920E+00
         21   -1    0    0  503  502  0.00000000000E+00  0.00000000000E+00  0.12368050928E+04  0.12368050928E+04  0.00000000000E+00 0. -1.
         21   -1    0    0  501  503 -0.00000000000E+00 -0.00000000000E+00 -0.61806050309E+02  0.61806050309E+02  0.00000000000E+00 0.  1.
          6    2    1    2  501    0  0.18698877538E+02  0.13429919157E+03  0.19416664193E+03  0.29360738959E+03  0.17354738117E+03 0.  0.
         24    2    3    3    0    0  0.45706334785E+02  0.89743302143E+02  0.36377620365E+02  0.12737232905E+03  0.68974267841E+02 0.  0.
         -6    2    1    2    0  502 -0.18698877538E+02 -0.13429919157E+03  0.98083240054E+03  0.10050037535E+04  0.17208842410E+03 0.  0.
        -24    2    5    5    0    0 -0.15975405985E+02 -0.72593502822E+01  0.54337980842E+03  0.54944541593E+03  0.79503063618E+02 0.  0.
          5    1    3    3  501    0 -0.27007457247E+02  0.44555889422E+02  0.15778902156E+03  0.16623506055E+03  0.47000000000E+01 0. -1.
        -11    1    4    4    0    0 -0.13657800938E+02  0.78416813616E+00 -0.18350214347E+01  0.13802816734E+02  0.00000000000E+00 0.  1.
         12    1    4    4    0    0  0.59364135723E+02  0.88959134007E+02  0.38212641800E+02  0.11356951231E+03  0.00000000000E+00 0. -1.
         -5    1    5    5    0  502 -0.27234715528E+01 -0.12703984128E+03  0.43745259212E+03  0.45555833756E+03  0.47000000000E+01 0.  1.
         13    1    6    6    0    0  0.27097784193E+02 -0.21632381992E+02  0.28557038212E+03  0.28766767807E+03  0.00000000000E+00 0. -1.
        -14    1    6    6    0    0 -0.43073190178E+02  0.14373031710E+02  0.25780942630E+03  0.26177773787E+03  0.00000000000E+00 0.  1.
</event>
<event>
12    1  0.8226261E-002  0.1821578E+03  0.7818608E-02  0.1165781E+00
         21   -1    0    0  503  502  0.00000000000E+00  0.00000000000E+00  0.74609087001E+03  0.74609087001E+03  0.00000000000E+00 0.  1.
         21   -1    0    0  501  503 -0.00000000000E+00 -0.00000000000E+00 -0.83580173344E+02  0.83580173344E+02  0.00000000000E+00 0.  1.
          6    2    1    2  501    0  0.57884530990E+02  0.11610024760E+02  0.47412113870E+02  0.18822694543E+03  0.17232545616E+03 0.  0.
         24    2    3    3    0    0 -0.30931529547E+02  0.29836733519E+01  0.49231227184E+02  0.98850742101E+02  0.79888006967E+02 0.  0.
         -6    2    1    2    0  502 -0.57884530990E+02 -0.11610024760E+02  0.61509858279E+03  0.64144409792E+03  0.17210128588E+03 0.  0.
        -24    2    5    5    0    0 -0.78700815293E+02  0.34181065087E+02  0.52799316651E+03  0.54074859084E+03  0.79183906644E+02 0.  0.
          5    1    3    3  501    0  0.88816060537E+02  0.86263514081E+01 -0.18191133140E+01  0.89376203327E+02  0.47000000000E+01 0. -1.
        -11    1    4    4    0    0 -0.12698113833E+02  0.83346279196E+01 -0.21099568909E+02  0.25998075421E+02  0.00000000000E+00 0.  1.
         12    1    4    4    0    0 -0.18233415714E+02 -0.53509545677E+01  0.70330796092E+02  0.72852666680E+02  0.00000000000E+00 0. -1.
         -5    1    5    5    0  502  0.20816284303E+02 -0.45791089847E+02  0.87105416284E+02  0.10069550709E+03  0.47000000000E+01 0.  1.
         13    1    6    6    0    0 -0.15641513216E+01  0.37421906845E+02  0.22370976782E+03  0.22682351267E+03  0.00000000000E+00 0. -1.
        -14    1    6    6    0    0 -0.77136663971E+02 -0.32408417584E+01  0.30428339869E+03  0.31392507817E+03  0.00000000000E+00 0.  1.
</event>
<event>
12    1  0.8226261E-002  0.1766702E+03  0.7818608E-02  0.1171804E+00
         21   -1    0    0  501  502  0.00000000000E+00  0.00000000000E+00  0.34602526344E+02  0.34602526344E+02  0.00000000000E+00 0.  1.
         21   -1    0    0  502  503 -0.00000000000E+00 -0.00000000000E+00 -0.13752903821E+04  0.13752903821E+04  0.00000000000E+00 0.  1.
         -6    2    1    2    0  503 -0.23335298275E-01  0.18813304043E+02 -0.10867340556E+04  0.11005308395E+04  0.17269418040E+03 0.  0.
        -24    2    3    3    0    0 -0.57379972750E+02 -0.25523327379E+02 -0.67589032724E+03  0.68331365391E+03  0.78395877769E+02 0.  0.
          6    2    1    2  501    0  0.23335298275E-01 -0.18813304043E+02 -0.25395380008E+03  0.30936206896E+03  0.17566563745E+03 0.  0.
         24    2    5    5    0    0 -0.47337618880E+02  0.25619049266E+02 -0.20921421379E+03  0.23036197666E+03  0.79992919641E+02 0.  0.
          5    1    5    5  501    0  0.47360954178E+02 -0.44432353309E+02 -0.44739586290E+02  0.79000092295E+02  0.47000000000E+01 0. -1.
        -11    1    6    6    0    0 -0.44500749289E+02  0.51512524374E+02 -0.12663162356E+03  0.14376865076E+03  0.00000000000E+00 0.  1.
         12    1    6    6    0    0 -0.28368695904E+01 -0.25893475108E+02 -0.82582590229E+02  0.86593325904E+02  0.00000000000E+00 0. -1.
         -5    1    3    3    0  503  0.57356637452E+02  0.44336631422E+02 -0.41084372841E+03  0.41721718555E+03  0.47000000000E+01 0.  1.
         13    1    4    4    0    0 -0.72652493318E+02 -0.10013790204E+02 -0.40788971001E+03  0.41443054462E+03  0.00000000000E+00 0. -1.
        -14    1    4    4    0    0  0.15272520568E+02 -0.15509537175E+02 -0.26800061723E+03  0.26888310929E+03  0.00000000000E+00 0.  1.
</event>
<event>
12    1  0.8226261E-002  0.1985541E+03  0.7818608E-02  0.1150992E+00
         21   -1    0    0  503  502  0.00000000000E+00  0.00000000000E+00  0.24196585498E+03  0.24196585498E+03  0.00000000000E+00 0. -1.
         21   -1    0    0  501  503 -0.00000000000E+00 -0.00000000000E+00 -0.21561898160E+03  0.21561898160E+03  0.00000000000E+00 0. -1.
          6    2    1    2  501    0  0.93204285736E+02  0.30813273047E+02 -0.10004244397E+03  0.22221704881E+03  0.17243964020E+03 0.  0.
         24    2    3    3    0    0 -0.58401337306E+01  0.44464188347E+02 -0.21560845167E+02  0.95025870399E+02  0.80956005295E+02 0.  0.
         -6    2    1    2    0  502 -0.93204285736E+02 -0.30813273047E+02  0.12638931735E+03  0.23536778777E+03  0.17258980069E+03 0.  0.
        -24    2    5    5    0    0 -0.60582375972E+02 -0.76179002174E+02  0.40035324237E+02  0.13240497651E+03  0.80341682619E+02 0.  0.
          5    1    3    3  501    0  0.99044419467E+02 -0.13650915300E+02 -0.78481598802E+02  0.12719117842E+03  0.47000000000E+01 0. -1.
        -11    1    4    4    0    0 -0.38967831338E+02  0.76822725394E+01 -0.22239094035E+02  0.45520176779E+02  0.00000000000E+00 0.  1.
         12    1    4    4    0    0  0.33127697607E+02  0.36781915808E+02  0.67824886825E+00  0.49505693619E+02  0.00000000000E+00 0. -1.
         -5    1    5    5    0  502 -0.32621909764E+02  0.45365729126E+02  0.86353993114E+02  0.10296281126E+03  0.47000000000E+01 0.  1.
         13    1    6    6    0    0 -0.71673896811E+02 -0.48890335768E+02  0.53873233950E+01  0.86927761210E+02  0.00000000000E+00 0. -1.
        -14    1    6    6    0    0  0.11091520839E+02 -0.27288666406E+02  0.34648000842E+02  0.45477215296E+02  0.00000000000E+00 0.  1.
</event>
<event>
12    1  0.8226261E-002  0.1763626E+03  0.7818608E-02  0.1171773E+00
         21   -1    0    0  501  502  0.00000000000E+00  0.00000000000E+00  0.32743513480E+03  0.32743513480E+03  0.00000000000E+00 0. -1.
         21   -1    0    0  502  503 -0.00000000000E+00 -0.00000000000E+00 -0.11363780970E+03  0.11363780970E+03  0.00000000000E+00 0. -1.
         -6    2    1    2    0  503  0.20227668572E+02 -0.38634496843E+02  0.15107606375E+02  0.17540138788E+03  0.16922063757E+03 0.  0.
        -24    2    3    3    0    0  0.25094988336E+02  0.22149500795E+02 -0.38974163341E+02  0.93760019778E+02  0.78432117627E+02 0.  0.
          6    2    1    2  501    0 -0.20227668572E+02  0.38634496843E+02  0.19868971873E+03  0.26567155661E+03  0.17088589392E+03 0.  0.
         24    2    5    5    0    0 -0.50475540179E+02  0.17432979164E+02  0.44372211217E+02  0.10692515126E+03  0.81316701384E+02 0.  0.
          5    1    5    5  501    0  0.30247871608E+02  0.21201517679E+02  0.15431750751E+03  0.15874640536E+03  0.47000000000E+01 0. -1.
        -13    1    6    6    0    0 -0.32501763879E-01 -0.14539266679E+02 -0.16264827450E+02  0.21815956177E+02  0.00000000000E+00 0.  1.
         14    1    6    6    0    0 -0.50443038415E+02  0.31972245844E+02  0.60637038667E+02  0.85109195080E+02  0.00000000000E+00 0. -1.
         -5    1    3    3    0  503 -0.48673197646E+01 -0.60783997638E+02  0.54081769716E+02  0.81641368106E+02  0.47000000000E+01 0.  1.
         13    1    4    4    0    0  0.24092291890E+02  0.20225041055E+02  0.18335087564E+02  0.36409699946E+02  0.00000000000E+00 0. -1.
        -14    1    4    4    0    0  0.10026964459E+01  0.19244597396E+01 -0.57309250905E+02  0.57350319831E+02  0.00000000000E+00 0.  1.
</event>
<event>
12    1  0.8226261E-002  0.1997150E+03  0.7818608E-02  0.1150054E+00
         21   -1    0    0  503  502  0.00000000000E+00  0.00000000000E+00  0.10902076178E+03  0.10902076178E+03  0.00000000000E+00 0.  1.
         21   -1    0    0  501  503 -0.00000000000E+00 -0.00000000000E+00 -0.37599239710E+03  0.37599239710E+03  0.00000000000E+00 0.  1.
          6    2    1    2  501    0  0.88977635345E+02  0.38888145177E+02 -0.92312362750E+02  0.21969838781E+03  0.17411634577E+03 0.  0.
         24    2    3    3    0    0  0.13093960396E+02  0.62776761788E+02 -0.94166520675E+02  0.13998310679E+03  0.81336110983E+02 0.  0.
         -6    2    1    2    0  502 -0.88977635345E+02 -0.38888145177E+02 -0.17465927257E+03  0.26531477107E+03  0.17451864894E+03 0.  0.
        -24    2    5    5    0    0 -0.79921515085E+02 -0.91012784405E+02 -0.14191213364E+03  0.20291720352E+03  0.79784474118E+02 0.  0.
          5    1    3    3  501    0  0.75883674949E+02 -0.23888616611E+02  0.18541579250E+01  0.79715281025E+02  0.47000000000E+01 0. -1.
        -13    1    4    4    0    0 -0.78455088830E+01  0.13097769659E+02  0.12978955285E+02  0.20038883701E+02  0.00000000000E+00 0.  1.
         14    1    4    4    0    0  0.20939469279E+02  0.49678992129E+02 -0.10714547596E+03  0.11994422309E+03  0.00000000000E+00 0. -1.
         -5    1    5    5    0  502 -0.90561202596E+01  0.52124639227E+02 -0.32747138934E+02  0.62397567557E+02  0.47000000000E+01 0.  1.
         13    1    6    6    0    0  0.10775168565E+02 -0.35837472167E+02 -0.25039675714E+02  0.45026814553E+02  0.00000000000E+00 0. -1.
        -14    1    6    6    0    0 -0.90696683649E+02 -0.55175312237E+02 -0.11687245792E+03  0.15789038896E+03  0.00000000000E+00 0.  1.
</event>
<event>
12    1  0.8226261E-002  0.2243237E+03  0.7818608E-02  0.1131131E+00
         21   -1    0    0  503  502  0.00000000000E+00  0.00000000000E+00  0.13030760790E+04  0.13030760790E+04  0.00000000000E+00 0.  1.
         21   -1    0    0  501  503 -0.00000000000E+00 -0.00000000000E+00 -0.40928171037E+02  0.40928171037E+02  0.00000000000E+00 0.  1.
          6    2    1    2  501    0  0.12348563518E+03  0.68804868618E+02  0.46107199895E+03  0.51274604336E+03  0.17417894454E+03 0.  0.
         24    2    3    3    0    0  0.20387612499E+02 -0.18532081256E+02  0.12767951139E+03  0.15298280752E+03  0.79640372869E+02 0.  0.
         -6    2    1    2    0  502 -0.12348563518E+03 -0.68804868618E+02  0.80107590906E+03  0.83125820673E+03  0.17112797005E+03 0.  0.
        -24    2    5    5    0    0 -0.13159857798E+03 -0.85510764145E+02  0.78620791591E+03  0.80700838185E+03  0.92246218465E+02 0.  0.
          5    1    3    3  501    0  0.10309802268E+03  0.87336949874E+02  0.33339248756E+03  0.35976323583E+03  0.47000000000E+01 0. -1.
        -11    1    4    4    0    0  0.20584728564E+02  0.22353239588E+02  0.16618111078E+02  0.34634664514E+02  0.00000000000E+00 0.  1.
         12    1    4    4    0    0 -0.19711606581E+00 -0.40885320845E+02  0.11106140031E+03  0.11834814301E+03  0.00000000000E+00 0. -1.
         -5    1    5    5    0  502  0.81129428033E+01  0.16705895528E+02  0.14867993146E+02  0.24249824876E+02  0.47000000000E+01 0.  1.
         13    1    6    6    0    0 -0.44626136089E+02  0.16746027424E+02  0.22007228636E+03  0.22517489354E+03  0.00000000000E+00 0. -1.
        -14    1    6    6    0    0 -0.86972441893E+02 -0.10225679157E+03  0.56613562955E+03  0.58183348831E+03  0.00000000000E+00 0.  1.
</event>
<event>
12    1  0.8226261E-002  0.2278599E+03  0.7818608E-02  0.1128323E+00
         21   -1    0    0  501  502  0.00000000000E+00  0.00000000000E+00  0.33857982137E+02  0.33857982137E+02  0.00000000000E+00 0.  1.
         21   -1    0    0  502  503 -0.00000000000E+00 -0.00000000000E+00 -0.19473146734E+04  0.19473146734E+04  0.00000000000E+00 0. -1.
         -6    2    1    2    0  503 -0.11475389980E+02 -0.14610861453E+03 -0.14153099286E+04  0.14333858778E+04  0.17324395837E+03 0.  0.
        -24    2    3    3    0    0  0.46636660165E+02 -0.63339048232E+02 -0.49093799888E+03  0.50348622420E+03  0.79318636576E+02 0.  0.
          6    2    1    2  501    0  0.11475389980E+02  0.14610861453E+03 -0.49814676268E+03  0.54778677767E+03  0.17447276235E+03 0.  0.
         24    2    5    5    0    0  0.51784130480E+01  0.15810042926E+03 -0.50216625747E+03  0.53289712094E+03  0.82376147501E+02 0.  0.
          5    1    5    5  501    0  0.62969769323E+01 -0.11991814728E+02  0.40194947892E+01  0.14889656723E+02  0.47000000000E+01 0. -1.
        -11    1    6    6    0    0 -0.32348409898E+01  0.21419054349E+02 -0.13775174324E+02  0.25670907913E+02  0.00000000000E+00 0.  1.
         12    1    6    6    0    0  0.84132540377E+01  0.13668137491E+03 -0.48839108314E+03  0.50722621303E+03  0.00000000000E+00 0. -1.
         -5    1    3    3    0  503 -0.58112050146E+02 -0.82769566302E+02 -0.92437192967E+03  0.92989965364E+03  0.47000000000E+01 0.  1.
         11    1    4    4    0    0 -0.93403437452E+01 -0.32616997864E+02 -0.30517442651E+03  0.30705462245E+03  0.00000000000E+00 0. -1.
        -12    1    4    4    0    0  0.55977003910E+02 -0.30722050368E+02 -0.18576357238E+03  0.19643160175E+03  0.00000000000E+00 0.  1.
</event>
<event>
12    1  0.8226261E-002  0.2524269E+03  0.7818608E-02  0.1111835E+00
         21   -1    0    0  503  502  0.00000000000E+00  0.00000000000E+00  0.72255189732E+03  0.72255189732E+03  0.00000000000E+00 0.  1.
         21   -1    0    0  501  503 -0.00000000000E+00 -0.00000000000E+00 -0.12365546389E+03  0.12365546389E+03  0.00000000000E+00 0. -1.
          6    2    1    2  501    0 -0.72864764313E+02 -0.16958706143E+03  0.72313300340E+02  0.26224750213E+03  0.17168428492E+03 0.  0.
         24    2    3    3    0    0 -0.61796257711E+02 -0.10644297209E+03 -0.21885808962E+02  0.14820693896E+03  0.79607941477E+02 0.  0.
         -6    2    1    2    0  502  0.72864764313E+02  0.16958706143E+03  0.52658313309E+03  0.58395985907E+03  0.17219255407E+03 0.  0.
        -24    2    5    5    0    0  0.74734283188E+02  0.84289366963E+02  0.44497640500E+03  0.46580343796E+03  0.79239708115E+02 0.  0.
          5    1    3    3  501    0 -0.11068506602E+02 -0.63144089337E+02  0.94199109303E+02  0.11404056318E+03  0.47000000000E+01 0. -1.
        -11    1    4    4    0    0 -0.59064842356E+02 -0.52225283953E+02  0.17965521876E+02  0.80863439593E+02  0.00000000000E+00 0.  1.
         12    1    4    4    0    0 -0.27314153545E+01 -0.54217688136E+02 -0.39851330839E+02  0.67343499362E+02  0.00000000000E+00 0. -1.
         -5    1    5    5    0  502 -0.18695188756E+01  0.85297694464E+02  0.81606728091E+02  0.11815642112E+03  0.47000000000E+01 0.  1.
         13    1    6    6    0    0 -0.27111687740E+01 -0.72247431725E+01  0.10546661229E+03  0.10574853975E+03  0.00000000000E+00 0. -1.
        -14    1    6    6    0    0  0.77445451962E+02  0.91514110135E+02  0.33950979270E+03  0.36005489821E+03  0.00000000000E+00 0.  1.
</event>
<event>
12    1  0.8226261E-002  0.2142181E+03  0.7818608E-02  0.1139317E+00
         21   -1    0    0  503  502  0.00000000000E+00  0.00000000000E+00  0.25975808533E+03  0.25975808533E+03  0.00000000000E+00 0. -1.
         21   -1    0    0  501  503 -0.00000000000E+00 -0.00000000000E+00 -0.28990784340E+03  0.28990784340E+03  0.00000000000E+00 0. -1.
          6    2    1    2  501    0 -0.11507276812E+03  0.48946154169E+02 -0.19025128401E+03  0.28650473200E+03  0.17393085529E+03 0.  0.
         24    2    3    3    0    0 -0.87595547104E+01 -0.25529816032E+02 -0.92903803515E+02  0.12418470415E+03  0.77860276982E+02 0.  0.
         -6    2    1    2    0  502  0.11507276812E+03 -0.48946154169E+02  0.16010152593E+03  0.26316119673E+03  0.16728373766E+03 0.  0.
        -24    2    5    5    0    0  0.89856605246E+02 -0.86265421459E+02  0.72379572915E+02  0.16444030926E+03  0.79283543609E+02 0.  0.
          5    1    3    3  501    0 -0.10631321341E+03  0.74475970200E+02 -0.97347480497E+02  0.16232002785E+03  0.47000000000E+01 0. -1.
        -13    1    4    4    0    0 -0.42759520489E+02 -0.81083583781E+01 -0.57373688780E+02  0.72012931007E+02  0.00000000000E+00 0.  1.
         14    1    4    4    0    0  0.33999965778E+02 -0.17421457653E+02 -0.35530114735E+02  0.52171773142E+02  0.00000000000E+00 0. -1.
         -5    1    5    5    0  502  0.25216162875E+02  0.37319267291E+02  0.87721953019E+02  0.98720887470E+02  0.47000000000E+01 0.  1.
         11    1    6    6    0    0  0.86640409068E+02 -0.42409218068E+02  0.72158865983E+02  0.12046578021E+03  0.00000000000E+00 0. -1.
        -12    1    6    6    0    0  0.32161961788E+01 -0.43856203391E+02  0.22070693173E+00  0.43974529051E+02  0.00000000000E+00 0.  1.
</event>
